
     Program PWSCF v.7.2 starts on  1Nov2023 at 14:27:40 

     This program is part of the open-source Quantum ESPRESSO suite
     for quantum simulation of materials; please cite
         "P. Giannozzi et al., J. Phys.:Condens. Matter 21 395502 (2009);
         "P. Giannozzi et al., J. Phys.:Condens. Matter 29 465901 (2017);
         "P. Giannozzi et al., J. Chem. Phys. 152 154105 (2020);
          URL http://www.quantum-espresso.org", 
     in publications or presentations arising from this work. More details at
     http://www.quantum-espresso.org/quote

     Parallel version (MPI & OpenMP), running on      48 processor cores
     Number of MPI processes:                48
     Threads/MPI process:                     1

     MPI processes distributed on     1 nodes
     61289 MiB available memory on the printing compute node when the environment starts
 
     Waiting for input...
     Reading input from standard input
Warning: card &CELL ignored
Warning: card CELL_DYNAMICS = 'BFGS', ignored
Warning: card CELL_DOFREE = '2DXY' ignored
Warning: card / ignored

     Current dimensions of program PWSCF are:
     Max number of different atomic species (ntypx) = 10
     Max number of k-points (npk) =  40000
     Max angular momentum in pseudopotentials (lmaxx) =  4
     file O.pbe-n-kjpaw_psl.0.1.UPF: wavefunction(s)  2P renormalized

     IMPORTANT: XC functional enforced from input :
     Exchange-correlation= RVV10
                           (   1   4  13   4  26   0   0)
     Any further DFT definition will be discarded
     Please, verify this is what you really want


     gamma-point specific algorithms are used
     signal trapping enabled: kill the code with -SIGUSR1 to stop cleanly the simulation 
 
     R & G space division:  proc/nbgrp/npool/nimage =      48
     Subspace diagonalization in iterative solution of the eigenvalue problem:
     one sub-group per band group will be used
     scalapack distributed-memory algorithm (size of sub-group:  2*  2 procs)

 
     Parallelization info
     --------------------
     sticks:   dense  smooth     PW     G-vecs:    dense   smooth      PW
     Min         396     194     47               101632    35090    4376
     Max         398     196     50               101674    35128    4410
     Sum       19091    9389   2349              4879585  1685513  210763
 
     Using Slab Decomposition
 


     bravais-lattice index     =            0
     lattice parameter (alat)  =      17.8707  a.u.
     unit-cell volume          =   17436.2743 (a.u.)^3
     number of atoms/cell      =           36
     number of atomic types    =            3
     number of electrons       =       312.00
     number of Kohn-Sham states=          187
     kinetic-energy cutoff     =      80.0000  Ry
     charge density cutoff     =     650.0000  Ry
     scf convergence threshold =      1.0E-06
     mixing beta               =       0.7000
     number of iterations used =            8  local-TF  mixing
     energy convergence thresh.=      1.0E-04
     force convergence thresh. =      1.0E-02
     Exchange-correlation= RVV10
                           (   1   4  13   4  26   0   0)
     nstep                     =          200


     celldm(1)=  17.870686  celldm(2)=   0.000000  celldm(3)=   0.000000
     celldm(4)=   0.000000  celldm(5)=   0.000000  celldm(6)=   0.000000

     crystal axes: (cart. coord. in units of alat)
               a(1) = (   1.000000   0.000000   0.000000 )  
               a(2) = (   0.000000   1.155671   0.000000 )  
               a(3) = (   0.000000   0.000000   2.643601 )  

     reciprocal axes: (cart. coord. in units 2 pi/alat)
               b(1) = (  1.000000  0.000000  0.000000 )  
               b(2) = (  0.000000  0.865298  0.000000 )  
               b(3) = (  0.000000  0.000000  0.378272 )  


     PseudoPot. # 1 for Mo read from file:
     ../pseudo/Mo_ONCV_PBE-1.0.oncvpsp.upf
     MD5 check sum: 1b5d28e075c9ccadda658a603575cd1f
     Pseudo is Norm-conserving, Zval = 14.0
     Generated using ONCVPSP code by D. R. Hamann
     Using radial grid of 1526 points,  6 beta functions with: 
                l(1) =   0
                l(2) =   0
                l(3) =   1
                l(4) =   1
                l(5) =   2
                l(6) =   2

     PseudoPot. # 2 for S  read from file:
     ../pseudo/s_pbe_v1.4.uspp.F.UPF
     MD5 check sum: 88d86576ff6df21479756cfb9bdac1df
     Pseudo is Ultrasoft + core correction, Zval =  6.0
     Generated by new atomic code, or converted to UPF format
     Using radial grid of  907 points,  6 beta functions with: 
                l(1) =   0
                l(2) =   0
                l(3) =   1
                l(4) =   1
                l(5) =   2
                l(6) =   2
     Q(r) pseudized with  8 coefficients,  rinner =    1.300   1.300   1.300
                                                       1.300   1.300

     PseudoPot. # 3 for O  read from file:
     ../pseudo/O.pbe-n-kjpaw_psl.0.1.UPF
     MD5 check sum: 0234752ac141de4415c5fc33072bef88
     Pseudo is Projector augmented-wave + core cor, Zval =  6.0
     Generated using "atomic" code by A. Dal Corso  v.5.0.99 svn rev. 10869
     Shape of augmentation charge: BESSEL
     Using radial grid of 1095 points,  4 beta functions with: 
                l(1) =   0
                l(2) =   0
                l(3) =   1
                l(4) =   1
     Q(r) pseudized with 0 coefficients 


     atomic species   valence    mass     pseudopotential
        Mo            14.00    95.94000     Mo( 1.00)
        S              6.00    32.06500     S ( 1.00)
        O              6.00    15.99940     O ( 1.00)

     No symmetry found



   Cartesian axes

     site n.     atom                  positions (alat units)
         1           Mo  tau(   1) = (   0.6952221   0.1890506   0.2985846  )
         2           S   tau(   2) = (   0.8646417   0.0856217   0.4689279  )
         3           S   tau(   3) = (   0.8663890   0.0857843   0.1351291  )
         4           Mo  tau(   4) = (   0.8560186   0.4753274   0.2873942  )
         5           S   tau(   5) = (   0.6873294   0.3936244   0.4596353  )
         6           S   tau(   6) = (   0.6929804   0.3713468   0.1185692  )
         7           Mo  tau(   7) = (   0.6862796   0.7633098   0.2825370  )
         8           S   tau(   8) = (   0.8545980   0.6708292   0.4486168  )
         9           S   tau(   9) = (   0.8545123   0.6666874   0.1146125  )
        10           Mo  tau(  10) = (   0.8629403   1.0471007   0.3006803  )
        11           S   tau(  11) = (   0.6868280   0.9456650   0.4634891  )
        12           S   tau(  12) = (   0.6998113   0.9568511   0.1205389  )
        13           Mo  tau(  13) = (   0.3618216   0.1847309   0.2935964  )
        14           S   tau(  14) = (   0.5260962   0.0863870   0.4600448  )
        15           S   tau(  15) = (   0.5348379   0.0894875   0.1297123  )
        16           Mo  tau(  16) = (   0.5265817   0.4772436   0.2784130  )
        17           S   tau(  17) = (   0.3624753   0.3882513   0.4525556  )
        18           S   tau(  18) = (   0.3635411   0.3752055   0.1119148  )
        19           Mo  tau(  19) = (   0.3652268   0.7630864   0.2781795  )
        20           S   tau(  20) = (   0.5269494   0.6690381   0.1096838  )
        21           Mo  tau(  21) = (   0.5300192   1.0470394   0.2900995  )
        22           S   tau(  22) = (   0.3670346   0.9457522   0.4574073  )
        23           S   tau(  23) = (   0.3604225   0.9585725   0.1159032  )
        24           Mo  tau(  24) = (   0.0313099   0.1847895   0.3013130  )
        25           S   tau(  25) = (   0.1956761   0.0838230   0.4650863  )
        26           S   tau(  26) = (   0.1967693   0.0903508   0.1278874  )
        27           Mo  tau(  27) = (   0.1967578   0.4753919   0.2813011  )
        28           S   tau(  28) = (   0.0287851   0.3864324   0.4586755  )
        29           S   tau(  29) = (   0.0244514   0.3729871   0.1239344  )
        30           Mo  tau(  30) = (   0.0286728   0.7631204   0.2856894  )
        31           S   tau(  31) = (   0.2011512   0.6675435   0.4465001  )
        32           S   tau(  32) = (   0.1969214   0.6672839   0.1104564  )
        33           Mo  tau(  33) = (   0.1950294   1.0511147   0.2932237  )
        34           S   tau(  34) = (   0.0312912   0.9612169   0.4667423  )
        35           S   tau(  35) = (   0.0292670   0.9563028   0.1216485  )
        36           O   tau(  36) = (   0.8888889   0.2568157   0.5407634  )

     number of k points=     1  Gaussian smearing, width (Ry)=  0.0100
                       cart. coord. in units 2pi/alat
        k(    1) = (   0.0000000   0.0000000   0.0000000), wk =   2.0000000

     Dense  grid:  2439793 G-vectors     FFT dimensions: ( 150, 180, 384)

     Smooth grid:   842757 G-vectors     FFT dimensions: ( 108, 120, 270)

     Estimated max dynamical RAM per process >     269.22 MB

     Estimated total dynamical RAM >      12.62 GB

     Initial potential from superposition of free atoms

     starting charge     311.9873, renormalised to     312.0000

     negative rho (up, down):  2.735E-04 0.000E+00


---------------------------------------------------------------------------------
Carrying out rVV10 run using the following parameters:
Nqs =      20    Nr_points =    1024   r_max =   100.000
b_value =  6.30000    beta =  0.00901
     q_mesh =  0.00010000  0.00030000  0.00058939  0.00100810
               0.00161396  0.00249058  0.00375900  0.00559430
               0.00824984  0.01209221  0.01765183  0.02569619
               0.03733578  0.05417739  0.07854596  0.11380545
               0.16482331  0.23864234  0.34545298  0.50000000

Gradients computed in Reciprocal space

---------------------------------------------------------------------------------


     Starting wfcs are  216 randomized atomic wfcs
     Checking if some PAW data can be deallocated... 

     total cpu time spent up to now is        5.4 secs

     Self-consistent Calculation

     iteration #  1     ecut=    80.00 Ry     beta= 0.70
     Davidson diagonalization with overlap
     ethr =  1.00E-02,  avg # of iterations =  2.0

     Threshold (ethr) on eigenvalues was too large:
     Diagonalizing with lowered threshold

     Davidson diagonalization with overlap
     ethr =  4.32E-04,  avg # of iterations =  3.0

     negative rho (up, down):  3.865E-08 0.000E+00

     total cpu time spent up to now is       23.4 secs

     total energy              =   -2246.15390674 Ry
     estimated scf accuracy    <       1.60980644 Ry

     iteration #  2     ecut=    80.00 Ry     beta= 0.70
     Davidson diagonalization with overlap
     ethr =  5.16E-04,  avg # of iterations =  4.0

     total cpu time spent up to now is       28.3 secs

     total energy              =   -2246.14117964 Ry
     estimated scf accuracy    <       0.66544587 Ry

     iteration #  3     ecut=    80.00 Ry     beta= 0.70
     Davidson diagonalization with overlap
     ethr =  2.13E-04,  avg # of iterations =  5.0

     total cpu time spent up to now is       32.4 secs

     total energy              =   -2246.12779080 Ry
     estimated scf accuracy    <       0.21687270 Ry

     iteration #  4     ecut=    80.00 Ry     beta= 0.70
     Davidson diagonalization with overlap
     ethr =  6.95E-05,  avg # of iterations = 18.0

     total cpu time spent up to now is       37.3 secs

     total energy              =   -2246.16880298 Ry
     estimated scf accuracy    <       0.02897598 Ry

     iteration #  5     ecut=    80.00 Ry     beta= 0.70
     Davidson diagonalization with overlap
     ethr =  9.29E-06,  avg # of iterations = 19.0

     total cpu time spent up to now is       42.0 secs

     total energy              =   -2246.16978441 Ry
     estimated scf accuracy    <       0.01719921 Ry

     iteration #  6     ecut=    80.00 Ry     beta= 0.70
     Davidson diagonalization with overlap
     ethr =  5.51E-06,  avg # of iterations =  2.0

     total cpu time spent up to now is       45.8 secs

     total energy              =   -2246.16888212 Ry
     estimated scf accuracy    <       0.01148971 Ry

     iteration #  7     ecut=    80.00 Ry     beta= 0.70
     Davidson diagonalization with overlap
     ethr =  3.68E-06,  avg # of iterations =  2.0

     total cpu time spent up to now is       49.5 secs

     total energy              =   -2246.16805902 Ry
     estimated scf accuracy    <       0.00714735 Ry

     iteration #  8     ecut=    80.00 Ry     beta= 0.70
     Davidson diagonalization with overlap
     ethr =  2.29E-06,  avg # of iterations =  7.0

     negative rho (up, down):  3.429E-03 0.000E+00

     total cpu time spent up to now is       56.0 secs

     total energy              =   -2246.16690549 Ry
     estimated scf accuracy    <       0.00447207 Ry

     iteration #  9     ecut=    80.00 Ry     beta= 0.70
     Davidson diagonalization with overlap
     ethr =  1.43E-06,  avg # of iterations =  2.0

     negative rho (up, down):  2.087E-02 0.000E+00

     total cpu time spent up to now is       62.7 secs

     total energy              =   -2246.16669535 Ry
     estimated scf accuracy    <       0.00234824 Ry

     iteration # 10     ecut=    80.00 Ry     beta= 0.70
     Davidson diagonalization with overlap
     ethr =  7.53E-07,  avg # of iterations =  2.0

     negative rho (up, down):  2.648E-02 0.000E+00

     total cpu time spent up to now is       69.4 secs

     total energy              =   -2246.16668639 Ry
     estimated scf accuracy    <       0.00114827 Ry

     iteration # 11     ecut=    80.00 Ry     beta= 0.70
     Davidson diagonalization with overlap
     ethr =  3.68E-07,  avg # of iterations =  2.0

     negative rho (up, down):  1.666E-02 0.000E+00

     total cpu time spent up to now is       77.1 secs

     total energy              =   -2246.16668231 Ry
     estimated scf accuracy    <       0.00024702 Ry

     iteration # 12     ecut=    80.00 Ry     beta= 0.70
     Davidson diagonalization with overlap
     ethr =  7.92E-08,  avg # of iterations =  6.0

     negative rho (up, down):  6.554E-03 0.000E+00

     total cpu time spent up to now is       85.1 secs

     total energy              =   -2246.16670049 Ry
     estimated scf accuracy    <       0.00004013 Ry

     iteration # 13     ecut=    80.00 Ry     beta= 0.70
     Davidson diagonalization with overlap
     ethr =  1.29E-08,  avg # of iterations =  5.0

     negative rho (up, down):  1.008E-03 0.000E+00

     total cpu time spent up to now is       93.6 secs

     total energy              =   -2246.16673112 Ry
     estimated scf accuracy    <       0.00000989 Ry

     iteration # 14     ecut=    80.00 Ry     beta= 0.70
     Davidson diagonalization with overlap
     ethr =  3.17E-09,  avg # of iterations =  5.0

     negative rho (up, down):  4.246E-04 0.000E+00

     total cpu time spent up to now is      104.7 secs

     total energy              =   -2246.16673159 Ry
     estimated scf accuracy    <       0.00000173 Ry

     iteration # 15     ecut=    80.00 Ry     beta= 0.70
     Davidson diagonalization with overlap
     ethr =  5.56E-10,  avg # of iterations =  4.0

     negative rho (up, down):  2.085E-04 0.000E+00

     total cpu time spent up to now is      108.5 secs

     End of self-consistent calculation

          k = 0.0000 0.0000 0.0000 (105382 PWs)   bands (ev):

   -62.9416 -62.9278 -62.8876 -62.8709 -62.8695 -62.8609 -62.8536 -62.8408
   -62.8315 -62.8306 -62.8046 -62.7641 -37.2807 -37.2201 -37.2014 -37.1866
   -37.1663 -37.1595 -37.1383 -37.1224 -37.1091 -37.0968 -37.0875 -37.0805
   -37.0710 -37.0603 -37.0519 -37.0458 -37.0408 -37.0284 -37.0240 -37.0223
   -37.0106 -37.0018 -36.9948 -36.9774 -36.9702 -36.9579 -36.9467 -36.9402
   -36.9345 -36.9339 -36.9180 -36.8903 -36.8531 -36.8179 -36.7874 -36.7701
   -20.8630 -15.9618 -15.4845 -15.1673 -15.0344 -14.9133 -14.8897 -14.8049
   -14.5320 -14.5052 -14.4678 -14.4336 -14.4013 -14.3341 -14.2950 -14.2619
   -14.1936 -14.1546 -14.0767 -14.0520 -13.9030 -13.8701 -13.8532 -13.6688
    -8.3672  -7.7583  -7.6200  -7.5707  -7.3288  -7.3154  -7.2635  -7.2333
    -7.1591  -7.0295  -6.8981  -6.8494  -6.7889  -6.7317  -6.6751  -6.5578
    -6.5100  -6.4987  -6.4019  -6.2866  -6.1020  -6.0747  -5.9844  -5.9345
    -5.8810  -5.8776  -5.7788  -5.7543  -5.7164  -5.6808  -5.6446  -5.5933
    -5.5540  -5.4906  -5.4246  -5.4009  -5.2502  -5.1934  -5.1045  -5.0707
    -5.0376  -5.0178  -4.8785  -4.7485  -4.5762  -4.5411  -4.4047  -4.3558
    -4.3470  -4.2926  -4.1882  -4.0872  -4.0530  -3.9565  -3.9177  -3.8209
    -3.7842  -3.7554  -3.7001  -3.6583  -3.5772  -3.5612  -3.5022  -3.4896
    -3.4621  -3.4222  -3.2626  -3.1881  -3.0628  -2.9694  -2.8850  -2.8551
    -2.7912  -2.7844  -2.7606  -2.7194  -2.6797  -2.6154  -2.4207  -2.1204
    -2.0375  -2.0197  -1.9829  -1.5768  -1.3071  -0.8313  -0.7522  -0.2323
    -0.1623  -0.1311  -0.0977  -0.0099   0.1095   0.1813   0.2090   0.2305
     0.2686   0.3180   0.3817   0.4259   0.4936   0.5443   0.5849   0.5902
     0.6381   0.7001   0.7173   0.7440   0.7838   0.8565   0.8767   0.9182
     0.9664   0.9995   1.2455

     the Fermi energy is    -1.4420 ev

!    total energy              =   -2246.16673392 Ry
     estimated scf accuracy    <       0.00000065 Ry
     smearing contrib. (-TS)   =      -0.00422461 Ry
     internal energy E=F+TS    =   -2246.16250931 Ry

     The total energy is F=E-TS. E is the sum of the following terms:
     one-electron contribution =  -18499.26054526 Ry
     hartree contribution      =    9238.13218204 Ry
     xc contribution           =    -392.06617026 Ry
     ewald contribution        =    7416.90246554 Ry
     one-center paw contrib.   =      -9.87044137 Ry

     convergence has been achieved in  15 iterations

     negative rho (up, down):  2.085E-04 0.000E+00

     Forces acting on atoms (cartesian axes, Ry/au):

     atom    1 type  1   force =    -0.00149275   -0.03199686   -0.01406310
     atom    2 type  2   force =    -0.02295694    0.08244568    0.02544002
     atom    3 type  2   force =    -0.01234294    0.00832539   -0.00366682
     atom    4 type  1   force =     0.00442614    0.00362324   -0.00523457
     atom    5 type  2   force =    -0.02476058    0.00908210   -0.02400187
     atom    6 type  2   force =     0.00083847    0.01111563    0.00159888
     atom    7 type  1   force =     0.00488620   -0.01832647   -0.00566606
     atom    8 type  2   force =     0.00064984   -0.00221393    0.01960783
     atom    9 type  2   force =     0.01289319    0.01177803    0.00971014
     atom   10 type  1   force =    -0.00769779   -0.02160048   -0.03761104
     atom   11 type  2   force =     0.00459790   -0.00300947   -0.00812564
     atom   12 type  2   force =     0.00003152    0.00168380    0.00461568
     atom   13 type  1   force =     0.00306947    0.00088508   -0.00179315
     atom   14 type  2   force =     0.00871698   -0.00070330    0.01284158
     atom   15 type  2   force =    -0.01213087    0.00487321   -0.00932102
     atom   16 type  1   force =    -0.00014655    0.01940263   -0.00062187
     atom   17 type  2   force =     0.00567078   -0.00038627    0.00149059
     atom   18 type  2   force =    -0.00155962   -0.00861345    0.01157632
     atom   19 type  1   force =     0.00229891   -0.01009514   -0.00649832
     atom   20 type  2   force =     0.00524725   -0.00323113   -0.00038645
     atom   21 type  1   force =    -0.00154342    0.00860418   -0.00019663
     atom   22 type  2   force =    -0.00199237   -0.00191792   -0.00090558
     atom   23 type  2   force =    -0.00145791    0.00092430    0.00945803
     atom   24 type  1   force =     0.03084790   -0.02087324   -0.07140095
     atom   25 type  2   force =     0.01364669    0.02011207    0.01129449
     atom   26 type  2   force =    -0.01657515    0.00270198   -0.00117477
     atom   27 type  1   force =     0.00671975    0.02948802   -0.01468225
     atom   28 type  2   force =    -0.00160943    0.00026302   -0.01160964
     atom   29 type  2   force =     0.00321025    0.00064230   -0.00129910
     atom   30 type  1   force =    -0.00507626    0.00296117   -0.00234505
     atom   31 type  2   force =     0.00046885   -0.00117496    0.01714872
     atom   32 type  2   force =    -0.00980712    0.00608127    0.00750482
     atom   33 type  1   force =     0.00987081   -0.00368112   -0.01142300
     atom   34 type  2   force =     0.00416640   -0.04562353   -0.01031016
     atom   35 type  2   force =    -0.00746226    0.00587696    0.01137328
     atom   36 type  3   force =     0.00635468   -0.05742280    0.09867666
     The non-local contrib.  to forces
     atom    1 type  1   force =    -0.00063922    0.02818449   -0.00687241
     atom    2 type  2   force =     0.04900616    0.38041814   -0.03652043
     atom    3 type  2   force =    -0.01736924   -0.00266141    0.26807579
     atom    4 type  1   force =     0.01136230    0.00291797    0.01242228
     atom    5 type  2   force =    -0.00269534   -0.00510476   -0.24674465
     atom    6 type  2   force =    -0.00158214    0.01290534    0.25839485
     atom    7 type  1   force =    -0.03074122   -0.00680316   -0.02119665
     atom    8 type  2   force =     0.00335979   -0.01029005   -0.25268538
     atom    9 type  2   force =     0.00793540   -0.00571263    0.27708348
     atom   10 type  1   force =    -0.00768994    0.01498684   -0.03087400
     atom   11 type  2   force =     0.00972569    0.00360910   -0.25435917
     atom   12 type  2   force =    -0.00547042   -0.02035208    0.26844825
     atom   13 type  1   force =    -0.00134031    0.02306370   -0.00631655
     atom   14 type  2   force =     0.01366175   -0.00884930   -0.26301515
     atom   15 type  2   force =    -0.01087606   -0.00173868    0.26343664
     atom   16 type  1   force =     0.00266413    0.01654305   -0.03921504
     atom   17 type  2   force =     0.00932675   -0.02781993   -0.24928509
     atom   18 type  2   force =    -0.00231861   -0.01003058    0.27083115
     atom   19 type  1   force =     0.01172191   -0.00767724   -0.01787448
     atom   20 type  2   force =     0.00137227   -0.01825796    0.26547473
     atom   21 type  1   force =    -0.00089181    0.02630512    0.00754839
     atom   22 type  2   force =    -0.00797517    0.00531714   -0.25942864
     atom   23 type  2   force =     0.00665150   -0.01296530    0.26826685
     atom   24 type  1   force =     0.00434324    0.02110213   -0.00502372
     atom   25 type  2   force =     0.00448231    0.01098843   -0.26152627
     atom   26 type  2   force =    -0.00893798   -0.00814583    0.26784297
     atom   27 type  1   force =    -0.00941085   -0.00840206    0.01615081
     atom   28 type  2   force =    -0.17716228   -0.12579848   -0.16782859
     atom   29 type  2   force =     0.00389783    0.00574823    0.25928057
     atom   30 type  1   force =     0.00960458    0.01257624    0.00292854
     atom   31 type  2   force =    -0.01191796   -0.00089573   -0.25299313
     atom   32 type  2   force =    -0.00553581   -0.00222417    0.27347579
     atom   33 type  1   force =    -0.00546821    0.01070313    0.00819709
     atom   34 type  2   force =     0.00074975   -0.04436579   -0.26422784
     atom   35 type  2   force =    -0.00416795   -0.01109494    0.27496002
     atom   36 type  3   force =     0.16000952   -0.76910853   -0.47205643
     The ionic contribution  to forces
     atom    1 type  1   force =    -2.36689442   -0.81986949    1.48585045
     atom    2 type  2   force =    -1.47301675   -5.36882984   36.79997885
     atom    3 type  2   force =    -0.20796603   -0.35421447  -37.27829744
     atom    4 type  1   force =    -0.30300272    3.31076654   -3.05292725
     atom    5 type  2   force =    -3.43827399    3.25291168   37.64115218
     atom    6 type  2   force =     0.08014668   -0.31004638  -39.03775708
     atom    7 type  1   force =    -2.94150668   -2.38741330    1.51285101
     atom    8 type  2   force =    -1.06764193    0.89753185   37.07303339
     atom    9 type  2   force =     0.31881557    0.19048055  -38.65296420
     atom   10 type  1   force =    -1.22640520   -2.01805517    3.89571527
     atom   11 type  2   force =    -0.80569035   -2.01004978   38.96585508
     atom   12 type  2   force =     0.35811523    0.54771036  -38.41471789
     atom   13 type  1   force =     0.72393182    0.68942483    1.38103160
     atom   14 type  2   force =    -0.70202746   -0.54691059   38.19950833
     atom   15 type  2   force =    -0.02408021   -0.23225487  -37.52212616
     atom   16 type  1   force =    -0.79442701    4.76807633   -1.03235733
     atom   17 type  2   force =     0.96527473    1.79867215   37.66417973
     atom   18 type  2   force =    -0.12703955   -0.54782080  -39.22391160
     atom   19 type  1   force =     2.76505217   -2.22471085   -0.21428367
     atom   20 type  2   force =     0.15763471   -0.06694613  -38.99742802
     atom   21 type  1   force =    -0.39788907   -0.65987464    0.06939936
     atom   22 type  2   force =     0.48755147   -1.90771796   38.29773496
     atom   23 type  2   force =    -0.07154100    0.57535330  -38.76781259
     atom   24 type  1   force =     2.28316045   -0.37206435    0.35190232
     atom   25 type  2   force =     1.79222118   -0.50115673   38.86754744
     atom   26 type  2   force =    -0.06781514   -0.12427300  -38.10762559
     atom   27 type  1   force =     1.08011643    1.43284053   -4.01276476
     atom   28 type  2   force =     3.43125370    4.19994025   36.11776639
     atom   29 type  2   force =    -0.03129991   -0.19611071  -38.40763639
     atom   30 type  1   force =    -0.07036998   -0.45016542   -1.14104201
     atom   31 type  2   force =     1.50453952    0.36158562   37.12218033
     atom   32 type  2   force =    -0.39086986    0.14014611  -39.17603686
     atom   33 type  1   force =     1.36515893   -1.71243291    0.86871547
     atom   34 type  2   force =     0.46547552   -1.99172336   39.16234151
     atom   35 type  2   force =    -0.22920098    0.32093494  -38.39313634
     atom   36 type  3   force =    -1.04148990    2.31626567   45.95608149
     The local contribution  to forces
     atom    1 type  1   force =     2.36605702    0.75987989   -1.49374204
     atom    2 type  2   force =     1.40406269    5.09256180  -36.74609373
     atom    3 type  2   force =     0.21214413    0.36510540   37.02703779
     atom    4 type  1   force =     0.29600992   -3.31013959    3.03437404
     atom    5 type  2   force =     3.41571314   -3.23876601  -37.43914167
     atom    6 type  2   force =    -0.07804231    0.30948976   38.80129430
     atom    7 type  1   force =     2.97744266    2.37581871   -1.49839779
     atom    8 type  2   force =     1.06508398   -0.89029764  -36.82140569
     atom    9 type  2   force =    -0.31368147   -0.17333423   38.40619420
     atom   10 type  1   force =     1.22635793    1.98161850   -3.90312990
     atom   11 type  2   force =     0.80120698    2.00407397  -38.74034090
     atom   12 type  2   force =    -0.35338312   -0.52720326   38.17159656
     atom   13 type  1   force =    -0.71945581   -0.71139916   -1.37726923
     atom   14 type  2   force =     0.69793077    0.55509535  -37.94456925
     atom   15 type  2   force =     0.02224276    0.23870496   37.26967708
     atom   16 type  1   force =     0.79178122   -4.76547597    1.06996443
     atom   17 type  2   force =    -0.96862328   -1.77278329  -37.43396685
     atom   18 type  2   force =     0.12790325    0.54941681   38.98516661
     atom   19 type  1   force =    -2.77457972    2.22212546    0.22455854
     atom   20 type  2   force =    -0.15377706    0.08122666   38.75220918
     atom   21 type  1   force =     0.39743644    0.64237614   -0.07809156
     atom   22 type  2   force =    -0.48178158    1.90106895  -38.06010033
     atom   23 type  2   force =     0.06397837   -0.56266016   38.52942644
     atom   24 type  1   force =    -2.25676541    0.33015730   -0.41887783
     atom   25 type  2   force =    -1.78336742    0.51103075  -38.61572453
     atom   26 type  2   force =     0.06003750    0.13468220   37.85929805
     atom   27 type  1   force =    -1.06408323   -1.39503704    3.98099565
     atom   28 type  2   force =    -3.26487610   -4.08095886  -35.97710636
     atom   29 type  2   force =     0.03101659    0.19189681   38.16706226
     atom   30 type  1   force =     0.05550649    0.44041978    1.13477886
     atom   31 type  2   force =    -1.49289983   -0.36210779  -36.87286129
     atom   32 type  2   force =     0.38655672   -0.13208298   38.93063175
     atom   33 type  1   force =    -1.34998846    1.69815368   -0.88918670
     atom   34 type  2   force =    -0.46259443    1.98915242  -38.92946578
     atom   35 type  2   force =     0.22583654   -0.30494884   38.15043581
     atom   36 type  3   force =     0.88938243   -1.61337298  -45.38987395
     The core correction contribution to forces
     atom    1 type  1   force =     0.00000000    0.00000000    0.00000000
     atom    2 type  2   force =    -0.00302077   -0.02178081    0.00791209
     atom    3 type  2   force =     0.00080639    0.00010120   -0.02079923
     atom    4 type  1   force =     0.00000000    0.00000000    0.00000000
     atom    5 type  2   force =     0.00052201   -0.00001531    0.02043396
     atom    6 type  2   force =     0.00028744   -0.00118038   -0.02065624
     atom    7 type  1   force =     0.00000000    0.00000000    0.00000000
     atom    8 type  2   force =    -0.00012134    0.00074405    0.02035183
     atom    9 type  2   force =    -0.00018129    0.00030091   -0.02101559
     atom   10 type  1   force =     0.00000000    0.00000000    0.00000000
     atom   11 type  2   force =    -0.00053056   -0.00053564    0.02041012
     atom   12 type  2   force =     0.00081462    0.00150691   -0.02110427
     atom   13 type  1   force =     0.00000000    0.00000000    0.00000000
     atom   14 type  2   force =    -0.00074754    0.00005528    0.02064529
     atom   15 type  2   force =     0.00061958    0.00020599   -0.02067506
     atom   16 type  1   force =     0.00000000    0.00000000    0.00000000
     atom   17 type  2   force =    -0.00028822    0.00148954    0.02023908
     atom   18 type  2   force =    -0.00004715   -0.00012657   -0.02087435
     atom   19 type  1   force =     0.00000000    0.00000000    0.00000000
     atom   20 type  2   force =     0.00004190    0.00065701   -0.02115235
     atom   21 type  1   force =     0.00000000    0.00000000    0.00000000
     atom   22 type  2   force =     0.00019446   -0.00054061    0.02059206
     atom   23 type  2   force =    -0.00053373    0.00116275   -0.02089848
     atom   24 type  1   force =     0.00000000    0.00000000    0.00000000
     atom   25 type  2   force =     0.00021237   -0.00067072    0.02073606
     atom   26 type  2   force =     0.00014079    0.00047809   -0.02106235
     atom   27 type  1   force =     0.00000000    0.00000000    0.00000000
     atom   28 type  2   force =     0.00914790    0.00708599    0.01539081
     atom   29 type  2   force =    -0.00044053   -0.00081170   -0.02037264
     atom   30 type  1   force =     0.00000000    0.00000000    0.00000000
     atom   31 type  2   force =     0.00068141    0.00013778    0.02049783
     atom   32 type  2   force =     0.00002659    0.00019528   -0.02099755
     atom   33 type  1   force =     0.00000000    0.00000000    0.00000000
     atom   34 type  2   force =     0.00042365    0.00141353    0.02073636
     atom   35 type  2   force =     0.00001354    0.00094945   -0.02126070
     atom   36 type  3   force =    -0.00158286    0.00869271    0.00431170
     The Hubbard contrib.    to forces
     atom    1 type  1   force =     0.00000000    0.00000000    0.00000000
     atom    2 type  2   force =     0.00000000    0.00000000    0.00000000
     atom    3 type  2   force =     0.00000000    0.00000000    0.00000000
     atom    4 type  1   force =     0.00000000    0.00000000    0.00000000
     atom    5 type  2   force =     0.00000000    0.00000000    0.00000000
     atom    6 type  2   force =     0.00000000    0.00000000    0.00000000
     atom    7 type  1   force =     0.00000000    0.00000000    0.00000000
     atom    8 type  2   force =     0.00000000    0.00000000    0.00000000
     atom    9 type  2   force =     0.00000000    0.00000000    0.00000000
     atom   10 type  1   force =     0.00000000    0.00000000    0.00000000
     atom   11 type  2   force =     0.00000000    0.00000000    0.00000000
     atom   12 type  2   force =     0.00000000    0.00000000    0.00000000
     atom   13 type  1   force =     0.00000000    0.00000000    0.00000000
     atom   14 type  2   force =     0.00000000    0.00000000    0.00000000
     atom   15 type  2   force =     0.00000000    0.00000000    0.00000000
     atom   16 type  1   force =     0.00000000    0.00000000    0.00000000
     atom   17 type  2   force =     0.00000000    0.00000000    0.00000000
     atom   18 type  2   force =     0.00000000    0.00000000    0.00000000
     atom   19 type  1   force =     0.00000000    0.00000000    0.00000000
     atom   20 type  2   force =     0.00000000    0.00000000    0.00000000
     atom   21 type  1   force =     0.00000000    0.00000000    0.00000000
     atom   22 type  2   force =     0.00000000    0.00000000    0.00000000
     atom   23 type  2   force =     0.00000000    0.00000000    0.00000000
     atom   24 type  1   force =     0.00000000    0.00000000    0.00000000
     atom   25 type  2   force =     0.00000000    0.00000000    0.00000000
     atom   26 type  2   force =     0.00000000    0.00000000    0.00000000
     atom   27 type  1   force =     0.00000000    0.00000000    0.00000000
     atom   28 type  2   force =     0.00000000    0.00000000    0.00000000
     atom   29 type  2   force =     0.00000000    0.00000000    0.00000000
     atom   30 type  1   force =     0.00000000    0.00000000    0.00000000
     atom   31 type  2   force =     0.00000000    0.00000000    0.00000000
     atom   32 type  2   force =     0.00000000    0.00000000    0.00000000
     atom   33 type  1   force =     0.00000000    0.00000000    0.00000000
     atom   34 type  2   force =     0.00000000    0.00000000    0.00000000
     atom   35 type  2   force =     0.00000000    0.00000000    0.00000000
     atom   36 type  3   force =     0.00000000    0.00000000    0.00000000
     The SCF correction term to forces
     atom    1 type  1   force =    -0.00001702   -0.00019191    0.00068571
     atom    2 type  2   force =     0.00001083    0.00007624    0.00014807
     atom    3 type  2   force =     0.00004091   -0.00000549    0.00030109
     atom    4 type  1   force =     0.00005576    0.00007816    0.00088117
     atom    5 type  2   force =    -0.00002729    0.00005634    0.00028314
     atom    6 type  2   force =     0.00002791   -0.00005286    0.00030786
     atom    7 type  1   force =    -0.00030945    0.00007113    0.00106218
     atom    8 type  2   force =    -0.00003156    0.00009770    0.00029850
     atom    9 type  2   force =     0.00000407    0.00004327    0.00039706
     atom   10 type  1   force =     0.00003852   -0.00015081    0.00066241
     atom   11 type  2   force =    -0.00011476   -0.00010727    0.00029405
     atom   12 type  2   force =    -0.00004568    0.00002172    0.00037785
     atom   13 type  1   force =    -0.00006711   -0.00020445    0.00074585
     atom   14 type  2   force =    -0.00010143   -0.00009420    0.00025718
     atom   15 type  2   force =    -0.00003784   -0.00004435    0.00035129
     atom   16 type  1   force =    -0.00016578    0.00025906    0.00097088
     atom   17 type  2   force =    -0.00002009    0.00005511    0.00030854
     atom   18 type  2   force =    -0.00005844   -0.00005247    0.00034932
     atom   19 type  1   force =     0.00010366    0.00016734    0.00108611
     atom   20 type  2   force =    -0.00002547    0.00008914    0.00049482
     atom   21 type  1   force =    -0.00019987   -0.00020260    0.00093200
     atom   22 type  2   force =     0.00001756   -0.00004560    0.00028118
     atom   23 type  2   force =    -0.00001394    0.00003356    0.00046063
     atom   24 type  1   force =     0.00010873   -0.00006848    0.00058309
     atom   25 type  2   force =     0.00009736   -0.00007981    0.00024660
     atom   26 type  2   force =    -0.00000121   -0.00003963    0.00035696
     atom   27 type  1   force =     0.00009651    0.00008642    0.00092086
     atom   28 type  2   force =     0.00002646   -0.00000604    0.00015292
     atom   29 type  2   force =     0.00003538   -0.00008049    0.00035192
     atom   30 type  1   force =     0.00018176    0.00013042    0.00097438
     atom   31 type  2   force =     0.00006482    0.00010500    0.00030980
     atom   32 type  2   force =     0.00001435    0.00004687    0.00041651
     atom   33 type  1   force =     0.00016766   -0.00010517    0.00083597
     atom   34 type  2   force =     0.00011101   -0.00010049    0.00029041
     atom   35 type  2   force =     0.00005569    0.00003620    0.00035931
     atom   36 type  3   force =     0.00003460    0.00010017    0.00019866

     Total force =     0.201652     Total SCF correction =     0.003535

     BFGS Geometry Optimization
     Energy error            =      0.0E+00 Ry
     Gradient error          =      9.9E-02 Ry/Bohr

     number of scf cycles    =   1
     number of bfgs steps    =   0

     energy             new  =   -2246.1667339194 Ry

     new trust radius        =       0.1143452842 bohr
     new conv_thr            =       0.0000010000 Ry


ATOMIC_POSITIONS (angstrom)
Mo            6.5737584800        1.7708742225        2.8162011583
S             8.1645610476        0.8533324020        4.4480006315
S             8.1867014809        0.8156473503        1.2759430267
Mo            8.0975047774        4.4969742807        2.7150483779
S             6.4868065209        3.7272175304        4.3339594048
S             6.5537934958        3.5176196959        1.1221263182
Mo            6.4925673625        7.2087393314        2.6688861369
S             8.0820716101        6.3426994296        4.2528375809
S             8.0877404295        6.3109349831        1.0890013818
Mo            8.1565455518        9.8907499289        2.8235588564
S             6.4976007000        8.9413342734        4.3788056320
S             6.6179638769        9.0496022436        1.1423498152
Mo            3.4232839574        1.7474242152        2.7755222677
S             4.9797783199        0.8165690393        4.3573285627
S             5.0514143730        0.8488409000        1.2217259898
Mo            4.9796791294        4.5234454335        2.6325554690
S             3.4308425098        3.6713952825        4.2804983678
S             3.4370952678        3.5436706567        1.0644776043
Mo            3.4550782698        7.2109824212        2.6272381014
S             4.9860109161        6.3252224472        1.0370492294
Mo            5.0114471784        9.9061531849        2.7432969071
S             3.4699038003        8.9427363491        4.3251120979
S             3.4076576722        9.0654791046        1.1010732736
Mo            0.3124144938        1.7364638866        2.8116609532
S             1.8576837315        0.8033368552        4.4041862240
S             1.8520288408        0.8558557423        1.2087791951
Mo            1.8642472469        4.5112711471        2.6524278655
S             0.2713621752        3.6545380091        4.3314405401
S             0.2329299976        3.5275891147        1.1713304298
Mo            0.2684659096        7.2182130804        2.7004554833
S             1.9024863512        6.3121770747        4.2315188309
S             1.8570485122        6.3135618792        1.0485306654
Mo            1.8495700713        9.9381911912        2.7669014625
S             0.2981176613        9.0658548934        4.4084135664
S             0.2728225417        9.0466356690        1.1564192620
O             8.4093716400        2.3982576059        5.1660869071



     Writing config-only to output data dir ./MoS2-V-O.save/
     NEW-OLD atomic charge density approx. for the potential

     negative rho (up, down):  1.470E-04 0.000E+00

     total cpu time spent up to now is      115.9 secs

     Self-consistent Calculation

     iteration #  1     ecut=    80.00 Ry     beta= 0.70
     Davidson diagonalization with overlap
     ethr =  1.00E-06,  avg # of iterations = 12.0

     negative rho (up, down):  2.806E-04 0.000E+00

     total cpu time spent up to now is      129.8 secs

     total energy              =   -2246.20130086 Ry
     estimated scf accuracy    <       0.01330598 Ry

     iteration #  2     ecut=    80.00 Ry     beta= 0.70
     Davidson diagonalization with overlap
     ethr =  4.26E-06,  avg # of iterations =  6.0

     negative rho (up, down):  4.065E-04 0.000E+00

     total cpu time spent up to now is      142.3 secs

     total energy              =   -2246.20301308 Ry
     estimated scf accuracy    <       0.00500459 Ry

     iteration #  3     ecut=    80.00 Ry     beta= 0.70
     Davidson diagonalization with overlap
     ethr =  1.60E-06,  avg # of iterations =  5.0

     negative rho (up, down):  5.987E-04 0.000E+00

     total cpu time spent up to now is      156.5 secs

     total energy              =   -2246.20345309 Ry
     estimated scf accuracy    <       0.00033659 Ry

     iteration #  4     ecut=    80.00 Ry     beta= 0.70
     Davidson diagonalization with overlap
     ethr =  1.08E-07,  avg # of iterations =  5.0

     negative rho (up, down):  6.115E-04 0.000E+00

     total cpu time spent up to now is      172.6 secs

     total energy              =   -2246.20350662 Ry
     estimated scf accuracy    <       0.00004517 Ry

     iteration #  5     ecut=    80.00 Ry     beta= 0.70
     Davidson diagonalization with overlap
     ethr =  1.45E-08,  avg # of iterations =  5.0

     negative rho (up, down):  6.082E-04 0.000E+00

     total cpu time spent up to now is      186.5 secs

     total energy              =   -2246.20351284 Ry
     estimated scf accuracy    <       0.00001166 Ry

     iteration #  6     ecut=    80.00 Ry     beta= 0.70
     Davidson diagonalization with overlap
     ethr =  3.74E-09,  avg # of iterations =  5.0

     negative rho (up, down):  5.758E-04 0.000E+00

     total cpu time spent up to now is      197.3 secs

     total energy              =   -2246.20351473 Ry
     estimated scf accuracy    <       0.00000238 Ry

     iteration #  7     ecut=    80.00 Ry     beta= 0.70
     Davidson diagonalization with overlap
     ethr =  7.63E-10,  avg # of iterations =  5.0

     negative rho (up, down):  2.108E-04 0.000E+00

     total cpu time spent up to now is      201.2 secs

     End of self-consistent calculation

          k = 0.0000 0.0000 0.0000 (105382 PWs)   bands (ev):

   -62.9812 -62.9509 -62.8907 -62.8792 -62.8739 -62.8667 -62.8468 -62.8390
   -62.8346 -62.8280 -62.7829 -62.7729 -37.2920 -37.2458 -37.2305 -37.1987
   -37.1729 -37.1640 -37.1469 -37.1348 -37.1231 -37.1034 -37.0887 -37.0790
   -37.0736 -37.0640 -37.0539 -37.0476 -37.0423 -37.0301 -37.0266 -37.0149
   -37.0113 -37.0055 -36.9978 -36.9795 -36.9695 -36.9642 -36.9526 -36.9453
   -36.9401 -36.9348 -36.9282 -36.8859 -36.8440 -36.8195 -36.7929 -36.7826
   -20.9727 -15.9724 -15.4006 -15.1828 -15.0330 -14.9175 -14.8526 -14.8091
   -14.5390 -14.5107 -14.4763 -14.4260 -14.4162 -14.3543 -14.3016 -14.2750
   -14.1829 -14.1673 -14.0857 -14.0505 -13.9255 -13.8800 -13.8568 -13.6229
    -8.3170  -7.7419  -7.5910  -7.5736  -7.3438  -7.3293  -7.2770  -7.2458
    -7.1740  -7.0169  -6.9015  -6.8588  -6.7933  -6.7315  -6.6871  -6.5686
    -6.5167  -6.5100  -6.4156  -6.2949  -6.0668  -6.0602  -5.9898  -5.9293
    -5.8917  -5.8737  -5.7785  -5.7527  -5.7319  -5.6975  -5.6555  -5.5784
    -5.5676  -5.4853  -5.4108  -5.3915  -5.2564  -5.1824  -5.1114  -5.0760
    -5.0400  -5.0223  -4.8932  -4.7589  -4.5932  -4.5663  -4.3997  -4.3729
    -4.3448  -4.2879  -4.2204  -4.1150  -4.0678  -3.9535  -3.9195  -3.8114
    -3.7803  -3.7546  -3.7069  -3.6721  -3.5974  -3.5660  -3.5090  -3.4941
    -3.4819  -3.4294  -3.2594  -3.1934  -3.0782  -2.9738  -2.8743  -2.8593
    -2.7973  -2.7868  -2.7711  -2.7226  -2.7021  -2.6167  -2.4184  -2.1663
    -2.0629  -2.0395  -2.0226  -1.6016  -1.2510  -0.8235  -0.7656  -0.2235
    -0.1725  -0.1468  -0.0908  -0.0013   0.1079   0.1823   0.2059   0.2385
     0.2780   0.3406   0.3660   0.4358   0.4996   0.5313   0.5571   0.5997
     0.6453   0.6985   0.7119   0.7310   0.8096   0.8529   0.8755   0.9201
     0.9525   0.9676   1.2716

     the Fermi energy is    -1.4263 ev

!    total energy              =   -2246.20351493 Ry
     estimated scf accuracy    <       0.00000083 Ry
     smearing contrib. (-TS)   =      -0.00214593 Ry
     internal energy E=F+TS    =   -2246.20136900 Ry

     The total energy is F=E-TS. E is the sum of the following terms:
     one-electron contribution =  -18490.94825812 Ry
     hartree contribution      =    9233.87038048 Ry
     xc contribution           =    -392.07326136 Ry
     ewald contribution        =    7412.81787053 Ry
     one-center paw contrib.   =      -9.86810054 Ry

     convergence has been achieved in   7 iterations

     negative rho (up, down):  2.108E-04 0.000E+00

     Forces acting on atoms (cartesian axes, Ry/au):

     atom    1 type  1   force =    -0.00423627   -0.01531764   -0.01109394
     atom    2 type  2   force =    -0.01089492    0.08941490    0.01044562
     atom    3 type  2   force =    -0.01138640    0.00201796   -0.01104551
     atom    4 type  1   force =     0.00274110    0.00044925    0.00006272
     atom    5 type  2   force =    -0.01484490    0.00416760   -0.02022659
     atom    6 type  2   force =     0.00038804    0.00818300    0.00103398
     atom    7 type  1   force =     0.00282946   -0.01113366   -0.00038471
     atom    8 type  2   force =     0.00091973   -0.00410057    0.01426205
     atom    9 type  2   force =     0.01122706    0.00932396    0.00497804
     atom   10 type  1   force =     0.00009317   -0.00718292   -0.00982355
     atom   11 type  2   force =     0.00450276   -0.00358393   -0.01067219
     atom   12 type  2   force =    -0.00172307   -0.00152173   -0.00039807
     atom   13 type  1   force =     0.00285181   -0.00143613   -0.00071427
     atom   14 type  2   force =     0.00690766   -0.00117698    0.00867095
     atom   15 type  2   force =    -0.01241606    0.00196527   -0.01076778
     atom   16 type  1   force =    -0.00152163    0.01209046   -0.00103822
     atom   17 type  2   force =     0.00276455    0.00278867   -0.00096636
     atom   18 type  2   force =    -0.00000399   -0.00521225    0.00796714
     atom   19 type  1   force =     0.00188421   -0.00710214   -0.00057731
     atom   20 type  2   force =     0.00439644   -0.00219194   -0.00481303
     atom   21 type  1   force =     0.00029551    0.00562997    0.00285559
     atom   22 type  2   force =    -0.00101401   -0.00226031   -0.00294250
     atom   23 type  2   force =     0.00006077    0.00015178    0.00529544
     atom   24 type  1   force =     0.01181668   -0.00988967   -0.03394801
     atom   25 type  2   force =     0.00886438    0.01408184    0.00246981
     atom   26 type  2   force =    -0.00262703   -0.00186995   -0.01087350
     atom   27 type  1   force =     0.00222490    0.01444623   -0.00220212
     atom   28 type  2   force =     0.00418994   -0.00345265   -0.02404723
     atom   29 type  2   force =     0.00412825    0.00453043   -0.00718839
     atom   30 type  1   force =    -0.00142075    0.00024790    0.00429676
     atom   31 type  2   force =     0.00070841   -0.00035819    0.01208039
     atom   32 type  2   force =    -0.00826645    0.00907842    0.00205104
     atom   33 type  1   force =     0.00320590    0.00074460    0.00042816
     atom   34 type  2   force =     0.00083666   -0.03432286   -0.01526785
     atom   35 type  2   force =    -0.00577996    0.00376415    0.00322783
     atom   36 type  3   force =    -0.00170193   -0.07096285    0.09886563
     The non-local contrib.  to forces
     atom    1 type  1   force =     0.00295577    0.02144348   -0.00484826
     atom    2 type  2   force =     0.07505537    0.39477091   -0.00368541
     atom    3 type  2   force =    -0.01361955   -0.00927557    0.26523802
     atom    4 type  1   force =     0.01219487    0.00474384    0.01182176
     atom    5 type  2   force =    -0.00114156   -0.00611009   -0.24859877
     atom    6 type  2   force =    -0.00241346    0.00939641    0.26035199
     atom    7 type  1   force =    -0.02989390   -0.00835666   -0.02267163
     atom    8 type  2   force =     0.00369795   -0.00955166   -0.25643673
     atom    9 type  2   force =     0.00567754   -0.00777468    0.27430112
     atom   10 type  1   force =    -0.00788337    0.00403030   -0.04078654
     atom   11 type  2   force =     0.00840049    0.00274834   -0.25589037
     atom   12 type  2   force =    -0.00661989   -0.02274470    0.26682738
     atom   13 type  1   force =    -0.00149581    0.02508064   -0.00683401
     atom   14 type  2   force =     0.01128049   -0.00935485   -0.26510522
     atom   15 type  2   force =    -0.00997229   -0.00516102    0.26130836
     atom   16 type  1   force =     0.00133784    0.01977187   -0.04075427
     atom   17 type  2   force =     0.00751342   -0.02557265   -0.25250354
     atom   18 type  2   force =    -0.00083468   -0.00786178    0.26985231
     atom   19 type  1   force =     0.01142878   -0.00841430   -0.02041460
     atom   20 type  2   force =     0.00049828   -0.01629468    0.26208373
     atom   21 type  1   force =    -0.00187811    0.02746469    0.00556778
     atom   22 type  2   force =    -0.00607822    0.00512588   -0.26140803
     atom   23 type  2   force =     0.00766751   -0.01410616    0.26671620
     atom   24 type  1   force =     0.00562766    0.01959010    0.00259635
     atom   25 type  2   force =     0.00401248    0.00530084   -0.26673730
     atom   26 type  2   force =     0.00107624   -0.01225778    0.26037242
     atom   27 type  1   force =    -0.01149298   -0.00656308    0.01561392
     atom   28 type  2   force =    -0.14881776   -0.11139455   -0.18671519
     atom   29 type  2   force =     0.00574497    0.00468456    0.25939480
     atom   30 type  1   force =     0.00895416    0.01081667    0.00077574
     atom   31 type  2   force =    -0.01174681    0.00181801   -0.25601407
     atom   32 type  2   force =    -0.00361703    0.00087029    0.26877105
     atom   33 type  1   force =    -0.00475028    0.01040115    0.00585700
     atom   34 type  2   force =    -0.00149732   -0.03535209   -0.26790237
     atom   35 type  2   force =    -0.00410337   -0.01186465    0.27166290
     atom   36 type  3   force =     0.04466874   -0.98934928   -0.58489091
     The ionic contribution  to forces
     atom    1 type  1   force =    -2.09368583   -0.45569311    1.37842832
     atom    2 type  2   force =    -1.31795099   -5.77028324   36.40080198
     atom    3 type  2   force =    -0.26382953   -0.33471479  -37.21912653
     atom    4 type  1   force =    -0.25283575    2.82082136   -2.79624523
     atom    5 type  2   force =    -3.18814204    3.05343238   37.44657732
     atom    6 type  2   force =     0.07772257   -0.36836727  -38.88615764
     atom    7 type  1   force =    -3.01943157   -2.18093712    1.57634953
     atom    8 type  2   force =    -1.06295890    0.83218478   37.25600605
     atom    9 type  2   force =     0.30686894    0.12775195  -38.64204207
     atom   10 type  1   force =    -1.02027350   -1.43996055    3.68497387
     atom   11 type  2   force =    -0.75705503   -1.94451296   38.92736100
     atom   12 type  2   force =     0.21604784    0.49540392  -38.39437009
     atom   13 type  1   force =     0.75119291    0.76996047    1.59467799
     atom   14 type  2   force =    -0.71552736   -0.51324035   38.31282360
     atom   15 type  2   force =    -0.04875301   -0.21097481  -37.58914631
     atom   16 type  1   force =    -0.73426720    4.40728229   -0.91895261
     atom   17 type  2   force =     0.87957058    1.74992956   37.65054269
     atom   18 type  2   force =    -0.08015819   -0.56301747  -39.11750260
     atom   19 type  1   force =     2.78798770   -1.99339104   -0.21694151
     atom   20 type  2   force =     0.14974777   -0.02817616  -39.08160638
     atom   21 type  1   force =    -0.38567226   -0.76869535    0.27628266
     atom   22 type  2   force =     0.49067744   -1.89316342   38.30822153
     atom   23 type  2   force =    -0.02139142    0.54725308  -38.71031343
     atom   24 type  1   force =     1.70642688   -0.18230250   -0.59817093
     atom   25 type  2   force =     1.57475918   -0.51953594   38.91682052
     atom   26 type  2   force =     0.13546249   -0.20492874  -38.18086929
     atom   27 type  1   force =     0.92035625    1.05093827   -4.05311513
     atom   28 type  2   force =     3.22562538    3.84788828   35.92170781
     atom   29 type  2   force =    -0.08199433   -0.10751913  -38.32065174
     atom   30 type  1   force =     0.00083726   -0.52308280   -0.97397126
     atom   31 type  2   force =     1.48433206    0.35901112   37.28921413
     atom   32 type  2   force =    -0.38580269    0.19694997  -39.21314654
     atom   33 type  1   force =     1.20903847   -1.57674403    1.03713885
     atom   34 type  2   force =     0.38686736   -1.67056451   39.10796027
     atom   35 type  2   force =    -0.13524420    0.31491787  -38.35498906
     atom   36 type  3   force =    -0.73854728    2.67608000   46.18143025
     The local contribution  to forces
     atom    1 type  1   force =     2.08648017    0.41938901   -1.38361538
     atom    2 type  2   force =     1.23620259    5.48834931  -36.39163498
     atom    3 type  2   force =     0.26542651    0.34574942   36.96370439
     atom    4 type  1   force =     0.24312146   -2.82544471    2.78548436
     atom    5 type  2   force =     3.17402788   -3.04326017  -37.23820695
     atom    6 type  2   force =    -0.07524880    0.36814275   38.64767884
     atom    7 type  1   force =     3.05199526    2.17808689   -1.55317782
     atom    8 type  2   force =     1.06029862   -0.82751905  -37.00531049
     atom    9 type  2   force =    -0.30127670   -0.11107822   38.39376155
     atom   10 type  1   force =     1.02830897    1.42876603   -3.65301930
     atom   11 type  2   force =     0.75356954    1.93867794  -38.70215879
     atom   12 type  2   force =    -0.21195390   -0.47577627   38.14829557
     atom   13 type  1   force =    -0.74662138   -0.79627338   -1.58745359
     atom   14 type  2   force =     0.71184995    0.52144695  -38.05930376
     atom   15 type  2   force =     0.04582884    0.21782399   37.33783840
     atom   16 type  1   force =     0.73155560   -4.41529847    0.95958535
     atom   17 type  2   force =    -0.88400607   -1.72300092  -37.41880204
     atom   18 type  2   force =     0.08119313    0.56590406   38.87656701
     atom   19 type  1   force =    -2.79746484    1.99478627    0.23765267
     atom   20 type  2   force =    -0.14589631    0.04165309   38.83586626
     atom   21 type  1   force =     0.38777285    0.74680975   -0.27808938
     atom   22 type  2   force =    -0.48572533    1.88636120  -38.07001811
     atom   23 type  2   force =     0.01434545   -0.53421985   38.46987482
     atom   24 type  1   force =    -1.70039515    0.15301417    0.56292308
     atom   25 type  2   force =    -1.57005588    0.52878451  -38.66795592
     atom   26 type  2   force =    -0.13901627    0.21475255   37.93061185
     atom   27 type  1   force =    -0.90654850   -1.03008479    4.03634670
     atom   28 type  2   force =    -3.08014272   -3.74595504  -35.77470495
     atom   29 type  2   force =     0.08083196    0.10800159   38.07455539
     atom   30 type  1   force =    -0.01112110    0.51250094    0.97840086
     atom   31 type  2   force =    -1.47254965   -0.36125627  -37.04124622
     atom   32 type  2   force =     0.38123970   -0.18883077   38.96738247
     atom   33 type  1   force =    -1.20104934    1.56704447   -1.04150675
     atom   34 type  2   force =    -0.38497671    1.67048466  -38.87573959
     atom   35 type  2   force =     0.13351940   -0.30031495   38.10783478
     atom   36 type  3   force =     0.69244955   -1.76873942  -45.50231259
     The core correction contribution to forces
     atom    1 type  1   force =     0.00000000    0.00000000    0.00000000
     atom    2 type  2   force =    -0.00421332   -0.02308960    0.00563349
     atom    3 type  2   force =     0.00056231    0.00040948   -0.02074310
     atom    4 type  1   force =     0.00000000    0.00000000    0.00000000
     atom    5 type  2   force =     0.00043966   -0.00003580    0.02051351
     atom    6 type  2   force =     0.00029399   -0.00104238   -0.02066644
     atom    7 type  1   force =     0.00000000    0.00000000    0.00000000
     atom    8 type  2   force =    -0.00011427    0.00069909    0.02050982
     atom    9 type  2   force =    -0.00005755    0.00037726   -0.02097817
     atom   10 type  1   force =     0.00000000    0.00000000    0.00000000
     atom   11 type  2   force =    -0.00045463   -0.00050761    0.02045695
     atom   12 type  2   force =     0.00071016    0.00154650   -0.02108573
     atom   13 type  1   force =     0.00000000    0.00000000    0.00000000
     atom   14 type  2   force =    -0.00067184    0.00012365    0.02075981
     atom   15 type  2   force =     0.00051838    0.00037397   -0.02064566
     atom   16 type  1   force =     0.00000000    0.00000000    0.00000000
     atom   17 type  2   force =    -0.00027952    0.00136303    0.02031848
     atom   18 type  2   force =    -0.00010127   -0.00025577   -0.02083843
     atom   19 type  1   force =     0.00000000    0.00000000    0.00000000
     atom   20 type  2   force =     0.00007269    0.00060055   -0.02108150
     atom   21 type  1   force =     0.00000000    0.00000000    0.00000000
     atom   22 type  2   force =     0.00009894   -0.00056386    0.02066373
     atom   23 type  2   force =    -0.00053351    0.00118798   -0.02086463
     atom   24 type  1   force =     0.00000000    0.00000000    0.00000000
     atom   25 type  2   force =     0.00010081   -0.00036669    0.02092792
     atom   26 type  2   force =    -0.00010659    0.00058257   -0.02087945
     atom   27 type  1   force =     0.00000000    0.00000000    0.00000000
     atom   28 type  2   force =     0.00748421    0.00587478    0.01639229
     atom   29 type  2   force =    -0.00053219   -0.00064258   -0.02037498
     atom   30 type  1   force =     0.00000000    0.00000000    0.00000000
     atom   31 type  2   force =     0.00064359    0.00003101    0.02062536
     atom   32 type  2   force =    -0.00009014    0.00011554   -0.02088925
     atom   33 type  1   force =     0.00000000    0.00000000    0.00000000
     atom   34 type  2   force =     0.00050086    0.00111255    0.02088704
     atom   35 type  2   force =     0.00011763    0.00095019   -0.02119827
     atom   36 type  3   force =    -0.00027479    0.01115780    0.00564650
     The Hubbard contrib.    to forces
     atom    1 type  1   force =     0.00000000    0.00000000    0.00000000
     atom    2 type  2   force =     0.00000000    0.00000000    0.00000000
     atom    3 type  2   force =     0.00000000    0.00000000    0.00000000
     atom    4 type  1   force =     0.00000000    0.00000000    0.00000000
     atom    5 type  2   force =     0.00000000    0.00000000    0.00000000
     atom    6 type  2   force =     0.00000000    0.00000000    0.00000000
     atom    7 type  1   force =     0.00000000    0.00000000    0.00000000
     atom    8 type  2   force =     0.00000000    0.00000000    0.00000000
     atom    9 type  2   force =     0.00000000    0.00000000    0.00000000
     atom   10 type  1   force =     0.00000000    0.00000000    0.00000000
     atom   11 type  2   force =     0.00000000    0.00000000    0.00000000
     atom   12 type  2   force =     0.00000000    0.00000000    0.00000000
     atom   13 type  1   force =     0.00000000    0.00000000    0.00000000
     atom   14 type  2   force =     0.00000000    0.00000000    0.00000000
     atom   15 type  2   force =     0.00000000    0.00000000    0.00000000
     atom   16 type  1   force =     0.00000000    0.00000000    0.00000000
     atom   17 type  2   force =     0.00000000    0.00000000    0.00000000
     atom   18 type  2   force =     0.00000000    0.00000000    0.00000000
     atom   19 type  1   force =     0.00000000    0.00000000    0.00000000
     atom   20 type  2   force =     0.00000000    0.00000000    0.00000000
     atom   21 type  1   force =     0.00000000    0.00000000    0.00000000
     atom   22 type  2   force =     0.00000000    0.00000000    0.00000000
     atom   23 type  2   force =     0.00000000    0.00000000    0.00000000
     atom   24 type  1   force =     0.00000000    0.00000000    0.00000000
     atom   25 type  2   force =     0.00000000    0.00000000    0.00000000
     atom   26 type  2   force =     0.00000000    0.00000000    0.00000000
     atom   27 type  1   force =     0.00000000    0.00000000    0.00000000
     atom   28 type  2   force =     0.00000000    0.00000000    0.00000000
     atom   29 type  2   force =     0.00000000    0.00000000    0.00000000
     atom   30 type  1   force =     0.00000000    0.00000000    0.00000000
     atom   31 type  2   force =     0.00000000    0.00000000    0.00000000
     atom   32 type  2   force =     0.00000000    0.00000000    0.00000000
     atom   33 type  1   force =     0.00000000    0.00000000    0.00000000
     atom   34 type  2   force =     0.00000000    0.00000000    0.00000000
     atom   35 type  2   force =     0.00000000    0.00000000    0.00000000
     atom   36 type  3   force =     0.00000000    0.00000000    0.00000000
     The SCF correction term to forces
     atom    1 type  1   force =     0.00001362   -0.00045822   -0.00104283
     atom    2 type  2   force =     0.00001144   -0.00033369   -0.00065367
     atom    3 type  2   force =     0.00007387   -0.00015179   -0.00010250
     atom    4 type  1   force =     0.00026053    0.00032755   -0.00098237
     atom    5 type  2   force =    -0.00002884    0.00014007   -0.00049591
     atom    6 type  2   force =     0.00003374    0.00005229   -0.00015697
     atom    7 type  1   force =     0.00015969    0.00007203   -0.00086900
     atom    8 type  2   force =    -0.00000366    0.00008507   -0.00049079
     atom    9 type  2   force =     0.00001484    0.00004645   -0.00004859
     atom   10 type  1   force =    -0.00005891   -0.00001991   -0.00097579
     atom   11 type  2   force =     0.00004239    0.00000916   -0.00042519
     atom   12 type  2   force =     0.00009274    0.00004761   -0.00004941
     atom   13 type  1   force =    -0.00022390   -0.00020505   -0.00108887
     atom   14 type  2   force =    -0.00002357   -0.00015359   -0.00048769
     atom   15 type  2   force =    -0.00003797   -0.00009807   -0.00010679
     atom   16 type  1   force =    -0.00014786    0.00033357   -0.00090089
     atom   17 type  2   force =    -0.00003385    0.00006845   -0.00050615
     atom   18 type  2   force =    -0.00010296    0.00001751   -0.00009536
     atom   19 type  1   force =    -0.00006743   -0.00008429   -0.00085806
     atom   20 type  2   force =    -0.00002598    0.00002405   -0.00005934
     atom   21 type  1   force =     0.00007304    0.00004967   -0.00088967
     atom   22 type  2   force =     0.00001316   -0.00002131   -0.00038583
     atom   23 type  2   force =    -0.00002725    0.00003553   -0.00010173
     atom   24 type  1   force =     0.00015730   -0.00019264   -0.00128071
     atom   25 type  2   force =     0.00004780   -0.00010209   -0.00056961
     atom   26 type  2   force =    -0.00004290   -0.00001976   -0.00009324
     atom   27 type  1   force =    -0.00008987    0.00015463   -0.00103182
     atom   28 type  2   force =     0.00004083    0.00013268   -0.00071139
     atom   29 type  2   force =     0.00007784    0.00000478   -0.00009607
     atom   30 type  1   force =    -0.00009107    0.00001190   -0.00089279
     atom   31 type  2   force =     0.00002924    0.00003675   -0.00048301
     atom   32 type  2   force =     0.00000372   -0.00002782   -0.00005090
     atom   33 type  1   force =    -0.00003295    0.00004181   -0.00104514
     atom   34 type  2   force =    -0.00005751   -0.00000468   -0.00045741
     atom   35 type  2   force =    -0.00006942    0.00007449   -0.00006672
     atom   36 type  3   force =     0.00000186   -0.00011315   -0.00099183

     Total force =     0.175075     Total SCF correction =     0.004130
     Energy error            =      3.7E-02 Ry
     Gradient error          =      9.9E-02 Ry/Bohr

     number of scf cycles    =   2
     number of bfgs steps    =   1

     energy             old  =   -2246.1667339194 Ry
     energy             new  =   -2246.2035149306 Ry

     CASE: energy            _new < energy            _old

     new trust radius        =       0.1257798126 bohr
     new conv_thr            =       0.0000000989 Ry


ATOMIC_POSITIONS (angstrom)
Mo            6.5719447181        1.7588977670        2.8093829637
S             8.1560021306        0.9019914137        4.4569052227
S             8.1801294530        0.8180623537        1.2712597827
Mo            8.0993832240        4.4978724231        2.7140044639
S             6.4764725403        3.7305527472        4.3218620828
S             6.5541025746        3.5228001179        1.1228204867
Mo            6.4945710106        7.2010385470        2.6675948785
S             8.0825317476        6.3407871231        4.2619142501
S             8.0943677556        6.3166569425        1.0927533469
Mo            8.1550107403        9.8837901768        2.8123967547
S             6.5001419401        8.9394440369        4.3733471816
S             6.6173562403        9.0494029239        1.1431481543
Mo            3.4249255077        1.7470927065        2.7749024612
S             4.9840156474        0.8160063340        4.3630344463
S             5.0445185991        0.8505339259        1.2159899769
Mo            4.9791070101        4.5317064073        2.6320588023
S             3.4329828434        3.6723104090        4.2804576125
S             3.4367761576        3.5400586157        1.0696749392
Mo            3.4562180315        7.2063950591        2.6257086781
S             4.9886465390        6.3237831263        1.0352552733
Mo            5.0112381004        9.9099121979        2.7442745108
S             3.4691365944        8.9415401618        4.3238790032
S             3.4073823559        9.0657214717        1.1048869969
Mo            0.3229092637        1.7286876572        2.7850186395
S             1.8636225492        0.8124520127        4.4073670490
S             1.8477163291        0.8557397246        1.2046648721
Mo            1.8664089324        4.5224260158        2.6486523583
S             0.2725275226        3.6533611528        4.3205059006
S             0.2350551121        3.5293344720        1.1685040573
Mo            0.2669255730        7.2189046083        2.7015090562
S             1.9028343132        6.3118100910        4.2393170985
S             1.8521048920        6.3180359195        1.0507903097
Mo            1.8527232213        9.9377067136        2.7647272188
S             0.2992645054        9.0443297709        4.4008723663
S             0.2692426785        9.0491742319        1.1598862753
O             8.4100595471        2.3612714966        5.2214201057



     Writing config-only to output data dir ./MoS2-V-O.save/
     NEW-OLD atomic charge density approx. for the potential

     negative rho (up, down):  1.429E-04 0.000E+00

     total cpu time spent up to now is      208.6 secs

     Self-consistent Calculation

     iteration #  1     ecut=    80.00 Ry     beta= 0.70
     Davidson diagonalization with overlap
     ethr =  1.00E-06,  avg # of iterations = 15.0

     negative rho (up, down):  2.155E-04 0.000E+00

     total cpu time spent up to now is      223.6 secs

     total energy              =   -2246.23286536 Ry
     estimated scf accuracy    <       0.00914133 Ry

     iteration #  2     ecut=    80.00 Ry     beta= 0.70
     Davidson diagonalization with overlap
     ethr =  2.93E-06,  avg # of iterations =  6.0

     negative rho (up, down):  2.957E-04 0.000E+00

     total cpu time spent up to now is      235.6 secs

     total energy              =   -2246.23430913 Ry
     estimated scf accuracy    <       0.00388293 Ry

     iteration #  3     ecut=    80.00 Ry     beta= 0.70
     Davidson diagonalization with overlap
     ethr =  1.24E-06,  avg # of iterations =  4.0

     negative rho (up, down):  3.806E-04 0.000E+00

     total cpu time spent up to now is      247.5 secs

     total energy              =   -2246.23463132 Ry
     estimated scf accuracy    <       0.00027389 Ry

     iteration #  4     ecut=    80.00 Ry     beta= 0.70
     Davidson diagonalization with overlap
     ethr =  8.78E-08,  avg # of iterations =  6.0

     negative rho (up, down):  4.003E-04 0.000E+00

     total cpu time spent up to now is      263.0 secs

     total energy              =   -2246.23467080 Ry
     estimated scf accuracy    <       0.00002020 Ry

     iteration #  5     ecut=    80.00 Ry     beta= 0.70
     Davidson diagonalization with overlap
     ethr =  6.47E-09,  avg # of iterations =  5.0

     negative rho (up, down):  4.054E-04 0.000E+00

     total cpu time spent up to now is      278.4 secs

     total energy              =   -2246.23467602 Ry
     estimated scf accuracy    <       0.00000899 Ry

     iteration #  6     ecut=    80.00 Ry     beta= 0.70
     Davidson diagonalization with overlap
     ethr =  2.88E-09,  avg # of iterations =  3.0

     negative rho (up, down):  4.005E-04 0.000E+00

     total cpu time spent up to now is      291.3 secs

     total energy              =   -2246.23467653 Ry
     estimated scf accuracy    <       0.00000199 Ry

     iteration #  7     ecut=    80.00 Ry     beta= 0.70
     Davidson diagonalization with overlap
     ethr =  6.37E-10,  avg # of iterations =  5.0

     negative rho (up, down):  3.816E-04 0.000E+00

     total cpu time spent up to now is      303.7 secs

     total energy              =   -2246.23467691 Ry
     estimated scf accuracy    <       0.00000029 Ry

     iteration #  8     ecut=    80.00 Ry     beta= 0.70
     Davidson diagonalization with overlap
     ethr =  9.20E-11,  avg # of iterations =  5.0

     negative rho (up, down):  3.455E-04 0.000E+00

     total cpu time spent up to now is      313.2 secs

     total energy              =   -2246.23467705 Ry
     estimated scf accuracy    <       0.00000015 Ry

     iteration #  9     ecut=    80.00 Ry     beta= 0.70
     Davidson diagonalization with overlap
     ethr =  4.79E-11,  avg # of iterations =  4.0

     negative rho (up, down):  2.111E-04 0.000E+00

     total cpu time spent up to now is      316.8 secs

     End of self-consistent calculation

          k = 0.0000 0.0000 0.0000 (105382 PWs)   bands (ev):

   -63.0162 -62.9669 -62.9004 -62.8919 -62.8838 -62.8787 -62.8532 -62.8476
   -62.8246 -62.8204 -62.7940 -62.7704 -37.3082 -37.2699 -37.2562 -37.2129
   -37.1828 -37.1737 -37.1553 -37.1475 -37.1386 -37.1160 -37.0939 -37.0854
   -37.0786 -37.0732 -37.0567 -37.0564 -37.0476 -37.0415 -37.0331 -37.0236
   -37.0101 -37.0070 -36.9971 -36.9900 -36.9758 -36.9695 -36.9609 -36.9569
   -36.9501 -36.9417 -36.9302 -36.8866 -36.8457 -36.8250 -36.8040 -36.7927
   -21.2182 -15.9855 -15.3367 -15.1973 -15.0361 -14.9298 -14.8197 -14.7770
   -14.5481 -14.5200 -14.4871 -14.4354 -14.4229 -14.3724 -14.3041 -14.2844
   -14.1838 -14.1754 -14.0957 -14.0538 -13.9423 -13.8986 -13.8571 -13.5830
    -8.2749  -7.7325  -7.5916  -7.5813  -7.3607  -7.3428  -7.2977  -7.2611
    -7.1904  -7.0239  -6.9097  -6.8701  -6.8078  -6.7325  -6.7038  -6.5844
    -6.5338  -6.5197  -6.4311  -6.3087  -6.0741  -6.0471  -6.0011  -5.9239
    -5.9095  -5.8681  -5.7815  -5.7606  -5.7399  -5.7088  -5.6656  -5.5852
    -5.5628  -5.4857  -5.4083  -5.3890  -5.2703  -5.1813  -5.1244  -5.0866
    -5.0427  -5.0273  -4.9080  -4.7706  -4.6125  -4.5939  -4.4133  -4.3885
    -4.3489  -4.2887  -4.2517  -4.1405  -4.0770  -3.9576  -3.9230  -3.8184
    -3.7797  -3.7449  -3.7190  -3.6727  -3.6281  -3.5784  -3.5193  -3.4980
    -3.4897  -3.4343  -3.2594  -3.2012  -3.1009  -2.9812  -2.8844  -2.8594
    -2.8059  -2.7982  -2.7818  -2.7263  -2.7131  -2.6208  -2.4358  -2.2249
    -2.1023  -2.0551  -2.0508  -1.6491  -1.1966  -0.8243  -0.7780  -0.2332
    -0.1936  -0.1565  -0.0896   0.0038   0.0974   0.1762   0.1951   0.2433
     0.2745   0.3465   0.3641   0.4412   0.4937   0.5244   0.5328   0.6003
     0.6499   0.6845   0.7053   0.7193   0.8153   0.8436   0.8712   0.9146
     0.9280   0.9436   1.2974

     the Fermi energy is    -1.4229 ev

!    total energy              =   -2246.23467718 Ry
     estimated scf accuracy    <       0.00000005 Ry
     smearing contrib. (-TS)   =      -0.00070997 Ry
     internal energy E=F+TS    =   -2246.23396722 Ry

     The total energy is F=E-TS. E is the sum of the following terms:
     one-electron contribution =  -18482.49003926 Ry
     hartree contribution      =    9229.57104009 Ry
     xc contribution           =    -392.09233832 Ry
     ewald contribution        =    7408.64299603 Ry
     one-center paw contrib.   =      -9.86562576 Ry

     convergence has been achieved in   9 iterations

     negative rho (up, down):  2.111E-04 0.000E+00

     Forces acting on atoms (cartesian axes, Ry/au):

     atom    1 type  1   force =    -0.00539147   -0.00157743   -0.00953499
     atom    2 type  2   force =    -0.00286879    0.08558416   -0.00271405
     atom    3 type  2   force =    -0.00975968   -0.00254892   -0.01420887
     atom    4 type  1   force =     0.00184153   -0.00086159    0.00123000
     atom    5 type  2   force =    -0.00678380    0.00017613   -0.01488937
     atom    6 type  2   force =     0.00026692    0.00608329    0.00032893
     atom    7 type  1   force =     0.00137053   -0.00571349    0.00224706
     atom    8 type  2   force =     0.00102688   -0.00564374    0.01010935
     atom    9 type  2   force =     0.00931868    0.00667174    0.00239792
     atom   10 type  1   force =     0.00362088    0.00289502    0.00739194
     atom   11 type  2   force =     0.00439055   -0.00389238   -0.01099384
     atom   12 type  2   force =    -0.00246299   -0.00350579   -0.00247954
     atom   13 type  1   force =     0.00252616   -0.00266837   -0.00141365
     atom   14 type  2   force =     0.00529835   -0.00138559    0.00559633
     atom   15 type  2   force =    -0.01234984   -0.00104979   -0.01082123
     atom   16 type  1   force =    -0.00269642    0.00666059   -0.00201135
     atom   17 type  2   force =     0.00113935    0.00436825   -0.00174522
     atom   18 type  2   force =     0.00057410   -0.00243609    0.00555667
     atom   19 type  1   force =     0.00177202   -0.00455912    0.00205367
     atom   20 type  2   force =     0.00333518   -0.00106780   -0.00695404
     atom   21 type  1   force =     0.00087560    0.00318866    0.00321436
     atom   22 type  2   force =    -0.00022959   -0.00233082   -0.00359266
     atom   23 type  2   force =     0.00098789   -0.00030887    0.00331663
     atom   24 type  1   force =    -0.00322752   -0.00011514   -0.00989585
     atom   25 type  2   force =     0.00483256    0.00953638   -0.00276775
     atom   26 type  2   force =     0.00786226   -0.00569712   -0.01651169
     atom   27 type  1   force =    -0.00097693    0.00244826    0.00424221
     atom   28 type  2   force =     0.01114580   -0.00111821   -0.02988629
     atom   29 type  2   force =     0.00422541    0.00683654   -0.01037321
     atom   30 type  1   force =     0.00097635   -0.00122681    0.00663910
     atom   31 type  2   force =     0.00119654   -0.00015158    0.00875565
     atom   32 type  2   force =    -0.00642748    0.01062399   -0.00056245
     atom   33 type  1   force =    -0.00062310    0.00270320    0.00568308
     atom   34 type  2   force =    -0.00105354   -0.02445742   -0.01566173
     atom   35 type  2   force =    -0.00411736    0.00208719   -0.00115719
     atom   36 type  3   force =    -0.00961503   -0.07754730    0.09941208
     The non-local contrib.  to forces
     atom    1 type  1   force =     0.00694755    0.01457289   -0.00139111
     atom    2 type  2   force =     0.09300809    0.39249572    0.03303576
     atom    3 type  2   force =    -0.01032411   -0.01325934    0.26385554
     atom    4 type  1   force =     0.01169552    0.00567480    0.01139603
     atom    5 type  2   force =     0.00037522   -0.00769529   -0.24917404
     atom    6 type  2   force =    -0.00322763    0.00667103    0.26196957
     atom    7 type  1   force =    -0.02884512   -0.00925617   -0.02391891
     atom    8 type  2   force =     0.00391448   -0.00862319   -0.25923686
     atom    9 type  2   force =     0.00340411   -0.01011933    0.27266304
     atom   10 type  1   force =    -0.00707872   -0.00238807   -0.04570967
     atom   11 type  2   force =     0.00733673    0.00230934   -0.25626968
     atom   12 type  2   force =    -0.00706038   -0.02402892    0.26632755
     atom   13 type  1   force =    -0.00157733    0.02622120   -0.00654010
     atom   14 type  2   force =     0.00938937   -0.00961341   -0.26658734
     atom   15 type  2   force =    -0.00948483   -0.00867055    0.25938126
     atom   16 type  1   force =     0.00046446    0.02293117   -0.04155642
     atom   17 type  2   force =     0.00599239   -0.02444078   -0.25444650
     atom   18 type  2   force =    -0.00013570   -0.00617743    0.26925626
     atom   19 type  1   force =     0.01122570   -0.00862985   -0.02224125
     atom   20 type  2   force =    -0.00032560   -0.01443730    0.25980270
     atom   21 type  1   force =    -0.00230362    0.02835207    0.00431929
     atom   22 type  2   force =    -0.00458565    0.00526272   -0.26249467
     atom   23 type  2   force =     0.00818249   -0.01505583    0.26616023
     atom   24 type  1   force =     0.00469697    0.01609691    0.00957290
     atom   25 type  2   force =     0.00312073    0.00085613   -0.26978941
     atom   26 type  2   force =     0.00921224   -0.01599405    0.25467857
     atom   27 type  1   force =    -0.01341022   -0.00431985    0.01575208
     atom   28 type  2   force =    -0.11599018   -0.08947617   -0.20787346
     atom   29 type  2   force =     0.00661926    0.00332243    0.26020022
     atom   30 type  1   force =     0.00851726    0.00971468   -0.00035285
     atom   31 type  2   force =    -0.01129238    0.00377727   -0.25804276
     atom   32 type  2   force =    -0.00167407    0.00251037    0.26555356
     atom   33 type  1   force =    -0.00439197    0.01023129    0.00446793
     atom   34 type  2   force =    -0.00268393   -0.02697725   -0.26884117
     atom   35 type  2   force =    -0.00388925   -0.01283620    0.26992496
     atom   36 type  3   force =    -0.07303199   -1.20384940   -0.72157696
     The ionic contribution  to forces
     atom    1 type  1   force =    -1.88647348   -0.22480989    1.18632551
     atom    2 type  2   force =    -1.25612282   -6.19151024   35.90028342
     atom    3 type  2   force =    -0.29010300   -0.32969514  -37.19686628
     atom    4 type  1   force =    -0.22032700    2.46942404   -2.57649545
     atom    5 type  2   force =    -2.98102076    2.90131039   37.28205081
[...]
     atom   28 type  2   force =    -0.00120706   -0.01283737   -0.27720198
     atom   29 type  2   force =     0.00101180   -0.00847760    0.26714718
     atom   30 type  1   force =     0.00515570    0.01824265    0.00381018
     atom   31 type  2   force =    -0.01001078    0.00222157   -0.26752763
     atom   32 type  2   force =     0.00709274   -0.01418812    0.26925556
     atom   33 type  1   force =    -0.00241827    0.00707931    0.00179862
     atom   34 type  2   force =    -0.00200424   -0.00567266   -0.27863169
     atom   35 type  2   force =    -0.00056956   -0.01232548    0.26548376
     atom   36 type  3   force =    -0.00338502   -0.02336818   -2.32108609
     The ionic contribution  to forces
     atom    1 type  1   force =    -1.12969114    1.23504052   -1.89817082
     atom    2 type  2   force =    -0.19916160   -0.03810110   28.62904252
     atom    3 type  2   force =     0.04652985   -0.18623895  -38.22892210
     atom    4 type  1   force =    -0.13215648    1.28876417   -0.94387474
     atom    5 type  2   force =    -1.34900419    2.13400832   37.65805395
     atom    6 type  2   force =     0.20057490   -0.15868502  -38.95788613
     atom    7 type  1   force =    -2.77154945   -2.34613441    2.21041498
     atom    8 type  2   force =    -1.16495540    0.11844370   37.97457235
     atom    9 type  2   force =     0.34190153    0.10845062  -38.17622715
     atom   10 type  1   force =    -0.46079386   -1.71479472   -0.71709798
     atom   11 type  2   force =    -0.99346297   -2.29618284   38.02788998
     atom   12 type  2   force =     0.12735075    0.20456131  -38.53415656
     atom   13 type  1   force =     0.12606821    0.95997804    0.79006814
     atom   14 type  2   force =    -1.00785099   -0.05631942   37.84449543
     atom   15 type  2   force =    -0.05423810   -0.24366926  -38.35269176
     atom   16 type  1   force =    -0.35860932    3.84291974    0.07659417
     atom   17 type  2   force =     0.82526063    1.44983854   37.89290720
     atom   18 type  2   force =    -0.21973403   -0.22205941  -38.63679631
     atom   19 type  1   force =     2.63419486   -2.01149697    2.47526756
     atom   20 type  2   force =    -0.04105903    0.09052728  -39.08437831
     atom   21 type  1   force =    -0.52364360   -0.84032034   -0.07359174
     atom   22 type  2   force =     0.43009271   -1.69272154   38.37531038
     atom   23 type  2   force =    -0.20999689    0.17108267  -38.21162774
     atom   24 type  1   force =     1.02112474    0.95154264   -2.01329452
     atom   25 type  2   force =     1.16945254    0.06497972   38.12967115
     atom   26 type  2   force =    -0.00607808   -0.18572204  -38.33120099
     atom   27 type  1   force =     0.47846093    0.88796928   -0.83387041
     atom   28 type  2   force =     0.53110680    1.51407029   37.49459312
     atom   29 type  2   force =     0.02671068    0.10175510  -38.52825162
     atom   30 type  1   force =     0.14938947   -1.13485675    1.46808852
     atom   31 type  2   force =     1.29448129    0.08891108   38.15010481
     atom   32 type  2   force =    -0.29688373    0.08584100  -38.27225648
     atom   33 type  1   force =     1.00571587   -0.99792400    1.88540593
     atom   34 type  2   force =     0.57652824   -1.41088496   38.36585436
     atom   35 type  2   force =     0.08319087    0.03130087  -38.15799147
     atom   36 type  3   force =    -0.14926603    0.20612684   50.50395228
     The local contribution  to forces
     atom    1 type  1   force =     1.11969284   -1.24520899    1.88619082
     atom    2 type  2   force =     0.19463784    0.03033591  -28.91513403
     atom    3 type  2   force =    -0.04409868    0.19567665   37.97217248
     atom    4 type  1   force =     0.12786859   -1.29202177    0.94055254
     atom    5 type  2   force =     1.34400584   -2.11383549  -37.42073954
     atom    6 type  2   force =    -0.19983033    0.16146434   38.71427208
     atom    7 type  1   force =     2.79098110    2.34644644   -2.18293494
     atom    8 type  2   force =     1.15821382   -0.12028252  -37.72790712
     atom    9 type  2   force =    -0.33555774   -0.09431793   37.92537860
     atom   10 type  1   force =     0.45847813    1.69611326    0.69853295
     atom   11 type  2   force =     0.98745847    2.29599287  -37.78561153
     atom   12 type  2   force =    -0.12007515   -0.19166024   38.29019662
     atom   13 type  1   force =    -0.12695215   -0.98687190   -0.79203034
     atom   14 type  2   force =     1.00811742    0.06170139  -37.59140285
     atom   15 type  2   force =     0.05490740    0.25156435   38.11302520
     atom   16 type  1   force =     0.35874530   -3.87619421   -0.04296964
     atom   17 type  2   force =    -0.82056872   -1.42707602  -37.65526924
     atom   18 type  2   force =     0.21957395    0.22749063   38.39011512
     atom   19 type  1   force =    -2.64810532    2.00637013   -2.44960111
     atom   20 type  2   force =     0.04180169   -0.07598450   38.84280784
     atom   21 type  1   force =     0.52313273    0.80979768    0.07081924
     atom   22 type  2   force =    -0.42564178    1.69210388  -38.13417494
     atom   23 type  2   force =     0.20236954   -0.15893727   37.96607079
     atom   24 type  1   force =    -1.00952687   -0.95743251    1.99231891
     atom   25 type  2   force =    -1.17045639   -0.05713233  -37.87845550
     atom   26 type  2   force =     0.00279769    0.19399058   38.08837950
     atom   27 type  1   force =    -0.47390058   -0.89274186    0.82691882
     atom   28 type  2   force =    -0.53060505   -1.50201904  -37.23779323
     atom   29 type  2   force =    -0.02704811   -0.09343207   38.28296764
     atom   30 type  1   force =    -0.15504227    1.11698366   -1.47203281
     atom   31 type  2   force =    -1.28572580   -0.09109414  -37.90384795
     atom   32 type  2   force =     0.28990386   -0.07232096   38.02399317
     atom   33 type  1   force =    -1.00317782    0.99034347   -1.88773668
     atom   34 type  2   force =    -0.57473391    1.41793574  -38.10855962
     atom   35 type  2   force =    -0.08267385   -0.01897388   37.91356445
     atom   36 type  3   force =     0.15312418   -0.18253830  -48.20593113
     The core correction contribution to forces
     atom    1 type  1   force =     0.00000000    0.00000000    0.00000000
     atom    2 type  2   force =    -0.00027791   -0.00039940   -0.00974003
     atom    3 type  2   force =     0.00016501    0.00031916   -0.02135159
     atom    4 type  1   force =     0.00000000    0.00000000    0.00000000
     atom    5 type  2   force =    -0.00047541    0.00097773    0.02067265
     atom    6 type  2   force =     0.00027146   -0.00024879   -0.02084970
     atom    7 type  1   force =     0.00000000    0.00000000    0.00000000
     atom    8 type  2   force =    -0.00032582    0.00017954    0.02094110
     atom    9 type  2   force =     0.00065202    0.00082611   -0.02100247
     atom   10 type  1   force =     0.00000000    0.00000000    0.00000000
     atom   11 type  2   force =    -0.00016637   -0.00021876    0.02094148
     atom   12 type  2   force =     0.00057989    0.00089615   -0.02087135
     atom   13 type  1   force =     0.00000000    0.00000000    0.00000000
     atom   14 type  2   force =     0.00001713    0.00003360    0.02142201
     atom   15 type  2   force =     0.00001997    0.00031941   -0.02058557
     atom   16 type  1   force =     0.00000000    0.00000000    0.00000000
     atom   17 type  2   force =     0.00049268    0.00115113    0.02054545
     atom   18 type  2   force =    -0.00016928   -0.00017861   -0.02093229
     atom   19 type  1   force =     0.00000000    0.00000000    0.00000000
     atom   20 type  2   force =     0.00000247    0.00077379   -0.02122890
     atom   21 type  1   force =     0.00000000    0.00000000    0.00000000
     atom   22 type  2   force =     0.00007113   -0.00024926    0.02078251
     atom   23 type  2   force =    -0.00066448    0.00089142   -0.02092801
     atom   24 type  1   force =     0.00000000    0.00000000    0.00000000
     atom   25 type  2   force =    -0.00003502    0.00043110    0.02130960
     atom   26 type  2   force =    -0.00020918    0.00024992   -0.02077544
     atom   27 type  1   force =     0.00000000    0.00000000    0.00000000
     atom   28 type  2   force =     0.00004111    0.00083995    0.02145421
     atom   29 type  2   force =    -0.00010014    0.00028219   -0.02079896
     atom   30 type  1   force =     0.00000000    0.00000000    0.00000000
     atom   31 type  2   force =     0.00049383    0.00007927    0.02098689
     atom   32 type  2   force =    -0.00063345    0.00080753   -0.02100855
     atom   33 type  1   force =     0.00000000    0.00000000    0.00000000
     atom   34 type  2   force =     0.00011007    0.00023876    0.02159344
     atom   35 type  2   force =     0.00007880    0.00074736   -0.02090665
     atom   36 type  3   force =     0.00003264    0.00022777    0.02460237
     The Hubbard contrib.    to forces
     atom    1 type  1   force =     0.00000000    0.00000000    0.00000000
     atom    2 type  2   force =     0.00000000    0.00000000    0.00000000
     atom    3 type  2   force =     0.00000000    0.00000000    0.00000000
     atom    4 type  1   force =     0.00000000    0.00000000    0.00000000
     atom    5 type  2   force =     0.00000000    0.00000000    0.00000000
     atom    6 type  2   force =     0.00000000    0.00000000    0.00000000
     atom    7 type  1   force =     0.00000000    0.00000000    0.00000000
     atom    8 type  2   force =     0.00000000    0.00000000    0.00000000
     atom    9 type  2   force =     0.00000000    0.00000000    0.00000000
     atom   10 type  1   force =     0.00000000    0.00000000    0.00000000
     atom   11 type  2   force =     0.00000000    0.00000000    0.00000000
     atom   12 type  2   force =     0.00000000    0.00000000    0.00000000
     atom   13 type  1   force =     0.00000000    0.00000000    0.00000000
     atom   14 type  2   force =     0.00000000    0.00000000    0.00000000
     atom   15 type  2   force =     0.00000000    0.00000000    0.00000000
     atom   16 type  1   force =     0.00000000    0.00000000    0.00000000
     atom   17 type  2   force =     0.00000000    0.00000000    0.00000000
     atom   18 type  2   force =     0.00000000    0.00000000    0.00000000
     atom   19 type  1   force =     0.00000000    0.00000000    0.00000000
     atom   20 type  2   force =     0.00000000    0.00000000    0.00000000
     atom   21 type  1   force =     0.00000000    0.00000000    0.00000000
     atom   22 type  2   force =     0.00000000    0.00000000    0.00000000
     atom   23 type  2   force =     0.00000000    0.00000000    0.00000000
     atom   24 type  1   force =     0.00000000    0.00000000    0.00000000
     atom   25 type  2   force =     0.00000000    0.00000000    0.00000000
     atom   26 type  2   force =     0.00000000    0.00000000    0.00000000
     atom   27 type  1   force =     0.00000000    0.00000000    0.00000000
     atom   28 type  2   force =     0.00000000    0.00000000    0.00000000
     atom   29 type  2   force =     0.00000000    0.00000000    0.00000000
     atom   30 type  1   force =     0.00000000    0.00000000    0.00000000
     atom   31 type  2   force =     0.00000000    0.00000000    0.00000000
     atom   32 type  2   force =     0.00000000    0.00000000    0.00000000
     atom   33 type  1   force =     0.00000000    0.00000000    0.00000000
     atom   34 type  2   force =     0.00000000    0.00000000    0.00000000
     atom   35 type  2   force =     0.00000000    0.00000000    0.00000000
     atom   36 type  3   force =     0.00000000    0.00000000    0.00000000
     The SCF correction term to forces
     atom    1 type  1   force =    -0.00003229    0.00005339   -0.00004988
     atom    2 type  2   force =    -0.00000367   -0.00000374   -0.00000561
     atom    3 type  2   force =     0.00000328    0.00002382   -0.00002174
     atom    4 type  1   force =     0.00000174    0.00003057   -0.00004982
     atom    5 type  2   force =     0.00000501    0.00001450   -0.00000886
     atom    6 type  2   force =    -0.00000295    0.00001303   -0.00002127
     atom    7 type  1   force =    -0.00002568   -0.00003363    0.00001783
     atom    8 type  2   force =     0.00000042    0.00001099   -0.00000277
     atom    9 type  2   force =     0.00000448   -0.00002243    0.00000224
     atom   10 type  1   force =     0.00000754   -0.00004993    0.00002427
     atom   11 type  2   force =    -0.00001268   -0.00002837    0.00001290
     atom   12 type  2   force =    -0.00001154   -0.00002724    0.00000669
     atom   13 type  1   force =     0.00000010    0.00003403   -0.00004560
     atom   14 type  2   force =    -0.00001107   -0.00000689    0.00000627
     atom   15 type  2   force =    -0.00001009    0.00002993   -0.00001338
     atom   16 type  1   force =    -0.00001515    0.00002341   -0.00007407
     atom   17 type  2   force =    -0.00000323    0.00000848   -0.00001826
     atom   18 type  2   force =    -0.00000709    0.00001807   -0.00002625
     atom   19 type  1   force =    -0.00000047   -0.00002122   -0.00000114
     atom   20 type  2   force =    -0.00001216   -0.00001362   -0.00000183
     atom   21 type  1   force =    -0.00002381   -0.00004934    0.00003186
     atom   22 type  2   force =     0.00000342   -0.00002277    0.00000705
     atom   23 type  2   force =    -0.00000324   -0.00002614    0.00000460
     atom   24 type  1   force =     0.00004053    0.00005069   -0.00005571
     atom   25 type  2   force =     0.00001032   -0.00000945   -0.00000051
     atom   26 type  2   force =     0.00000916    0.00002364   -0.00001534
     atom   27 type  1   force =     0.00000763    0.00003809   -0.00007463
     atom   28 type  2   force =    -0.00000027    0.00002096   -0.00000951
     atom   29 type  2   force =     0.00000458    0.00001946   -0.00002211
     atom   30 type  1   force =     0.00000587   -0.00004137    0.00000095
     atom   31 type  2   force =     0.00000299    0.00001841   -0.00001325
     atom   32 type  2   force =     0.00000985   -0.00002178   -0.00000181
     atom   33 type  1   force =     0.00002202   -0.00004190    0.00001684
     atom   34 type  2   force =     0.00001109   -0.00002511    0.00000812
     atom   35 type  2   force =     0.00001579   -0.00002504    0.00000350
     atom   36 type  3   force =    -0.00002317    0.00000978    0.00005018

     Total force =     0.006963     Total SCF correction =     0.000256
     Energy error            =      9.7E-05 Ry
     Gradient error          =      2.1E-03 Ry/Bohr

     bfgs converged in  27 scf cycles and  26 bfgs steps
     (criteria: energy <  1.0E-04 Ry, force <  1.0E-02 Ry/Bohr)

     End of BFGS Geometry Optimization

     Final energy             =   -2246.4498308209 Ry

     File ./MoS2-V-O.bfgs deleted, as requested
Begin final coordinates

ATOMIC_POSITIONS (angstrom)
Mo            6.5497736567        1.8198360750        2.7298064465
S             8.1373398479        0.8927729341        4.2588060166
S             8.1505342817        0.8772899041        1.1731762619
Mo            8.1300494350        4.5372103420        2.7037862410
S             6.5223651887        3.7150331127        4.2965001066
S             6.5650462672        3.6236766490        1.0814068825
Mo            6.5166871916        7.2257613717        2.6738449675
S             8.0942169332        6.3432771153        4.3016494559
S             8.1490353095        6.3762576693        1.1201353863
Mo            8.1476006872        9.9482737096        2.7565016599
S             6.5273913701        8.9884563877        4.3282583022
S             6.5853154961        9.0582979165        1.1214500531
Mo            3.4336741641        1.7965227318        2.7419156148
S             5.0056931771        0.8747163198        4.3344976332
S             4.9932006892        0.8756071155        1.1488322567
Mo            5.0032857269        4.5836612072        2.6348301281
S             3.4786626877        3.7136530952        4.2880236513
S             3.4401304453        3.6067562685        1.0921918976
Mo            3.4836468867        7.2275721891        2.6746223715
S             4.9986324156        6.3669313810        1.0391381047
Mo            5.0041420480        9.9555331516        2.7295055528
S             3.4777321506        9.0008354230        4.3300086546
S             3.4080993072        9.0736626496        1.1327148805
Mo            0.2930148983        1.8072645847        2.7397348893
S             1.8607743176        0.9094053516        4.3565147257
S             1.8639434438        0.8741050825        1.1561177707
Mo            1.8726672452        4.5398031637        2.6982082406
S             0.2764775234        3.6533118625        4.3070346975
S             0.2719475374        3.6209268098        1.1207499161
Mo            0.2843079050        7.2608757055        2.7419769067
S             1.9222734739        6.3399784240        4.3039718165
S             1.8646285561        6.3762162238        1.1142444599
Mo            1.8592144598        9.9839906191        2.7705995143
S             0.2762950037        9.0659537932        4.3679245846
S             0.2900453577        9.0810765653        1.1653239906
O             8.1405108156        0.9150879499        5.7567435381
End final coordinates



     Writing all to output data dir ./MoS2-V-O.save/
 
     init_run     :      4.65s CPU      5.17s WALL (       1 calls)
     electrons    :   2673.32s CPU   3022.93s WALL (      27 calls)
     update_pot   :     80.29s CPU     85.81s WALL (      26 calls)
     forces       :     75.45s CPU     86.28s WALL (      27 calls)

     Called by init_run:
     wfcinit      :      0.50s CPU      0.55s WALL (       1 calls)
     potinit      :      2.37s CPU      2.63s WALL (       1 calls)
     hinit0       :      0.44s CPU      0.47s WALL (       1 calls)

     Called by electrons:
     c_bands      :    396.58s CPU    406.00s WALL (     260 calls)
     sum_band     :    156.27s CPU    199.55s WALL (     260 calls)
     v_of_rho     :    248.76s CPU    304.24s WALL (     278 calls)
     newd         :     90.87s CPU    133.51s WALL (     278 calls)
     PAW_pot      :     10.98s CPU     11.02s WALL (     304 calls)
     mix_rho      :   1797.72s CPU   1999.30s WALL (     260 calls)

     Called by c_bands:
     init_us_2    :      6.04s CPU      6.46s WALL (     547 calls)
     init_us_2:cp :      6.03s CPU      6.45s WALL (     547 calls)
     regterg      :    376.74s CPU    385.71s WALL (     260 calls)

     Called by *egterg:
     rdiaghg      :     26.71s CPU     26.99s WALL (    1482 calls)
     h_psi        :    237.90s CPU    239.92s WALL (    1518 calls)
     s_psi        :     25.13s CPU     25.23s WALL (    1518 calls)
     g_psi        :      1.20s CPU      1.21s WALL (    1257 calls)

     Called by h_psi:
     h_psi:calbec :     27.72s CPU     27.87s WALL (    1518 calls)
     vloc_psi     :    181.91s CPU    183.58s WALL (    1518 calls)
     add_vuspsi   :     25.27s CPU     25.44s WALL (    1518 calls)

     General routines
     calbec       :     40.13s CPU     40.35s WALL (    1912 calls)
     fft          :    165.32s CPU    192.21s WALL (   18532 calls)
     ffts         :    807.61s CPU   1002.48s WALL (  430688 calls)
     fftw         :    115.05s CPU    115.97s WALL (  159640 calls)
     interpolate  :      3.47s CPU      3.95s WALL (     278 calls)
 
     Parallel routines
 
     PWSCF        :  47m26.03s CPU  53m37.99s WALL

 
   This run was terminated on:  15:21:18   1Nov2023            

=------------------------------------------------------------------------------=
   JOB DONE.
=------------------------------------------------------------------------------=
