
     Program PWSCF v.7.2 starts on  1Nov2023 at 20:32:26 

     This program is part of the open-source Quantum ESPRESSO suite
     for quantum simulation of materials; please cite
         "P. Giannozzi et al., J. Phys.:Condens. Matter 21 395502 (2009);
         "P. Giannozzi et al., J. Phys.:Condens. Matter 29 465901 (2017);
         "P. Giannozzi et al., J. Chem. Phys. 152 154105 (2020);
          URL http://www.quantum-espresso.org", 
     in publications or presentations arising from this work. More details at
     http://www.quantum-espresso.org/quote

     Parallel version (MPI & OpenMP), running on      48 processor cores
     Number of MPI processes:                48
     Threads/MPI process:                     1

     MPI processes distributed on     1 nodes
     44141 MiB available memory on the printing compute node when the environment starts
 
     Waiting for input...
     Reading input from standard input
Warning: card &CELL ignored
Warning: card CELL_DYNAMICS = 'BFGS', ignored
Warning: card CELL_DOFREE = '2DXY' ignored
Warning: card / ignored

     Current dimensions of program PWSCF are:
     Max number of different atomic species (ntypx) = 10
     Max number of k-points (npk) =  40000
     Max angular momentum in pseudopotentials (lmaxx) =  4
     file O.pbe-n-kjpaw_psl.0.1.UPF: wavefunction(s)  2P renormalized

     IMPORTANT: XC functional enforced from input :
     Exchange-correlation= RVV10
                           (   1   4  13   4  26   0   0)
     Any further DFT definition will be discarded
     Please, verify this is what you really want


     gamma-point specific algorithms are used
     signal trapping enabled: kill the code with -SIGUSR1 to stop cleanly the simulation 
 
     R & G space division:  proc/nbgrp/npool/nimage =      48
     Subspace diagonalization in iterative solution of the eigenvalue problem:
     one sub-group per band group will be used
     scalapack distributed-memory algorithm (size of sub-group:  2*  2 procs)

 
     Parallelization info
     --------------------
     sticks:   dense  smooth     PW     G-vecs:    dense   smooth      PW
     Min         396     194     47               101632    35090    4376
     Max         398     196     50               101674    35128    4410
     Sum       19091    9389   2349              4879585  1685513  210763
 
     Using Slab Decomposition
 


     bravais-lattice index     =            0
     lattice parameter (alat)  =      17.8707  a.u.
     unit-cell volume          =   17436.2743 (a.u.)^3
     number of atoms/cell      =           36
     number of atomic types    =            3
     number of electrons       =       312.00
     number of Kohn-Sham states=          187
     kinetic-energy cutoff     =      80.0000  Ry
     charge density cutoff     =     650.0000  Ry
     scf convergence threshold =      1.0E-06
     mixing beta               =       0.7000
     number of iterations used =            8  local-TF  mixing
     energy convergence thresh.=      1.0E-04
     force convergence thresh. =      1.0E-02
     Exchange-correlation= RVV10
                           (   1   4  13   4  26   0   0)
     nstep                     =          200


     celldm(1)=  17.870686  celldm(2)=   0.000000  celldm(3)=   0.000000
     celldm(4)=   0.000000  celldm(5)=   0.000000  celldm(6)=   0.000000

     crystal axes: (cart. coord. in units of alat)
               a(1) = (   1.000000   0.000000   0.000000 )  
               a(2) = (   0.000000   1.155671   0.000000 )  
               a(3) = (   0.000000   0.000000   2.643601 )  

     reciprocal axes: (cart. coord. in units 2 pi/alat)
               b(1) = (  1.000000  0.000000  0.000000 )  
               b(2) = (  0.000000  0.865298  0.000000 )  
               b(3) = (  0.000000  0.000000  0.378272 )  


     PseudoPot. # 1 for Mo read from file:
     ../pseudo/Mo_ONCV_PBE-1.0.oncvpsp.upf
     MD5 check sum: 1b5d28e075c9ccadda658a603575cd1f
     Pseudo is Norm-conserving, Zval = 14.0
     Generated using ONCVPSP code by D. R. Hamann
     Using radial grid of 1526 points,  6 beta functions with: 
                l(1) =   0
                l(2) =   0
                l(3) =   1
                l(4) =   1
                l(5) =   2
                l(6) =   2

     PseudoPot. # 2 for S  read from file:
     ../pseudo/s_pbe_v1.4.uspp.F.UPF
     MD5 check sum: 88d86576ff6df21479756cfb9bdac1df
     Pseudo is Ultrasoft + core correction, Zval =  6.0
     Generated by new atomic code, or converted to UPF format
     Using radial grid of  907 points,  6 beta functions with: 
                l(1) =   0
                l(2) =   0
                l(3) =   1
                l(4) =   1
                l(5) =   2
                l(6) =   2
     Q(r) pseudized with  8 coefficients,  rinner =    1.300   1.300   1.300
                                                       1.300   1.300

     PseudoPot. # 3 for O  read from file:
     ../pseudo/O.pbe-n-kjpaw_psl.0.1.UPF
     MD5 check sum: 0234752ac141de4415c5fc33072bef88
     Pseudo is Projector augmented-wave + core cor, Zval =  6.0
     Generated using "atomic" code by A. Dal Corso  v.5.0.99 svn rev. 10869
     Shape of augmentation charge: BESSEL
     Using radial grid of 1095 points,  4 beta functions with: 
                l(1) =   0
                l(2) =   0
                l(3) =   1
                l(4) =   1
     Q(r) pseudized with 0 coefficients 


     atomic species   valence    mass     pseudopotential
        Mo            14.00    95.94000     Mo( 1.00)
        S              6.00    32.06500     S ( 1.00)
        O              6.00    15.99940     O ( 1.00)

     No symmetry found



   Cartesian axes

     site n.     atom                  positions (alat units)
         1           Mo  tau(   1) = (   0.6952221   0.1890506   0.2985846  )
         2           S   tau(   2) = (   0.8646417   0.0856217   0.4689279  )
         3           S   tau(   3) = (   0.8663890   0.0857843   0.1351291  )
         4           Mo  tau(   4) = (   0.8560186   0.4753274   0.2873942  )
         5           S   tau(   5) = (   0.6873294   0.3936244   0.4596353  )
         6           S   tau(   6) = (   0.6929804   0.3713468   0.1185692  )
         7           Mo  tau(   7) = (   0.6862796   0.7633098   0.2825370  )
         8           S   tau(   8) = (   0.8545980   0.6708292   0.4486168  )
         9           S   tau(   9) = (   0.8545123   0.6666874   0.1146125  )
        10           Mo  tau(  10) = (   0.8629403   1.0471007   0.3006803  )
        11           S   tau(  11) = (   0.6868280   0.9456650   0.4634891  )
        12           S   tau(  12) = (   0.6998113   0.9568511   0.1205389  )
        13           Mo  tau(  13) = (   0.3618216   0.1847309   0.2935964  )
        14           S   tau(  14) = (   0.5260962   0.0863870   0.4600448  )
        15           S   tau(  15) = (   0.5348379   0.0894875   0.1297123  )
        16           Mo  tau(  16) = (   0.5265817   0.4772436   0.2784130  )
        17           S   tau(  17) = (   0.3624753   0.3882513   0.4525556  )
        18           S   tau(  18) = (   0.3635411   0.3752055   0.1119148  )
        19           Mo  tau(  19) = (   0.3652268   0.7630864   0.2781795  )
        20           S   tau(  20) = (   0.5269494   0.6690381   0.1096838  )
        21           Mo  tau(  21) = (   0.5300192   1.0470394   0.2900995  )
        22           S   tau(  22) = (   0.3670346   0.9457522   0.4574073  )
        23           S   tau(  23) = (   0.3604225   0.9585725   0.1159032  )
        24           Mo  tau(  24) = (   0.0313099   0.1847895   0.3013130  )
        25           S   tau(  25) = (   0.1956761   0.0838230   0.4650863  )
        26           S   tau(  26) = (   0.1967693   0.0903508   0.1278874  )
        27           Mo  tau(  27) = (   0.1967578   0.4753919   0.2813011  )
        28           S   tau(  28) = (   0.0287851   0.3864324   0.4586755  )
        29           S   tau(  29) = (   0.0244514   0.3729871   0.1239344  )
        30           Mo  tau(  30) = (   0.0286728   0.7631204   0.2856894  )
        31           S   tau(  31) = (   0.2011512   0.6675435   0.4465001  )
        32           S   tau(  32) = (   0.1969214   0.6672839   0.1104564  )
        33           Mo  tau(  33) = (   0.1950294   1.0511147   0.2932237  )
        34           S   tau(  34) = (   0.0312912   0.9612169   0.4667423  )
        35           S   tau(  35) = (   0.0292670   0.9563028   0.1216485  )
        36           O   tau(  36) = (   0.3333333   0.8988550   0.5792558  )

     number of k points=     1  Gaussian smearing, width (Ry)=  0.0100
                       cart. coord. in units 2pi/alat
        k(    1) = (   0.0000000   0.0000000   0.0000000), wk =   2.0000000

     Dense  grid:  2439793 G-vectors     FFT dimensions: ( 150, 180, 384)

     Smooth grid:   842757 G-vectors     FFT dimensions: ( 108, 120, 270)

     Estimated max dynamical RAM per process >     269.22 MB

     Estimated total dynamical RAM >      12.62 GB

     Initial potential from superposition of free atoms

     starting charge     311.9873, renormalised to     312.0000

     negative rho (up, down):  2.756E-04 0.000E+00


---------------------------------------------------------------------------------
Carrying out rVV10 run using the following parameters:
Nqs =      20    Nr_points =    1024   r_max =   100.000
b_value =  6.30000    beta =  0.00901
     q_mesh =  0.00010000  0.00030000  0.00058939  0.00100810
               0.00161396  0.00249058  0.00375900  0.00559430
               0.00824984  0.01209221  0.01765183  0.02569619
               0.03733578  0.05417739  0.07854596  0.11380545
               0.16482331  0.23864234  0.34545298  0.50000000

Gradients computed in Reciprocal space

---------------------------------------------------------------------------------


     Starting wfcs are  216 randomized atomic wfcs
     Checking if some PAW data can be deallocated... 

     total cpu time spent up to now is        5.3 secs

     Self-consistent Calculation

     iteration #  1     ecut=    80.00 Ry     beta= 0.70
     Davidson diagonalization with overlap
     ethr =  1.00E-02,  avg # of iterations =  2.0

     Threshold (ethr) on eigenvalues was too large:
     Diagonalizing with lowered threshold

     Davidson diagonalization with overlap
     ethr =  4.52E-04,  avg # of iterations =  4.0

     negative rho (up, down):  3.611E-08 0.000E+00

     total cpu time spent up to now is       19.8 secs

     total energy              =   -2246.22081128 Ry
     estimated scf accuracy    <       1.65593520 Ry

     iteration #  2     ecut=    80.00 Ry     beta= 0.70
     Davidson diagonalization with overlap
     ethr =  5.31E-04,  avg # of iterations =  3.0

     total cpu time spent up to now is       24.3 secs

     total energy              =   -2246.20532180 Ry
     estimated scf accuracy    <       0.55684835 Ry

     iteration #  3     ecut=    80.00 Ry     beta= 0.70
     Davidson diagonalization with overlap
     ethr =  1.78E-04,  avg # of iterations =  2.0

     total cpu time spent up to now is       28.2 secs

     total energy              =   -2246.22549841 Ry
     estimated scf accuracy    <       0.10463719 Ry

     iteration #  4     ecut=    80.00 Ry     beta= 0.70
     Davidson diagonalization with overlap
     c_bands:  1 eigenvalues not converged
     ethr =  3.35E-05,  avg # of iterations = 20.0

     total cpu time spent up to now is       33.2 secs

     total energy              =   -2246.24087661 Ry
     estimated scf accuracy    <       0.02245282 Ry

     iteration #  5     ecut=    80.00 Ry     beta= 0.70
     Davidson diagonalization with overlap
     ethr =  7.20E-06,  avg # of iterations = 11.0

     total cpu time spent up to now is       37.2 secs

     total energy              =   -2246.24024907 Ry
     estimated scf accuracy    <       0.01428603 Ry

     iteration #  6     ecut=    80.00 Ry     beta= 0.70
     Davidson diagonalization with overlap
     ethr =  4.58E-06,  avg # of iterations =  1.0

     total cpu time spent up to now is       40.8 secs

     total energy              =   -2246.23919716 Ry
     estimated scf accuracy    <       0.00938966 Ry

     iteration #  7     ecut=    80.00 Ry     beta= 0.70
     Davidson diagonalization with overlap
     ethr =  3.01E-06,  avg # of iterations =  2.0

     negative rho (up, down):  1.518E-05 0.000E+00

     total cpu time spent up to now is       48.3 secs

     total energy              =   -2246.23830445 Ry
     estimated scf accuracy    <       0.00528003 Ry

     iteration #  8     ecut=    80.00 Ry     beta= 0.70
     Davidson diagonalization with overlap
     ethr =  1.69E-06,  avg # of iterations =  2.0

     negative rho (up, down):  1.504E-02 0.000E+00

     total cpu time spent up to now is       53.9 secs

     total energy              =   -2246.23771165 Ry
     estimated scf accuracy    <       0.00302676 Ry

     iteration #  9     ecut=    80.00 Ry     beta= 0.70
     Davidson diagonalization with overlap
     ethr =  9.70E-07,  avg # of iterations =  2.0

     negative rho (up, down):  2.823E-02 0.000E+00

     total cpu time spent up to now is       59.4 secs

     total energy              =   -2246.23765166 Ry
     estimated scf accuracy    <       0.00155998 Ry

     iteration # 10     ecut=    80.00 Ry     beta= 0.70
     Davidson diagonalization with overlap
     ethr =  5.00E-07,  avg # of iterations =  2.0

     negative rho (up, down):  2.013E-02 0.000E+00

     total cpu time spent up to now is       65.7 secs

     total energy              =   -2246.23766198 Ry
     estimated scf accuracy    <       0.00050906 Ry

     iteration # 11     ecut=    80.00 Ry     beta= 0.70
     Davidson diagonalization with overlap
     ethr =  1.63E-07,  avg # of iterations =  2.0

     negative rho (up, down):  9.292E-03 0.000E+00

     total cpu time spent up to now is       72.7 secs

     total energy              =   -2246.23767166 Ry
     estimated scf accuracy    <       0.00006714 Ry

     iteration # 12     ecut=    80.00 Ry     beta= 0.70
     Davidson diagonalization with overlap
     ethr =  2.15E-08,  avg # of iterations =  8.0

     negative rho (up, down):  3.537E-03 0.000E+00

     total cpu time spent up to now is       80.8 secs

     total energy              =   -2246.23772267 Ry
     estimated scf accuracy    <       0.00002157 Ry

     iteration # 13     ecut=    80.00 Ry     beta= 0.70
     Davidson diagonalization with overlap
     ethr =  6.91E-09,  avg # of iterations =  2.0

     negative rho (up, down):  5.057E-04 0.000E+00

     total cpu time spent up to now is       88.9 secs

     total energy              =   -2246.23772906 Ry
     estimated scf accuracy    <       0.00000457 Ry

     iteration # 14     ecut=    80.00 Ry     beta= 0.70
     Davidson diagonalization with overlap
     ethr =  1.47E-09,  avg # of iterations =  2.0

     negative rho (up, down):  2.274E-04 0.000E+00

     total cpu time spent up to now is       92.4 secs

     End of self-consistent calculation

          k = 0.0000 0.0000 0.0000 (105382 PWs)   bands (ev):

   -62.9421 -62.9289 -62.9222 -62.9105 -62.9015 -62.8952 -62.8652 -62.8498
   -62.8347 -62.8230 -62.7636 -62.6462 -37.2763 -37.2357 -37.1941 -37.1881
   -37.1714 -37.1709 -37.1507 -37.1358 -37.1254 -37.1168 -37.1083 -37.1037
   -37.0853 -37.0819 -37.0733 -37.0677 -37.0608 -37.0496 -37.0405 -37.0117
   -37.0019 -36.9918 -36.9818 -36.9800 -36.9755 -36.9599 -36.9481 -36.9316
   -36.9171 -36.9104 -36.8759 -36.8692 -36.8422 -36.8069 -36.7686 -36.6596
   -26.2378 -15.9844 -15.2068 -15.1560 -14.9873 -14.9334 -14.8149 -14.5351
   -14.4915 -14.4744 -14.4594 -14.4113 -14.3796 -14.3570 -14.2508 -14.1729
   -14.1517 -14.1422 -14.0856 -13.9441 -13.9176 -13.8823 -13.8427 -13.3493
    -9.2286  -9.0765  -8.2720  -7.5854  -7.4763  -7.3284  -7.2843  -7.2748
    -7.1770  -7.1369  -7.0813  -6.8353  -6.8110  -6.7464  -6.6805  -6.6413
    -6.5241  -6.4676  -6.4144  -6.3176  -6.1886  -6.1424  -5.9731  -5.9136
    -5.8467  -5.8344  -5.8007  -5.7745  -5.7090  -5.6841  -5.6344  -5.6161
    -5.5736  -5.5431  -5.4697  -5.3483  -5.3066  -5.2079  -5.1395  -5.0718
    -5.0196  -4.9839  -4.9294  -4.9093  -4.7870  -4.6846  -4.5957  -4.3600
    -4.3104  -4.2798  -4.2585  -4.2035  -4.1220  -4.0126  -3.8987  -3.8319
    -3.8012  -3.7296  -3.6943  -3.6255  -3.5943  -3.5444  -3.5157  -3.4820
    -3.4343  -3.4212  -3.3596  -3.2642  -3.2438  -3.1089  -2.9780  -2.8766
    -2.8315  -2.7618  -2.7378  -2.7129  -2.6890  -2.6679  -2.5821  -2.4084
    -2.3043  -2.0200  -1.9832  -1.9415  -0.8845  -0.8156  -0.2580  -0.2010
    -0.1310  -0.1147  -0.0798   0.0175   0.1225   0.1453   0.2033   0.2562
     0.2602   0.3648   0.3970   0.4573   0.4962   0.5427   0.5926   0.6147
     0.6678   0.7040   0.7180   0.7761   0.8099   0.8520   0.9067   0.9492
     0.9898   1.0536   1.1698

     the Fermi energy is    -1.4124 ev

!    total energy              =   -2246.23772946 Ry
     estimated scf accuracy    <       0.00000060 Ry
     smearing contrib. (-TS)   =      -0.00000000 Ry
     internal energy E=F+TS    =   -2246.23772945 Ry

     The total energy is F=E-TS. E is the sum of the following terms:
     one-electron contribution =  -18437.59766293 Ry
     hartree contribution      =    9206.76528281 Ry
     xc contribution           =    -392.44527063 Ry
     ewald contribution        =    7386.87976410 Ry
     one-center paw contrib.   =      -9.83984281 Ry

     convergence has been achieved in  14 iterations

     negative rho (up, down):  2.274E-04 0.000E+00

     Forces acting on atoms (cartesian axes, Ry/au):

     atom    1 type  1   force =     0.01439680   -0.02681901    0.00555025
     atom    2 type  2   force =    -0.01435741    0.01855281    0.00147873
     atom    3 type  2   force =    -0.01152889    0.01001223   -0.00345133
     atom    4 type  1   force =     0.00419321    0.00324938   -0.00039760
     atom    5 type  2   force =    -0.00164512   -0.00576372   -0.00717172
     atom    6 type  2   force =     0.00094203    0.01124381    0.00099019
     atom    7 type  1   force =     0.00643831   -0.01935367   -0.00810433
     atom    8 type  2   force =     0.00178873   -0.00350610    0.01678933
     atom    9 type  2   force =     0.01077608    0.00735254    0.01045440
     atom   10 type  1   force =    -0.01146322    0.00621132   -0.02383995
     atom   11 type  2   force =     0.00915973   -0.00307746   -0.00766624
     atom   12 type  2   force =     0.00141169   -0.00256956    0.00337768
     atom   13 type  1   force =     0.00265011    0.00594927   -0.00524694
     atom   14 type  2   force =     0.00902422    0.00436839    0.01316517
     atom   15 type  2   force =    -0.01287204    0.00359796   -0.01193325
     atom   16 type  1   force =    -0.00053129    0.01058019    0.00411060
     atom   17 type  2   force =     0.00671526    0.00094525    0.00118500
     atom   18 type  2   force =    -0.00238973   -0.00691511    0.01273994
     atom   19 type  1   force =     0.00287201   -0.01878118   -0.03425743
     atom   20 type  2   force =     0.00868378   -0.00507504    0.00012199
     atom   21 type  1   force =     0.00109215    0.01347307    0.03266724
     atom   22 type  2   force =     0.14142773    0.23078583   -0.81839613
     atom   23 type  2   force =     0.00067224    0.00223201    0.01312264
     atom   24 type  1   force =    -0.01052347   -0.00376977   -0.02272221
     atom   25 type  2   force =     0.01698045    0.01973107    0.00983550
     atom   26 type  2   force =    -0.00904348    0.00384161   -0.00376685
     atom   27 type  1   force =     0.00090606    0.00395353    0.00656362
     atom   28 type  2   force =     0.00085112   -0.00141380   -0.00492144
     atom   29 type  2   force =     0.00281510   -0.00035556   -0.00164733
     atom   30 type  1   force =    -0.00070060    0.01096029   -0.00375951
     atom   31 type  2   force =     0.00368790   -0.00198319    0.01705862
     atom   32 type  2   force =    -0.01225825    0.00654851    0.00839931
     atom   33 type  1   force =     0.00957608   -0.00070680   -0.00891295
     atom   34 type  2   force =     0.00348532   -0.04231943   -0.01156933
     atom   35 type  2   force =    -0.01003439    0.00546952    0.01436650
     atom   36 type  3   force =    -0.16319821   -0.23664919    0.80578784
     The non-local contrib.  to forces
     atom    1 type  1   force =     0.00076721    0.03772633   -0.01256723
     atom    2 type  2   force =    -0.01011329    0.00244960   -0.27294571
     atom    3 type  2   force =    -0.01434785   -0.00494549    0.27306050
     atom    4 type  1   force =     0.00145319    0.00540235    0.00340924
     atom    5 type  2   force =     0.00525686   -0.03285824   -0.25445038
     atom    6 type  2   force =    -0.00067212    0.01134100    0.26283598
     atom    7 type  1   force =    -0.02165223    0.00596590   -0.01918033
     atom    8 type  2   force =     0.00118231   -0.00283165   -0.25680590
     atom    9 type  2   force =     0.00619052   -0.00621451    0.27937398
     atom   10 type  1   force =     0.00902312    0.00507373    0.00152196
     atom   11 type  2   force =     0.00192975    0.01360265   -0.26291822
     atom   12 type  2   force =    -0.00836367   -0.01895742    0.26277311
     atom   13 type  1   force =    -0.00028462    0.01817382   -0.00935312
     atom   14 type  2   force =     0.01131135   -0.01773009   -0.26046233
     atom   15 type  2   force =    -0.01293163   -0.00424163    0.26104041
     atom   16 type  1   force =     0.00202232    0.02652022   -0.02973001
     atom   17 type  2   force =     0.00320491   -0.02945143   -0.25064722
     atom   18 type  2   force =    -0.00260596   -0.00438784    0.27416474
     atom   19 type  1   force =     0.01133499    0.03685705    0.02274520
     atom   20 type  2   force =     0.00415118   -0.02314124    0.26551645
     atom   21 type  1   force =    -0.01318749    0.00060396    0.01918398
     atom   22 type  2   force =     0.09842072    0.12503279   -0.28931781
     atom   23 type  2   force =     0.00738033   -0.01171047    0.27353803
     atom   24 type  1   force =     0.00583942    0.01419031   -0.00720917
     atom   25 type  2   force =     0.01386819   -0.00311240   -0.26091927
     atom   26 type  2   force =    -0.00238217   -0.00842929    0.26107548
     atom   27 type  1   force =    -0.00757215    0.00810929    0.00864495
     atom   28 type  2   force =    -0.00420249   -0.02603422   -0.27557091
     atom   29 type  2   force =     0.00707246    0.00112879    0.26504449
     atom   30 type  1   force =     0.00006779    0.01638630    0.00804344
     atom   31 type  2   force =    -0.01077730   -0.00481261   -0.25318222
     atom   32 type  2   force =    -0.00820705   -0.01143115    0.27388040
     atom   33 type  1   force =     0.02378689    0.00348324    0.02502850
     atom   34 type  2   force =    -0.00827978   -0.03224388   -0.27665822
     atom   35 type  2   force =    -0.00608993   -0.01144522    0.26694414
     atom   36 type  3   force =     0.72528485    1.01200979   -2.08137109
     The ionic contribution  to forces
     atom    1 type  1   force =     0.66285731    0.65777425    4.66363059
     atom    2 type  2   force =    -0.73585684    0.75331344   39.04701536
     atom    3 type  2   force =    -0.18597941    0.15058314  -36.61800249
     atom    4 type  1   force =     0.04004998    0.18141729   -0.34598962
     atom    5 type  2   force =    -0.81774016    1.34097902   38.53310996
     atom    6 type  2   force =     0.39398213   -0.53884580  -38.50814222
     atom    7 type  1   force =    -1.71378072   -3.35411680    0.71576303
     atom    8 type  2   force =    -1.06557887   -0.33974860   37.04971143
     atom    9 type  2   force =     0.32386765   -0.16336686  -38.59390032
     atom   10 type  1   force =    -1.29692969    0.17086880    4.20658892
     atom   11 type  2   force =     0.49672330   -1.40865515   38.55225952
     atom   12 type  2   force =     0.59108224    0.74650189  -38.58178628
     atom   13 type  1   force =     0.55556077    1.84613387    1.42562412
     atom   14 type  2   force =     0.54431843    0.88559917   38.06386494
     atom   15 type  2   force =     0.26671641    0.14323778  -37.45316254
     atom   16 type  1   force =     0.35795679    3.22285280   -0.86341282
     atom   17 type  2   force =     0.85023656    1.20039013   37.62561298
     atom   18 type  2   force =    -0.14875371   -0.70798211  -39.12118937
     atom   19 type  1   force =     3.11850567   -4.22826168   -3.92910549
     atom   20 type  2   force =     0.37104492   -0.40584118  -39.25337214
     atom   21 type  1   force =     1.53861099    1.32223327   -1.89930832
     atom   22 type  2   force =     3.52277706    2.57086251   27.18310957
     atom   23 type  2   force =    -0.04418630    0.77289421  -39.43657375
     atom   24 type  1   force =    -0.91195009    1.65959242    4.73814030
     atom   25 type  2   force =     0.20943559    1.39524203   38.75572463
     atom   26 type  2   force =    -0.37647123    0.29298366  -38.01549907
     atom   27 type  1   force =    -0.29371071   -0.41293904   -3.67275345
     atom   28 type  2   force =    -0.12627675    0.84438955   37.98025668
     atom   29 type  2   force =    -0.32624574   -0.47181062  -37.76060166
     atom   30 type  1   force =    -1.52322717   -1.61863562   -2.17694154
     atom   31 type  2   force =     0.21245981   -1.89232353   36.13208006
     atom   32 type  2   force =    -0.59905844   -0.23904146  -39.45895263
     atom   33 type  1   force =    -0.60312891    0.80290370   -1.63390994
     atom   34 type  2   force =    -1.32423487   -1.05850238   38.56472978
     atom   35 type  2   force =    -0.50001942    0.54037927  -38.61722544
     atom   36 type  3   force =    -1.46305659   -4.66106139   52.70260721
     The local contribution  to forces
     atom    1 type  1   force =    -0.64942717   -0.72240590   -4.64626872
     atom    2 type  2   force =     0.73137579   -0.73723552  -38.79387026
     atom    3 type  2   force =     0.18812509   -0.13586147   36.36241415
     atom    4 type  1   force =    -0.03725529   -0.18324679    0.34134846
     atom    5 type  2   force =     0.81133873   -1.31564364  -38.30670057
     atom    6 type  2   force =    -0.39264577    0.53994274   38.26701632
     atom    7 type  1   force =     1.74174322    3.32903288   -0.70525619
     atom    8 type  2   force =     1.06622874    0.33873702  -36.79703502
     atom    9 type  2   force =    -0.31917708    0.17657754   38.34600310
     atom   10 type  1   force =     1.27641725   -0.17016844   -4.23249751
     atom   11 type  2   force =    -0.48985628    1.39287356  -38.31811741
     atom   12 type  2   force =    -0.58228898   -0.73164917   38.34320370
     atom   13 type  1   force =    -0.55262284   -1.85850576   -1.42219092
     atom   14 type  2   force =    -0.54619076   -0.86432192  -37.81111002
     atom   15 type  2   force =    -0.26739852   -0.13576814   37.20070277
     atom   16 type  1   force =    -0.36070706   -3.23849182    0.89655907
     atom   17 type  2   force =    -0.84666822   -1.17142653  -37.39446490
     atom   18 type  2   force =     0.14899061    0.70602419   38.88070010
     atom   19 type  1   force =    -3.12716961    4.17281846    3.87178553
     atom   20 type  2   force =    -0.36643636    0.42298053   39.00897667
     atom   21 type  1   force =    -1.52457234   -1.30972205    1.91241877
     atom   22 type  2   force =    -3.47302553   -2.45636332  -27.74024465
     atom   23 type  2   force =     0.03807144   -0.76016145   39.19748791
     atom   24 type  1   force =     0.89576528   -1.67767982   -4.75436550
     atom   25 type  2   force =    -0.20582972   -1.37270914  -38.50601010
     atom   26 type  2   force =     0.37004622   -0.28119273   37.77133796
     atom   27 type  1   force =     0.30233225    0.40926509    3.66997424
     atom   28 type  2   force =     0.13111874   -0.82152971  -37.73103525
     atom   29 type  2   force =     0.32258863    0.47102071   37.51440983
     atom   30 type  1   force =     1.52276095    1.61335275    2.16463545
     atom   31 type  2   force =    -0.19847086    1.89505379  -35.88279744
     atom   32 type  2   force =     0.59487878    0.25639007   39.21446246
     atom   33 type  1   force =     0.58915030   -0.80754578    1.59963665
     atom   34 type  2   force =     1.33553797    1.04738453  -38.32132994
     atom   35 type  2   force =     0.49600359   -0.52454993   38.38555203
     atom   36 type  3   force =     0.58070364    3.42097105  -49.83139796
     The core correction contribution to forces
     atom    1 type  1   force =     0.00000000    0.00000000    0.00000000
     atom    2 type  2   force =     0.00026427   -0.00013480    0.02087485
     atom    3 type  2   force =     0.00066332    0.00016429   -0.02103312
     atom    4 type  1   force =     0.00000000    0.00000000    0.00000000
     atom    5 type  2   force =    -0.00056026    0.00186516    0.02045568
     atom    6 type  2   force =     0.00023686   -0.00108492   -0.02088358
     atom    7 type  1   force =     0.00000000    0.00000000    0.00000000
     atom    8 type  2   force =     0.00002443    0.00046439    0.02053164
     atom    9 type  2   force =    -0.00008368    0.00038406   -0.02113650
     atom   10 type  1   force =     0.00000000    0.00000000    0.00000000
     atom   11 type  2   force =     0.00020464   -0.00095375    0.02072512
     atom   12 type  2   force =     0.00092172    0.00145936   -0.02085248
     atom   13 type  1   force =     0.00000000    0.00000000    0.00000000
     atom   14 type  2   force =    -0.00052198    0.00057978    0.02044649
     atom   15 type  2   force =     0.00070027    0.00028008   -0.02056393
     atom   16 type  1   force =     0.00000000    0.00000000    0.00000000
     atom   17 type  2   force =    -0.00007198    0.00158362    0.02030259
     atom   18 type  2   force =    -0.00001228   -0.00045293   -0.02107671
     atom   19 type  1   force =     0.00000000    0.00000000    0.00000000
     atom   20 type  2   force =    -0.00016358    0.00095845   -0.02114571
     atom   21 type  1   force =     0.00000000    0.00000000    0.00000000
     atom   22 type  2   force =    -0.00674177   -0.00879193    0.02770909
     atom   23 type  2   force =    -0.00058799    0.00108266   -0.02127554
     atom   24 type  1   force =     0.00000000    0.00000000    0.00000000
     atom   25 type  2   force =    -0.00040347    0.00005905    0.02067139
     atom   26 type  2   force =    -0.00018300    0.00040323   -0.02074935
     atom   27 type  1   force =     0.00000000    0.00000000    0.00000000
     atom   28 type  2   force =     0.00027984    0.00190450    0.02102644
     atom   29 type  2   force =    -0.00057482   -0.00056651   -0.02065038
     atom   30 type  1   force =     0.00000000    0.00000000    0.00000000
     atom   31 type  2   force =     0.00058676    0.00033042    0.02063161
     atom   32 type  2   force =     0.00019758    0.00069347   -0.02100259
     atom   33 type  1   force =     0.00000000    0.00000000    0.00000000
     atom   34 type  2   force =     0.00065369    0.00091004    0.02135841
     atom   35 type  2   force =     0.00012562    0.00097516   -0.02091350
     atom   36 type  3   force =    -0.00615192   -0.00855381    0.01541031
     The Hubbard contrib.    to forces
     atom    1 type  1   force =     0.00000000    0.00000000    0.00000000
     atom    2 type  2   force =     0.00000000    0.00000000    0.00000000
     atom    3 type  2   force =     0.00000000    0.00000000    0.00000000
     atom    4 type  1   force =     0.00000000    0.00000000    0.00000000
     atom    5 type  2   force =     0.00000000    0.00000000    0.00000000
     atom    6 type  2   force =     0.00000000    0.00000000    0.00000000
     atom    7 type  1   force =     0.00000000    0.00000000    0.00000000
     atom    8 type  2   force =     0.00000000    0.00000000    0.00000000
     atom    9 type  2   force =     0.00000000    0.00000000    0.00000000
     atom   10 type  1   force =     0.00000000    0.00000000    0.00000000
     atom   11 type  2   force =     0.00000000    0.00000000    0.00000000
     atom   12 type  2   force =     0.00000000    0.00000000    0.00000000
     atom   13 type  1   force =     0.00000000    0.00000000    0.00000000
     atom   14 type  2   force =     0.00000000    0.00000000    0.00000000
     atom   15 type  2   force =     0.00000000    0.00000000    0.00000000
     atom   16 type  1   force =     0.00000000    0.00000000    0.00000000
     atom   17 type  2   force =     0.00000000    0.00000000    0.00000000
     atom   18 type  2   force =     0.00000000    0.00000000    0.00000000
     atom   19 type  1   force =     0.00000000    0.00000000    0.00000000
     atom   20 type  2   force =     0.00000000    0.00000000    0.00000000
     atom   21 type  1   force =     0.00000000    0.00000000    0.00000000
     atom   22 type  2   force =     0.00000000    0.00000000    0.00000000
     atom   23 type  2   force =     0.00000000    0.00000000    0.00000000
     atom   24 type  1   force =     0.00000000    0.00000000    0.00000000
     atom   25 type  2   force =     0.00000000    0.00000000    0.00000000
     atom   26 type  2   force =     0.00000000    0.00000000    0.00000000
     atom   27 type  1   force =     0.00000000    0.00000000    0.00000000
     atom   28 type  2   force =     0.00000000    0.00000000    0.00000000
     atom   29 type  2   force =     0.00000000    0.00000000    0.00000000
     atom   30 type  1   force =     0.00000000    0.00000000    0.00000000
     atom   31 type  2   force =     0.00000000    0.00000000    0.00000000
     atom   32 type  2   force =     0.00000000    0.00000000    0.00000000
     atom   33 type  1   force =     0.00000000    0.00000000    0.00000000
     atom   34 type  2   force =     0.00000000    0.00000000    0.00000000
     atom   35 type  2   force =     0.00000000    0.00000000    0.00000000
     atom   36 type  3   force =     0.00000000    0.00000000    0.00000000
     The SCF correction term to forces
     atom    1 type  1   force =     0.00019863    0.00008590    0.00074328
     atom    2 type  2   force =    -0.00002816    0.00015968    0.00039215
     atom    3 type  2   force =     0.00000915    0.00007137    0.00009730
     atom    4 type  1   force =    -0.00005549   -0.00032387    0.00082198
     atom    5 type  2   force =     0.00005889   -0.00010642    0.00040125
     atom    6 type  2   force =     0.00004011   -0.00010962    0.00015135
     atom    7 type  1   force =     0.00012722   -0.00023605    0.00055682
     atom    8 type  2   force =    -0.00006870   -0.00012766    0.00037486
     atom    9 type  2   force =    -0.00002215   -0.00002809    0.00010180
     atom   10 type  1   force =     0.00002529    0.00043683    0.00053434
     atom   11 type  2   force =     0.00015750    0.00005482    0.00037242
     atom   12 type  2   force =     0.00005956    0.00007538    0.00002730
     atom   13 type  1   force =    -0.00000402    0.00014694    0.00066064
     atom   14 type  2   force =     0.00010637    0.00024106    0.00041376
     atom   15 type  2   force =     0.00004061    0.00008946    0.00003770
     atom   16 type  1   force =     0.00019585   -0.00030142    0.00068202
     atom   17 type  2   force =     0.00001319   -0.00015094    0.00036922
     atom   18 type  2   force =    -0.00000921   -0.00011682    0.00012884
     atom   19 type  1   force =     0.00020014   -0.00019540    0.00030500
     atom   20 type  2   force =     0.00008680   -0.00003199    0.00013439
     atom   21 type  1   force =     0.00024017    0.00035748    0.00036048
     atom   22 type  2   force =    -0.00000357    0.00004537    0.00033535
     atom   23 type  2   force =    -0.00000606    0.00012666   -0.00006634
     atom   24 type  1   force =    -0.00017889    0.00012692    0.00069983
     atom   25 type  2   force =    -0.00009096    0.00025113    0.00035651
     atom   26 type  2   force =    -0.00005412    0.00007633    0.00005579
     atom   27 type  1   force =    -0.00014415   -0.00048222    0.00068554
     atom   28 type  2   force =    -0.00006904   -0.00014432    0.00038928
     atom   29 type  2   force =    -0.00002625   -0.00012833    0.00013805
     atom   30 type  1   force =    -0.00030299   -0.00014354    0.00049081
     atom   31 type  2   force =    -0.00011132   -0.00023167    0.00031428
     atom   32 type  2   force =    -0.00006994   -0.00006282   -0.00000067
     atom   33 type  1   force =    -0.00023302    0.00045163    0.00031951
     atom   34 type  2   force =    -0.00019252    0.00013186    0.00031831
     atom   35 type  2   force =    -0.00005506    0.00010984   -0.00000307
     atom   36 type  3   force =     0.00002100   -0.00001523    0.00052703

     Total force =     1.219767     Total SCF correction =     0.002857

     BFGS Geometry Optimization
     Energy error            =      0.0E+00 Ry
     Gradient error          =      8.2E-01 Ry/Bohr

     number of scf cycles    =   1
     number of bfgs steps    =   0

     energy             new  =   -2246.2377294551 Ry

     new trust radius        =       0.5000000000 bohr
     new conv_thr            =       0.0000010000 Ry


ATOMIC_POSITIONS (angstrom)
Mo            6.5789674910        1.7795741627        2.8253466760
S             8.1723023469        0.8153987892        4.4349922465
S             8.1896943059        0.8143149889        1.2768240442
Mo            8.0964496658        4.4960543380        2.7176963505
S             6.4994042899        3.7206423208        4.3444592956
S             6.5536389546        3.5151888321        1.1215841658
Mo            6.4919579280        7.2124966944        2.6693968683
S             8.0822767758        6.3427947997        4.2476150302
S             8.0842253541        6.3069591697        1.0870719648
Mo            8.1571004233        9.9040869708        2.8361441136
S             6.4979791662        8.9419821914        4.3807523891
S             6.6183805149        9.0479224891        1.1409440771
Mo            3.4224731126        1.7487819735        2.7748606185
S             4.9779354673        0.8182820830        4.3545741285
S             5.0538826942        0.8473664982        1.2229955621
Mo            4.9795936035        4.5164255798        2.6341462945
S             3.4299029049        3.6718898304        4.2800733148
S             3.4371870556        3.5461061125        1.0622621942
Mo            3.4547432990        7.2105596739        2.6201615777
S             4.9858996689        6.3253745078        1.0372911755
Mo            5.0125991544        9.9057355966        2.7534281351
S             3.5143692112        9.0145907394        4.0743854673
S             3.4086355081        9.0656750960        1.1000962801
Mo            0.2928603193        1.7463524039        2.8424701495
S             1.8556743454        0.7987504394        4.4012284338
S             1.8580241467        0.8556050965        1.2082446220
Mo            1.8609694234        4.4968802938        2.6622120759
S             0.2724751011        3.6539648609        4.3360734688
S             0.2320952986        3.5271400883        1.1715122377
Mo            0.2709371018        7.2200103443        2.7005424497
S             1.9033702460        6.3121900977        4.2276802471
S             1.8584755573        6.3123538721        1.0471374437
Mo            1.8472860313        9.9399222008        2.7702104324
S             0.2969827135        9.0770079210        4.4103182734
S             0.2736913529        9.0452045785        1.1548105615
O             3.1021598120        8.4276163309        5.7252191713



     Writing config-only to output data dir ./MoS2-V-O.save/
     NEW-OLD atomic charge density approx. for the potential

     negative rho (up, down):  1.856E-04 0.000E+00

     total cpu time spent up to now is       99.9 secs

     Self-consistent Calculation

     iteration #  1     ecut=    80.00 Ry     beta= 0.70
     Davidson diagonalization with overlap
     ethr =  1.00E-06,  avg # of iterations = 17.0

     negative rho (up, down):  6.358E-03 0.000E+00

     total cpu time spent up to now is      113.1 secs

     total energy              =   -2246.27532056 Ry
     estimated scf accuracy    <       0.18811113 Ry

     iteration #  2     ecut=    80.00 Ry     beta= 0.70
     Davidson diagonalization with overlap
     ethr =  6.03E-05,  avg # of iterations =  5.0

     negative rho (up, down):  9.769E-03 0.000E+00

     total cpu time spent up to now is      128.3 secs

     total energy              =   -2246.29452246 Ry
     estimated scf accuracy    <       0.11763166 Ry

     iteration #  3     ecut=    80.00 Ry     beta= 0.70
     Davidson diagonalization with overlap
     ethr =  3.77E-05,  avg # of iterations =  3.0

     negative rho (up, down):  1.813E-02 0.000E+00

     total cpu time spent up to now is      143.4 secs

     total energy              =   -2246.29673514 Ry
     estimated scf accuracy    <       0.02006962 Ry

     iteration #  4     ecut=    80.00 Ry     beta= 0.70
     Davidson diagonalization with overlap
     ethr =  6.43E-06,  avg # of iterations =  4.0

     negative rho (up, down):  1.968E-02 0.000E+00

     total cpu time spent up to now is      155.9 secs

     total energy              =   -2246.29847057 Ry
     estimated scf accuracy    <       0.01328717 Ry

     iteration #  5     ecut=    80.00 Ry     beta= 0.70
     Davidson diagonalization with overlap
     ethr =  4.26E-06,  avg # of iterations =  2.0

     negative rho (up, down):  2.015E-02 0.000E+00

     total cpu time spent up to now is      165.4 secs

     total energy              =   -2246.29808709 Ry
     estimated scf accuracy    <       0.00354840 Ry

     iteration #  6     ecut=    80.00 Ry     beta= 0.70
     Davidson diagonalization with overlap
     ethr =  1.14E-06,  avg # of iterations =  6.0

     negative rho (up, down):  1.807E-02 0.000E+00

     total cpu time spent up to now is      175.8 secs

     total energy              =   -2246.29858526 Ry
     estimated scf accuracy    <       0.00191354 Ry

     iteration #  7     ecut=    80.00 Ry     beta= 0.70
     Davidson diagonalization with overlap
     ethr =  6.13E-07,  avg # of iterations =  4.0

     negative rho (up, down):  1.357E-02 0.000E+00

     total cpu time spent up to now is      184.9 secs

     total energy              =   -2246.29858922 Ry
     estimated scf accuracy    <       0.00021827 Ry

     iteration #  8     ecut=    80.00 Ry     beta= 0.70
     Davidson diagonalization with overlap
     ethr =  7.00E-08,  avg # of iterations =  6.0

     negative rho (up, down):  1.092E-02 0.000E+00

     total cpu time spent up to now is      196.6 secs

     total energy              =   -2246.29859638 Ry
     estimated scf accuracy    <       0.00015318 Ry

     iteration #  9     ecut=    80.00 Ry     beta= 0.70
     Davidson diagonalization with overlap
     ethr =  4.91E-08,  avg # of iterations =  1.0

     negative rho (up, down):  5.921E-03 0.000E+00

     total cpu time spent up to now is      203.3 secs

     total energy              =   -2246.29851047 Ry
     estimated scf accuracy    <       0.00010152 Ry

     iteration # 10     ecut=    80.00 Ry     beta= 0.70
     Davidson diagonalization with overlap
     ethr =  3.25E-08,  avg # of iterations =  3.0

     negative rho (up, down):  3.924E-03 0.000E+00

     total cpu time spent up to now is      213.1 secs

     total energy              =   -2246.29849826 Ry
     estimated scf accuracy    <       0.00001221 Ry

     iteration # 11     ecut=    80.00 Ry     beta= 0.70
     Davidson diagonalization with overlap
     ethr =  3.91E-09,  avg # of iterations =  5.0

     negative rho (up, down):  2.448E-03 0.000E+00

     total cpu time spent up to now is      219.8 secs

     total energy              =   -2246.29848587 Ry
     estimated scf accuracy    <       0.00000859 Ry

     iteration # 12     ecut=    80.00 Ry     beta= 0.70
     Davidson diagonalization with overlap
     ethr =  2.75E-09,  avg # of iterations =  4.0

     negative rho (up, down):  9.245E-04 0.000E+00

     total cpu time spent up to now is      228.3 secs

     total energy              =   -2246.29847634 Ry
     estimated scf accuracy    <       0.00000345 Ry

     iteration # 13     ecut=    80.00 Ry     beta= 0.70
     Davidson diagonalization with overlap
     ethr =  1.11E-09,  avg # of iterations =  2.0

     negative rho (up, down):  1.747E-04 0.000E+00

     total cpu time spent up to now is      231.6 secs

     End of self-consistent calculation

          k = 0.0000 0.0000 0.0000 (105382 PWs)   bands (ev):

   -63.1131 -63.0854 -63.0769 -63.0629 -63.0582 -63.0462 -63.0390 -63.0193
   -63.0043 -62.9930 -62.9755 -62.9284 -37.4980 -37.4369 -37.3753 -37.3622
   -37.3504 -37.3427 -37.3261 -37.3016 -37.2917 -37.2858 -37.2789 -37.2640
   -37.2513 -37.2413 -37.2353 -37.2280 -37.2243 -37.2184 -37.2085 -37.1986
   -37.1837 -37.1769 -37.1547 -37.1485 -37.1434 -37.1338 -37.1324 -37.1299
   -37.1158 -37.0870 -37.0835 -37.0777 -37.0541 -37.0261 -36.9688 -36.9048
   -19.2277 -16.1755 -15.4476 -15.3208 -15.1781 -15.1300 -14.9766 -14.7471
   -14.6581 -14.6329 -14.6286 -14.6019 -14.5551 -14.5185 -14.4888 -14.3798
   -14.3239 -14.3029 -14.2804 -14.2469 -14.0732 -14.0574 -14.0339 -14.0198
    -7.9967  -7.8820  -7.7483  -7.6163  -7.5510  -7.4820  -7.4430  -7.3507
    -7.2895  -7.0788  -7.0327  -6.9757  -6.9289  -6.7940  -6.7596  -6.6967
    -6.6404  -6.5125  -6.5084  -6.4680  -6.2161  -6.1845  -6.1089  -6.0558
    -5.9970  -5.9775  -5.9452  -5.9082  -5.8789  -5.8581  -5.7678  -5.7309
    -5.6992  -5.6416  -5.5814  -5.4387  -5.3819  -5.2878  -5.2298  -5.1891
    -5.1835  -5.1193  -5.0719  -4.9315  -4.8409  -4.7174  -4.5946  -4.5451
    -4.4339  -4.4301  -4.2994  -4.1876  -4.1095  -4.0623  -3.9961  -3.9571
    -3.9149  -3.8513  -3.8018  -3.7637  -3.7439  -3.7177  -3.6954  -3.6489
    -3.6023  -3.5899  -3.4224  -3.3335  -3.1891  -3.1693  -3.0988  -3.0194
    -3.0100  -2.9391  -2.8953  -2.8672  -2.8602  -2.8005  -2.4829  -2.4432
    -2.3465  -2.1892  -2.1708  -1.9901  -1.0306  -0.9724  -0.5584  -0.3985
    -0.3232  -0.2769  -0.2435  -0.1269  -0.0575  -0.0264   0.0347   0.0675
     0.1061   0.1962   0.2225   0.2925   0.3246   0.3606   0.3935   0.4596
     0.5051   0.5070   0.5672   0.6030   0.6355   0.6812   0.7265   0.7644
     0.8308   0.8889   1.0001

     the Fermi energy is    -1.5107 ev

!    total energy              =   -2246.29847348 Ry
     estimated scf accuracy    <       0.00000087 Ry
     smearing contrib. (-TS)   =      -0.00000005 Ry
     internal energy E=F+TS    =   -2246.29847343 Ry

     The total energy is F=E-TS. E is the sum of the following terms:
     one-electron contribution =  -18416.83418660 Ry
     hartree contribution      =    9195.18475962 Ry
     xc contribution           =    -392.00140723 Ry
     ewald contribution        =    7377.22342953 Ry
     one-center paw contrib.   =      -9.87106874 Ry

     convergence has been achieved in  13 iterations

     negative rho (up, down):  1.747E-04 0.000E+00

     Forces acting on atoms (cartesian axes, Ry/au):

     atom    1 type  1   force =     0.00544320   -0.01736345   -0.00012362
     atom    2 type  2   force =    -0.01040145    0.01408995    0.00196120
     atom    3 type  2   force =    -0.01123440    0.00812252   -0.00686137
     atom    4 type  1   force =     0.00450999    0.00271506    0.00036836
     atom    5 type  2   force =    -0.00016836   -0.00574849   -0.00558544
     atom    6 type  2   force =     0.00080075    0.00871281    0.00210250
     atom    7 type  1   force =     0.00706782   -0.01854897   -0.00490500
     atom    8 type  2   force =     0.00262963   -0.00396017    0.01551056
     atom    9 type  2   force =     0.00993555    0.00564504    0.00781140
     atom   10 type  1   force =    -0.00886286    0.00567959   -0.01896917
     atom   11 type  2   force =     0.00745785   -0.00554593   -0.00493587
     atom   12 type  2   force =     0.00072500   -0.00359972    0.00227593
     atom   13 type  1   force =     0.00325331    0.00439783   -0.00548588
     atom   14 type  2   force =     0.00754770    0.00618650    0.01558852
     atom   15 type  2   force =    -0.01042201    0.00487590   -0.00889493
     atom   16 type  1   force =     0.00259365    0.00805371    0.00250211
     atom   17 type  2   force =     0.00605561    0.00149119    0.00226056
     atom   18 type  2   force =    -0.00265577   -0.00509214    0.01106033
     atom   19 type  1   force =     0.00021269   -0.04116486   -0.03893485
     atom   20 type  2   force =     0.00710401   -0.00708883   -0.00271705
     atom   21 type  1   force =     0.07116748    0.05552501   -0.05365053
     atom   22 type  2   force =    -0.12637533   -0.12906455    0.27470531
     atom   23 type  2   force =     0.00068635    0.00273852   -0.00634196
     atom   24 type  1   force =    -0.00633872   -0.00214403   -0.01580838
     atom   25 type  2   force =     0.01299944    0.01584088    0.00758562
     atom   26 type  2   force =    -0.00868773    0.00270292   -0.00383628
     atom   27 type  1   force =    -0.00278388    0.00103351    0.00323476
     atom   28 type  2   force =     0.00091111   -0.00115596   -0.00440957
     atom   29 type  2   force =     0.00250125    0.00043814   -0.00276671
     atom   30 type  1   force =     0.00003392    0.00703493    0.00131463
     atom   31 type  2   force =     0.00724936    0.00702985    0.01668402
     atom   32 type  2   force =    -0.01007329    0.00478566    0.00559387
     atom   33 type  1   force =    -0.02377523    0.02237157   -0.03940942
     atom   34 type  2   force =     0.00624705   -0.03680051   -0.01182175
     atom   35 type  2   force =    -0.00947950    0.00622241    0.01144839
     atom   36 type  3   force =     0.06412580    0.08158411   -0.14655029
     The non-local contrib.  to forces
     atom    1 type  1   force =     0.00235233    0.03653626   -0.01035019
     atom    2 type  2   force =    -0.00805323   -0.00047222   -0.27522981
     atom    3 type  2   force =    -0.01302620   -0.00607747    0.26998497
     atom    4 type  1   force =     0.00180519    0.00706496    0.00439207
     atom    5 type  2   force =     0.00587946   -0.03338132   -0.25824689
     atom    6 type  2   force =    -0.00133337    0.00921549    0.26515245
     atom    7 type  1   force =    -0.01939862    0.00506645   -0.01837867
     atom    8 type  2   force =     0.00268841   -0.00212378   -0.26146940
     atom    9 type  2   force =     0.00481928   -0.00711351    0.27808164
     atom   10 type  1   force =     0.01094784   -0.00029427    0.00337975
     atom   11 type  2   force =     0.00676290    0.01229166   -0.26769314
     atom   12 type  2   force =    -0.00900567   -0.02228454    0.26176036
     atom   13 type  1   force =    -0.00103380    0.02331755   -0.00919577
     atom   14 type  2   force =     0.01177603   -0.01385062   -0.26818869
     atom   15 type  2   force =    -0.01315094   -0.00263999    0.26066499
     atom   16 type  1   force =    -0.00017257    0.02879614   -0.02745522
     atom   17 type  2   force =     0.00303782   -0.03063016   -0.25287347
     atom   18 type  2   force =    -0.00136845   -0.00320463    0.27378039
     atom   19 type  1   force =     0.01055659    0.01491388    0.00117592
     atom   20 type  2   force =     0.00094288   -0.02102343    0.26368441
     atom   21 type  1   force =    -0.01153241    0.00397146    0.01684009
     atom   22 type  2   force =    -0.09002718   -0.13206156    0.44319763
     atom   23 type  2   force =     0.00765010   -0.01401015    0.27047355
     atom   24 type  1   force =     0.00486632    0.01601255   -0.00709401
     atom   25 type  2   force =     0.00986175   -0.00090970   -0.27185484
     atom   26 type  2   force =    -0.00073872   -0.01190021    0.26197018
     atom   27 type  1   force =    -0.00718637    0.01322353    0.01061619
     atom   28 type  2   force =    -0.00410318   -0.02538877   -0.27881171
     atom   29 type  2   force =     0.00662270    0.00130452    0.26526391
     atom   30 type  1   force =    -0.00046198    0.01521013    0.00998549
     atom   31 type  2   force =    -0.01385847    0.00575698   -0.26255551
     atom   32 type  2   force =    -0.00326448   -0.00860813    0.27229127
     atom   33 type  1   force =     0.00639120    0.00816330    0.01705250
     atom   34 type  2   force =    -0.01074816   -0.02871144   -0.28588812
     atom   35 type  2   force =    -0.00302127   -0.01162562    0.26405381
     atom   36 type  3   force =     0.38489790    0.59450647   -1.41233510
     The ionic contribution  to forces
     atom    1 type  1   force =     0.53973408    0.90120589    4.74709413
     atom    2 type  2   force =    -0.60171504    0.66328002   39.11840993
     atom    3 type  2   force =    -0.17360374    0.15600354  -36.67620650
     atom    4 type  1   force =     0.03601754    0.15312027   -0.26812249
     atom    5 type  2   force =    -0.82187293    1.33934671   38.49110216
     atom    6 type  2   force =     0.37200682   -0.56926232  -38.43677378
     atom    7 type  1   force =    -1.73811347   -3.26596834    0.84549346
     atom    8 type  2   force =    -1.06083333   -0.30951683   37.12786568
     atom    9 type  2   force =     0.34254193   -0.18752079  -38.56478618
     atom   10 type  1   force =    -1.09120772    0.12235817    4.13558364
     atom   11 type  2   force =     0.41987356   -1.50209118   38.66707931
     atom   12 type  2   force =     0.54792725    0.72226587  -38.55431586
     atom   13 type  1   force =     0.51110001    1.94086397    1.48792926
     atom   14 type  2   force =     0.47310676    0.90875166   38.26740738
     atom   15 type  2   force =     0.29659837    0.18223497  -37.50042221
     atom   16 type  1   force =     0.37362523    3.13446937   -0.67457515
     atom   17 type  2   force =     0.84348575    1.20686726   37.64538470
     atom   18 type  2   force =    -0.14128487   -0.67844215  -39.06352132
     atom   19 type  1   force =     2.90249125   -4.73985868   -3.77637925
     atom   20 type  2   force =     0.39659305   -0.44092722  -39.28951252
     atom   21 type  1   force =     2.70894704    1.74873249   -1.74840094
     atom   22 type  2   force =     1.27703296   -0.19712960   30.78949960
     atom   23 type  2   force =    -0.02372996    0.76849680  -39.59897877
     atom   24 type  1   force =    -0.78413941    1.59347931    4.61152502
     atom   25 type  2   force =     0.15865490    1.25088855   38.85387536
     atom   26 type  2   force =    -0.37960999    0.31747839  -38.00511784
     atom   27 type  1   force =    -0.30679205   -0.37558210   -3.44746390
     atom   28 type  2   force =    -0.11263322    0.80496459   37.96546111
     atom   29 type  2   force =    -0.31221289   -0.43020523  -37.74736091
     atom   30 type  1   force =    -1.40043591   -1.64754015   -1.96297717
     atom   31 type  2   force =     0.38391145   -1.60006965   36.18558158
     atom   32 type  2   force =    -0.64034738   -0.29099217  -39.42266209
     atom   33 type  1   force =    -1.53438001    1.02519097   -1.32317286
     atom   34 type  2   force =    -1.12754583   -0.97339911   38.54589521
     atom   35 type  2   force =    -0.49226842    0.54087931  -38.55433195
     atom   36 type  3   force =     0.15907821   -2.27237259   47.12989415
     The local contribution  to forces
     atom    1 type  1   force =    -0.53687486   -0.95525200   -4.73738615
     atom    2 type  2   force =     0.59913258   -0.64881188  -38.86225892
     atom    3 type  2   force =     0.17479094   -0.14209029   36.41983193
     atom    4 type  1   force =    -0.03331716   -0.15731870    0.26355724
     atom    5 type  2   force =     0.81636539   -1.31353816  -38.25908218
     atom    6 type  2   force =    -0.37016329    0.56978530   38.19414080
     atom    7 type  1   force =     1.76446788    3.24258161   -0.83239604
     atom    8 type  2   force =     1.06080731    0.30736479  -36.87167106
     atom    9 type  2   force =    -0.33742862    0.19992588   38.31514493
     atom   10 type  1   force =     1.07137904   -0.11661774   -4.15827551
     atom   11 type  2   force =    -0.41906326    1.48519899  -38.42550158
     atom   12 type  2   force =    -0.53912937   -0.70516777   38.31522540
     atom   13 type  1   force =    -0.50678904   -1.95997135   -1.48468845
     atom   14 type  2   force =    -0.47677449   -0.88926920  -38.00458371
     atom   15 type  2   force =    -0.29460267   -0.17499630   37.25097454
     atom   16 type  1   force =    -0.37093875   -3.15506981    0.70398489
     atom   17 type  2   force =    -0.84038805   -1.17634886  -37.41071174
     atom   18 type  2   force =     0.14006505    0.67705299   38.82135459
     atom   19 type  1   force =    -2.91286123    4.68389370    3.73581371
     atom   20 type  2   force =    -0.39053683    0.45408041   39.04377412
     atom   21 type  1   force =    -2.62617105   -1.69728306    1.67745129
     atom   22 type  2   force =    -1.31807265    0.19312992  -30.94285199
     atom   23 type  2   force =     0.01732819   -0.75299698   39.34279028
     atom   24 type  1   force =     0.77313758   -1.61180337   -4.62073363
     atom   25 type  2   force =    -0.15526953   -1.23408698  -38.59573511
     atom   26 type  2   force =     0.37190582   -0.30355280   37.75966568
     atom   27 type  1   force =     0.31128098    0.36358195    3.43949264
     atom   28 type  2   force =     0.11742063   -0.78252589  -37.71226436
     atom   29 type  2   force =     0.30865485    0.42988978   37.49944646
     atom   30 type  1   force =     1.40103600    1.63949550    1.95395475
     atom   31 type  2   force =    -0.36379620    1.60110707  -35.92776287
     atom   32 type  2   force =     0.63371658    0.30391263   39.17649026
     atom   33 type  1   force =     1.50417855   -1.01105748    1.26630192
     atom   34 type  2   force =     1.14343090    0.96455499  -38.29384873
     atom   35 type  2   force =     0.48585426   -0.52400173   38.32214414
     atom   36 type  3   force =    -0.47545389    1.76615556  -45.87929856
     The core correction contribution to forces
     atom    1 type  1   force =     0.00000000    0.00000000    0.00000000
     atom    2 type  2   force =     0.00024721   -0.00004286    0.02108366
     atom    3 type  2   force =     0.00059514    0.00023199   -0.02096821
     atom    4 type  1   force =     0.00000000    0.00000000    0.00000000
     atom    5 type  2   force =    -0.00060534    0.00188244    0.02065857
     atom    6 type  2   force =     0.00025457   -0.00101882   -0.02093589
     atom    7 type  1   force =     0.00000000    0.00000000    0.00000000
     atom    8 type  2   force =    -0.00003476    0.00044521    0.02082317
     atom    9 type  2   force =     0.00000881    0.00039888   -0.02111111
     atom   10 type  1   force =     0.00000000    0.00000000    0.00000000
     atom   11 type  2   force =    -0.00018578   -0.00099322    0.02126420
     atom   12 type  2   force =     0.00088343    0.00159496   -0.02079348
     atom   13 type  1   force =     0.00000000    0.00000000    0.00000000
     atom   14 type  2   force =    -0.00061453    0.00040562    0.02102280
     atom   15 type  2   force =     0.00073063    0.00021452   -0.02055073
     atom   16 type  1   force =     0.00000000    0.00000000    0.00000000
     atom   17 type  2   force =    -0.00006852    0.00166626    0.02049340
     atom   18 type  2   force =    -0.00006911   -0.00047603   -0.02107155
     atom   19 type  1   force =     0.00000000    0.00000000    0.00000000
     atom   20 type  2   force =     0.00008033    0.00081183   -0.02114834
     atom   21 type  1   force =     0.00000000    0.00000000    0.00000000
     atom   22 type  2   force =     0.00467297    0.00690027   -0.01484192
     atom   23 type  2   force =    -0.00052486    0.00124537   -0.02104341
     atom   24 type  1   force =     0.00000000    0.00000000    0.00000000
     atom   25 type  2   force =    -0.00020486   -0.00017977    0.02136788
     atom   26 type  2   force =    -0.00023491    0.00062924   -0.02081395
     atom   27 type  1   force =     0.00000000    0.00000000    0.00000000
     atom   28 type  2   force =     0.00028243    0.00184149    0.02122744
     atom   29 type  2   force =    -0.00053332   -0.00053646   -0.02065457
     atom   30 type  1   force =     0.00000000    0.00000000    0.00000000
     atom   31 type  2   force =     0.00104577    0.00038671    0.02154207
     atom   32 type  2   force =    -0.00016168    0.00048670   -0.02098603
     atom   33 type  1   force =     0.00000000    0.00000000    0.00000000
     atom   34 type  2   force =     0.00117474    0.00070843    0.02213697
     atom   35 type  2   force =    -0.00003389    0.00096055   -0.02083694
     atom   36 type  3   force =    -0.00443898   -0.00686775    0.01587183
     The Hubbard contrib.    to forces
     atom    1 type  1   force =     0.00000000    0.00000000    0.00000000
     atom    2 type  2   force =     0.00000000    0.00000000    0.00000000
     atom    3 type  2   force =     0.00000000    0.00000000    0.00000000
     atom    4 type  1   force =     0.00000000    0.00000000    0.00000000
     atom    5 type  2   force =     0.00000000    0.00000000    0.00000000
     atom    6 type  2   force =     0.00000000    0.00000000    0.00000000
     atom    7 type  1   force =     0.00000000    0.00000000    0.00000000
     atom    8 type  2   force =     0.00000000    0.00000000    0.00000000
     atom    9 type  2   force =     0.00000000    0.00000000    0.00000000
     atom   10 type  1   force =     0.00000000    0.00000000    0.00000000
     atom   11 type  2   force =     0.00000000    0.00000000    0.00000000
     atom   12 type  2   force =     0.00000000    0.00000000    0.00000000
     atom   13 type  1   force =     0.00000000    0.00000000    0.00000000
     atom   14 type  2   force =     0.00000000    0.00000000    0.00000000
     atom   15 type  2   force =     0.00000000    0.00000000    0.00000000
     atom   16 type  1   force =     0.00000000    0.00000000    0.00000000
     atom   17 type  2   force =     0.00000000    0.00000000    0.00000000
     atom   18 type  2   force =     0.00000000    0.00000000    0.00000000
     atom   19 type  1   force =     0.00000000    0.00000000    0.00000000
     atom   20 type  2   force =     0.00000000    0.00000000    0.00000000
     atom   21 type  1   force =     0.00000000    0.00000000    0.00000000
     atom   22 type  2   force =     0.00000000    0.00000000    0.00000000
     atom   23 type  2   force =     0.00000000    0.00000000    0.00000000
     atom   24 type  1   force =     0.00000000    0.00000000    0.00000000
     atom   25 type  2   force =     0.00000000    0.00000000    0.00000000
     atom   26 type  2   force =     0.00000000    0.00000000    0.00000000
     atom   27 type  1   force =     0.00000000    0.00000000    0.00000000
     atom   28 type  2   force =     0.00000000    0.00000000    0.00000000
     atom   29 type  2   force =     0.00000000    0.00000000    0.00000000
     atom   30 type  1   force =     0.00000000    0.00000000    0.00000000
     atom   31 type  2   force =     0.00000000    0.00000000    0.00000000
     atom   32 type  2   force =     0.00000000    0.00000000    0.00000000
     atom   33 type  1   force =     0.00000000    0.00000000    0.00000000
     atom   34 type  2   force =     0.00000000    0.00000000    0.00000000
     atom   35 type  2   force =     0.00000000    0.00000000    0.00000000
     atom   36 type  3   force =     0.00000000    0.00000000    0.00000000
     The SCF correction term to forces
     atom    1 type  1   force =     0.00023058    0.00014566    0.00050273
     atom    2 type  2   force =    -0.00001404    0.00013614   -0.00005952
     atom    3 type  2   force =     0.00000838    0.00005400    0.00048058
     atom    4 type  1   force =     0.00000335   -0.00015221    0.00052568
     atom    5 type  2   force =     0.00006399   -0.00005891   -0.00003294
     atom    6 type  2   force =     0.00003496   -0.00000759    0.00050306
     atom    7 type  1   force =     0.00011096   -0.00022942    0.00036039
     atom    8 type  2   force =     0.00000092   -0.00013031   -0.00005368
     atom    9 type  2   force =    -0.00000693   -0.00004616    0.00046626
     atom   10 type  1   force =     0.00001691    0.00023268    0.00032709
     atom   11 type  2   force =     0.00006936    0.00004708   -0.00010051
     atom   12 type  2   force =     0.00004829   -0.00000898    0.00038366
     atom   13 type  1   force =    -0.00002494    0.00018692    0.00045322
     atom   14 type  2   force =     0.00005286    0.00014830   -0.00008511
     atom   15 type  2   force =     0.00000152    0.00006196    0.00042263
     atom   16 type  1   force =     0.00007867   -0.00014274    0.00053174
     atom   17 type  2   force =    -0.00001247   -0.00006405   -0.00004819
     atom   18 type  2   force =     0.00000054   -0.00002306    0.00050237
     atom   19 type  1   force =     0.00002501   -0.00011450    0.00043890
     atom   20 type  2   force =     0.00002350   -0.00003115    0.00046943
     atom   21 type  1   force =    -0.00007716    0.00010337    0.00044318
     atom   22 type  2   force =     0.00001751    0.00009568   -0.00031387
     atom   23 type  2   force =    -0.00003820    0.00000273    0.00040054
     atom   24 type  1   force =    -0.00020428    0.00016673    0.00047839
     atom   25 type  2   force =    -0.00004389    0.00012804   -0.00008352
     atom   26 type  2   force =    -0.00001100    0.00004755    0.00044380
     atom   27 type  1   force =    -0.00008751   -0.00019062    0.00057398
     atom   28 type  2   force =    -0.00005663   -0.00004811   -0.00003790
     atom   29 type  2   force =    -0.00003117   -0.00001522    0.00052254
     atom   30 type  1   force =    -0.00010526   -0.00013129    0.00033572
     atom   31 type  2   force =    -0.00005427   -0.00015201   -0.00013710
     atom   32 type  2   force =    -0.00001740   -0.00001411    0.00044461
     atom   33 type  1   force =     0.00003397    0.00007404    0.00039316
     atom   34 type  2   force =    -0.00006567    0.00004588   -0.00013294
     atom   35 type  2   force =    -0.00001125    0.00000916    0.00040348
     atom   36 type  3   force =     0.00004149    0.00016168   -0.00069846

     Total force =     0.405052     Total SCF correction =     0.002504
     Energy error            =      6.1E-02 Ry
     Gradient error          =      2.7E-01 Ry/Bohr

     number of scf cycles    =   2
     number of bfgs steps    =   1

     energy             old  =   -2246.2377294551 Ry
     energy             new  =   -2246.2984734761 Ry

     CASE: energy            _new < energy            _old

     new trust radius        =       0.1670910071 bohr
     new conv_thr            =       0.0000002747 Ry


ATOMIC_POSITIONS (angstrom)
Mo            6.5820754113        1.7707897655        2.8256235901
S             8.1671411224        0.8223372797        4.4358927708
S             8.1843549896        0.8182744809        1.2737753332
Mo            8.0985673871        4.4973720945        2.7178255584
S             6.4992372182        3.7179182741        4.3417195978
S             6.5540266373        3.5194658669        1.1225143859
Mo            6.4952688406        7.2036621935        2.6668841307
S             8.0834727495        6.3409456571        4.2550382230
S             8.0889816681        6.3097342688        1.0909286122
Mo            8.1527482040        9.9068089145        2.8268701424
S             6.5016126863        8.9395009545        4.3782527590
S             6.6187645597        9.0462781587        1.1420873626
Mo            3.4239785877        1.7509570236        2.7722760012
S             4.9815982273        0.8211052240        4.3618153589
S             5.0488007716        0.8496007256        1.2186022573
Mo            4.9806374886        4.5203901237        2.6354266856
S             3.4328105388        3.6725639497        4.2810805803
S             3.4359447085        3.5435861032        1.0676009474
Mo            3.4550012874        7.1923827310        2.6019941160
S             4.9893583519        6.3221354931        1.0361719311
Mo            5.0421689524        9.9295522421        2.7331167343
S             3.4703375465        8.9747275729        4.1398863837
S             3.4089598081        9.0669424245        1.0982428682
Mo            0.2896101455        1.7452406196        2.8345726938
S             1.8620677580        0.8064845148        4.4049548831
S             1.8538876039        0.8569528369        1.2064314254
Mo            1.8598688319        4.4975425314        2.6639412531
S             0.2729031604        3.6534020196        4.3339543236
S             0.2332987347        3.5273007122        1.1702677894
Mo            0.2709097415        7.2235749880        2.7008651958
S             1.9065938016        6.3149873329        4.2356058643
S             1.8535745007        6.3147251432        1.0499532190
Mo            1.8379952934        9.9491554061        2.7533447462
S             0.2997787431        9.0592486591        4.4047330600
S             0.2691679657        9.0481077101        1.1604063730
O             3.1190963224        8.4474479702        5.7121043802



     Writing config-only to output data dir ./MoS2-V-O.save/
     NEW-OLD atomic charge density approx. for the potential

     negative rho (up, down):  2.063E-04 0.000E+00

     total cpu time spent up to now is      238.8 secs

     Self-consistent Calculation

     iteration #  1     ecut=    80.00 Ry     beta= 0.70
     Davidson diagonalization with overlap
     ethr =  1.00E-06,  avg # of iterations =  9.0

     negative rho (up, down):  7.830E-05 0.000E+00

     total cpu time spent up to now is      253.4 secs

     total energy              =   -2246.36472864 Ry
     estimated scf accuracy    <       0.00979586 Ry

     iteration #  2     ecut=    80.00 Ry     beta= 0.70
     Davidson diagonalization with overlap
     ethr =  3.14E-06,  avg # of iterations =  2.0

     negative rho (up, down):  5.424E-05 0.000E+00

     total cpu time spent up to now is      271.1 secs

     total energy              =   -2246.36484907 Ry
     estimated scf accuracy    <       0.00263893 Ry

     iteration #  3     ecut=    80.00 Ry     beta= 0.70
     Davidson diagonalization with overlap
     ethr =  8.46E-07,  avg # of iterations =  2.0

     negative rho (up, down):  5.264E-05 0.000E+00

     total cpu time spent up to now is      287.7 secs

     total energy              =   -2246.36485638 Ry
     estimated scf accuracy    <       0.00063483 Ry

     iteration #  4     ecut=    80.00 Ry     beta= 0.70
     Davidson diagonalization with overlap
     ethr =  2.03E-07,  avg # of iterations = 10.0

     negative rho (up, down):  4.502E-05 0.000E+00

     total cpu time spent up to now is      301.5 secs

     total energy              =   -2246.36493822 Ry
     estimated scf accuracy    <       0.00008433 Ry

     iteration #  5     ecut=    80.00 Ry     beta= 0.70
     Davidson diagonalization with overlap
     ethr =  2.70E-08,  avg # of iterations =  4.0

     negative rho (up, down):  3.459E-05 0.000E+00

     total cpu time spent up to now is      315.1 secs

     total energy              =   -2246.36494840 Ry
     estimated scf accuracy    <       0.00002540 Ry

     iteration #  6     ecut=    80.00 Ry     beta= 0.70
     Davidson diagonalization with overlap
     ethr =  8.14E-09,  avg # of iterations =  5.0

     negative rho (up, down):  2.528E-05 0.000E+00

     total cpu time spent up to now is      327.3 secs

     total energy              =   -2246.36495214 Ry
     estimated scf accuracy    <       0.00000841 Ry

     iteration #  7     ecut=    80.00 Ry     beta= 0.70
     Davidson diagonalization with overlap
     ethr =  2.69E-09,  avg # of iterations =  5.0

     negative rho (up, down):  1.723E-05 0.000E+00

     total cpu time spent up to now is      338.6 secs

     total energy              =   -2246.36495549 Ry
     estimated scf accuracy    <       0.00000280 Ry

     iteration #  8     ecut=    80.00 Ry     beta= 0.70
     Davidson diagonalization with overlap
     ethr =  8.97E-10,  avg # of iterations =  5.0

     negative rho (up, down):  2.291E-05 0.000E+00

     total cpu time spent up to now is      348.5 secs

     total energy              =   -2246.36495727 Ry
     estimated scf accuracy    <       0.00000082 Ry

     iteration #  9     ecut=    80.00 Ry     beta= 0.70
     Davidson diagonalization with overlap
     ethr =  2.63E-10,  avg # of iterations =  4.0

     negative rho (up, down):  4.656E-05 0.000E+00

     total cpu time spent up to now is      360.0 secs

     total energy              =   -2246.36495818 Ry
     estimated scf accuracy    <       0.00000030 Ry

     iteration # 10     ecut=    80.00 Ry     beta= 0.70
     Davidson diagonalization with overlap
     ethr =  9.58E-11,  avg # of iterations =  4.0

     negative rho (up, down):  1.747E-04 0.000E+00

     total cpu time spent up to now is      363.5 secs

     End of self-consistent calculation

          k = 0.0000 0.0000 0.0000 (105382 PWs)   bands (ev):

   -63.0939 -63.0629 -63.0521 -63.0429 -63.0347 -63.0259 -63.0158 -63.0002
   -62.9847 -62.9732 -62.9662 -62.9131 -37.4371 -37.3929 -37.3411 -37.3374
   -37.3317 -37.3212 -37.2978 -37.2809 -37.2696 -37.2629 -37.2532 -37.2367
   -37.2313 -37.2214 -37.2128 -37.2053 -37.2022 -37.1984 -37.1887 -37.1775
   -37.1636 -37.1596 -37.1328 -37.1284 -37.1232 -37.1188 -37.1130 -37.1092
   -37.0885 -37.0687 -37.0636 -37.0602 -37.0388 -37.0043 -36.9538 -36.8975
   -20.1642 -16.1437 -15.3802 -15.3078 -15.1385 -15.0988 -14.9476 -14.6849
   -14.6257 -14.6096 -14.6007 -14.5956 -14.5272 -14.4987 -14.4186 -14.3269
   -14.2967 -14.2883 -14.2512 -14.2150 -14.0622 -14.0438 -14.0184 -13.9875
    -7.9440  -7.8158  -7.6699  -7.5769  -7.5171  -7.4631  -7.4226  -7.3545
    -7.2719  -7.0648  -7.0154  -6.9717  -6.9221  -6.7942  -6.7546  -6.6824
    -6.6376  -6.5382  -6.4949  -6.4609  -6.1953  -6.1795  -6.1057  -6.0270
    -5.9806  -5.9555  -5.9198  -5.8889  -5.8670  -5.8541  -5.7658  -5.7169
    -5.6803  -5.6211  -5.5356  -5.4260  -5.3641  -5.2741  -5.2084  -5.1782
    -5.1549  -5.1071  -5.0742  -4.9267  -4.8144  -4.7138  -4.5809  -4.5250
    -4.4290  -4.4136  -4.3038  -4.1971  -4.0925  -4.0721  -4.0065  -3.9523
    -3.9252  -3.8585  -3.7786  -3.7535  -3.7346  -3.7006  -3.6616  -3.6294
    -3.5763  -3.5726  -3.4103  -3.3234  -3.2144  -3.1683  -3.0780  -3.0291
    -3.0113  -2.9245  -2.8789  -2.8498  -2.8252  -2.7932  -2.6362  -2.4844
    -2.4212  -2.1732  -2.1611  -2.0690  -1.0173  -0.9541  -0.4259  -0.3762
    -0.2959  -0.2674  -0.2063  -0.0940  -0.0337  -0.0118   0.0634   0.1133
     0.1352   0.2086   0.2458   0.3228   0.3559   0.3702   0.4132   0.4742
     0.5225   0.5623   0.5995   0.6318   0.6451   0.7011   0.7633   0.8008
     0.8250   0.8936   0.9987

     the Fermi energy is    -1.5433 ev

!    total energy              =   -2246.36495847 Ry
     estimated scf accuracy    <       0.00000010 Ry
     smearing contrib. (-TS)   =      -0.00000000 Ry
     internal energy E=F+TS    =   -2246.36495847 Ry

     The total energy is F=E-TS. E is the sum of the following terms:
     one-electron contribution =  -18410.28729188 Ry
     hartree contribution      =    9192.11254407 Ry
     xc contribution           =    -392.00241817 Ry
     ewald contribution        =    7373.68020711 Ry
     one-center paw contrib.   =      -9.86799959 Ry

     convergence has been achieved in  10 iterations

     negative rho (up, down):  1.747E-04 0.000E+00

     Forces acting on atoms (cartesian axes, Ry/au):

     atom    1 type  1   force =     0.00093844   -0.00659273   -0.00182132
     atom    2 type  2   force =    -0.00696185    0.00935913   -0.00074685
     atom    3 type  2   force =    -0.00990960    0.00678170   -0.01035391
     atom    4 type  1   force =     0.00481958    0.00235278    0.00111707
     atom    5 type  2   force =     0.00057777   -0.00583950   -0.00542189
     atom    6 type  2   force =     0.00114795    0.00626341    0.00289909
     atom    7 type  1   force =     0.00432349   -0.00964556    0.00097336
     atom    8 type  2   force =     0.00283028   -0.00390234    0.01168568
     atom    9 type  2   force =     0.00995197    0.00437062    0.00500413
     atom   10 type  1   force =    -0.00200141    0.00378255   -0.00571844
     atom   11 type  2   force =     0.00549800   -0.00227875   -0.00945912
     atom   12 type  2   force =     0.00272467   -0.00392730   -0.00360417
     atom   13 type  1   force =     0.00457491    0.00010384    0.00000333
     atom   14 type  2   force =     0.00722080    0.00352747    0.00971798
     atom   15 type  2   force =    -0.00532698    0.00903993   -0.01299802
     atom   16 type  1   force =     0.00084647    0.00520627    0.00214148
     atom   17 type  2   force =     0.00508197    0.00212858    0.00173790
     atom   18 type  2   force =    -0.00154431   -0.00275472    0.00885831
     atom   19 type  1   force =    -0.00223896   -0.02096843   -0.01682141
     atom   20 type  2   force =     0.00923646   -0.00885787   -0.00960523
     atom   21 type  1   force =     0.00209187    0.00911067    0.00390032
     atom   22 type  2   force =    -0.07171160   -0.09384677    0.18770400
     atom   23 type  2   force =     0.00449377    0.00422758   -0.00000031
     atom   24 type  1   force =    -0.00388068   -0.00002722   -0.00710465
     atom   25 type  2   force =     0.00845977    0.01257640   -0.00011793
     atom   26 type  2   force =    -0.00692622    0.00577971   -0.00857267
     atom   27 type  1   force =    -0.00109846    0.00150977    0.00616383
     atom   28 type  2   force =     0.00038541   -0.00233202   -0.00487601
     atom   29 type  2   force =     0.00181976    0.00157725   -0.00331807
     atom   30 type  1   force =     0.00115929    0.00279727    0.00520620
     atom   31 type  2   force =     0.00734406    0.00256097    0.00966538
     atom   32 type  2   force =    -0.01159252    0.00216605   -0.00021251
     atom   33 type  1   force =    -0.01083547    0.00805038   -0.00959454
     atom   34 type  2   force =     0.00198810   -0.02555226   -0.01626212
     atom   35 type  2   force =    -0.00938235    0.00605544    0.00309111
     atom   36 type  3   force =     0.05589562    0.07719771   -0.13326000
     The non-local contrib.  to forces
     atom    1 type  1   force =     0.00262242    0.03102894   -0.01118577
     atom    2 type  2   force =    -0.00533392   -0.00347858   -0.27465443
     atom    3 type  2   force =    -0.01089903   -0.00768988    0.26658660
     atom    4 type  1   force =     0.00204763    0.00684238    0.00379234
     atom    5 type  2   force =     0.00659070   -0.03325102   -0.25881503
     atom    6 type  2   force =    -0.00096197    0.00712175    0.26645244
     atom    7 type  1   force =    -0.01956140    0.00553945   -0.02146646
     atom    8 type  2   force =     0.00349816   -0.00163936   -0.26243240
     atom    9 type  2   force =     0.00476160   -0.00811280    0.27620922
     atom   10 type  1   force =     0.00722354    0.00218794    0.00306132
     atom   11 type  2   force =     0.00781945    0.01171772   -0.26933326
[...]
     atom   28 type  2   force =     0.00075568   -0.01381963   -0.27633159
     atom   29 type  2   force =    -0.00034670   -0.00725603    0.26887102
     atom   30 type  1   force =    -0.00056752    0.02048825    0.00461885
     atom   31 type  2   force =    -0.00114119    0.00715451   -0.27155682
     atom   32 type  2   force =     0.00817032   -0.01567664    0.26858009
     atom   33 type  1   force =     0.00811343    0.00566593    0.01848901
     atom   34 type  2   force =    -0.00107904   -0.00396601   -0.27827545
     atom   35 type  2   force =     0.00055600   -0.01512957    0.26314998
     atom   36 type  3   force =    -0.05031522    0.02174934   -2.31730459
     The ionic contribution  to forces
     atom    1 type  1   force =     0.30187603    1.26831355    1.78751173
     atom    2 type  2   force =    -0.14231503    0.40618002   38.58846741
     atom    3 type  2   force =     0.08537986    0.06265136  -37.85568258
     atom    4 type  1   force =    -0.15904016    0.10066894   -0.25990468
     atom    5 type  2   force =    -0.66844449    1.15444869   38.12340183
     atom    6 type  2   force =     0.29468474   -0.36728640  -38.43453724
     atom    7 type  1   force =    -2.07498586   -2.49632828    1.04579615
     atom    8 type  2   force =    -1.15334595   -0.18561310   37.91582441
     atom    9 type  2   force =     0.34144075   -0.09929229  -38.35201436
     atom   10 type  1   force =    -0.39060165   -0.03524671    2.03420355
     atom   11 type  2   force =     0.63663986   -1.51777877   37.77212177
     atom   12 type  2   force =     0.25561973    0.29387083  -38.66268516
     atom   13 type  1   force =     0.10173078    1.59496839    1.55116787
     atom   14 type  2   force =     0.54464696    1.04876302   38.05407532
     atom   15 type  2   force =     0.03812319    0.08824587  -38.26894506
     atom   16 type  1   force =     0.37257217    2.88949403    0.49372796
     atom   17 type  2   force =     0.82588962    1.07483294   38.05616965
     atom   18 type  2   force =    -0.23145211   -0.39839274  -38.47053949
     atom   19 type  1   force =     2.79705825   -2.77312249   -1.59966514
     atom   20 type  2   force =     0.12625222   -0.09096710  -39.47344281
     atom   21 type  1   force =     1.02127283    0.30453069   -3.04900381
     atom   22 type  2   force =     0.29644023   -1.47590167   28.40249428
     atom   23 type  2   force =    -0.23130913    0.27378375  -38.55344645
     atom   24 type  1   force =    -0.48401516    0.99343676    1.30466590
     atom   25 type  2   force =    -0.34502430    1.10386243   38.34477776
     atom   26 type  2   force =    -0.08968658    0.12585010  -38.26643998
     atom   27 type  1   force =    -0.23054783   -0.27004509   -0.55891788
     atom   28 type  2   force =    -0.12783508    0.48242048   37.92357522
     atom   29 type  2   force =    -0.05400210   -0.12314665  -38.03412282
     atom   30 type  1   force =    -0.61850513   -1.23288691    0.54309830
     atom   31 type  2   force =     0.51600143   -0.91675406   37.64218447
     atom   32 type  2   force =    -0.48253012   -0.09802632  -38.79156469
     atom   33 type  1   force =    -0.61824224    0.25408754   -1.01885430
     atom   34 type  2   force =    -1.00006935   -0.48607381   38.21373025
     atom   35 type  2   force =    -0.08216284    0.12604103  -38.25320451
     atom   36 type  3   force =     0.62848648   -1.07958803   50.10597713
     The local contribution  to forces
     atom    1 type  1   force =    -0.29844935   -1.29327753   -1.78157007
     atom    2 type  2   force =     0.14344779   -0.39444368  -38.33892087
     atom    3 type  2   force =    -0.08296112   -0.05033307   37.60723558
     atom    4 type  1   force =     0.15333655   -0.10586024    0.25779067
     atom    5 type  2   force =     0.66463980   -1.13291878  -37.88720213
     atom    6 type  2   force =    -0.29499871    0.36874495   38.18987142
     atom    7 type  1   force =     2.08906583    2.49047903   -1.02303996
     atom    8 type  2   force =     1.14572159    0.18221745  -37.66857648
     atom    9 type  2   force =    -0.33599039    0.11063331   38.10245824
     atom   10 type  1   force =     0.38880593    0.02857658   -2.04362410
     atom   11 type  2   force =    -0.64119143    1.51091770  -37.52802112
     atom   12 type  2   force =    -0.24788565   -0.27807866   38.41945165
     atom   13 type  1   force =    -0.10506703   -1.61444157   -1.54403186
     atom   14 type  2   force =    -0.54447575   -1.04209570  -37.80235642
     atom   15 type  2   force =    -0.03720413   -0.07886915   38.02743996
     atom   16 type  1   force =    -0.37786791   -2.91726722   -0.45970956
     atom   17 type  2   force =    -0.82124527   -1.05117591  -37.82006750
     atom   18 type  2   force =     0.23158256    0.40160518   38.22373266
     atom   19 type  1   force =    -2.81267625    2.75678940    1.60739093
     atom   20 type  2   force =    -0.12461346    0.10403281   39.23135256
     atom   21 type  1   force =    -1.01268906   -0.31678390    3.02547513
     atom   22 type  2   force =    -0.31399372    1.46560055  -28.69241432
     atom   23 type  2   force =     0.22355986   -0.26003543   38.29976461
     atom   24 type  1   force =     0.48566668   -1.00961071   -1.30736293
     atom   25 type  2   force =     0.34294728   -1.09325721  -38.09392553
     atom   26 type  2   force =     0.08841306   -0.11646313   38.02341452
     atom   27 type  1   force =     0.23772430    0.26547973    0.55722013
     atom   28 type  2   force =     0.12659935   -0.46966678  -37.66702276
     atom   29 type  2   force =     0.05353652    0.13065825   37.78658969
     atom   30 type  1   force =     0.61889589    1.21251223   -0.54723288
     atom   31 type  2   force =    -0.51438734    0.91030761  -37.39255969
     atom   32 type  2   force =     0.47558688    0.11172519   38.54448544
     atom   33 type  1   force =     0.61050515   -0.26026480    1.00064692
     atom   34 type  2   force =     1.00164788    0.49115343  -37.95660279
     atom   35 type  2   force =     0.08221933   -0.11254628   38.01173698
     atom   36 type  3   force =    -0.57975004    1.05881315  -47.81187660
     The core correction contribution to forces
     atom    1 type  1   force =     0.00000000    0.00000000    0.00000000
     atom    2 type  2   force =     0.00004132    0.00052902    0.02101963
     atom    3 type  2   force =     0.00008346    0.00047713   -0.02095050
     atom    4 type  1   force =     0.00000000    0.00000000    0.00000000
     atom    5 type  2   force =    -0.00034711    0.00108590    0.02051996
     atom    6 type  2   force =     0.00019689   -0.00039596   -0.02084621
     atom    7 type  1   force =     0.00000000    0.00000000    0.00000000
     atom    8 type  2   force =    -0.00038335    0.00011385    0.02100494
     atom    9 type  2   force =     0.00063047    0.00067468   -0.02100589
     atom   10 type  1   force =     0.00000000    0.00000000    0.00000000
     atom   11 type  2   force =    -0.00020839   -0.00057419    0.02107064
     atom   12 type  2   force =     0.00063380    0.00106412   -0.02082048
     atom   13 type  1   force =     0.00000000    0.00000000    0.00000000
     atom   14 type  2   force =    -0.00001512   -0.00004614    0.02130081
     atom   15 type  2   force =    -0.00001671    0.00049504   -0.02065559
     atom   16 type  1   force =     0.00000000    0.00000000    0.00000000
     atom   17 type  2   force =     0.00045249    0.00119387    0.02052242
     atom   18 type  2   force =    -0.00018810   -0.00041409   -0.02089215
     atom   19 type  1   force =     0.00000000    0.00000000    0.00000000
     atom   20 type  2   force =     0.00018837    0.00062676   -0.02121445
     atom   21 type  1   force =     0.00000000    0.00000000    0.00000000
     atom   22 type  2   force =    -0.00107741   -0.00075224   -0.00985158
     atom   23 type  2   force =    -0.00070064    0.00099789   -0.02125088
     atom   24 type  1   force =     0.00000000    0.00000000    0.00000000
     atom   25 type  2   force =    -0.00005851    0.00049900    0.02127183
     atom   26 type  2   force =    -0.00003676    0.00047943   -0.02080536
     atom   27 type  1   force =     0.00000000    0.00000000    0.00000000
     atom   28 type  2   force =    -0.00001042    0.00087527    0.02127535
     atom   29 type  2   force =     0.00004142    0.00017033   -0.02086470
     atom   30 type  1   force =     0.00000000    0.00000000    0.00000000
     atom   31 type  2   force =     0.00005764   -0.00005296    0.02130650
     atom   32 type  2   force =    -0.00079285    0.00082432   -0.02100013
     atom   33 type  1   force =     0.00000000    0.00000000    0.00000000
     atom   34 type  2   force =     0.00008154    0.00009027    0.02161330
     atom   35 type  2   force =    -0.00007052    0.00081442   -0.02079456
     atom   36 type  3   force =     0.00052924   -0.00026542    0.02455749
     The Hubbard contrib.    to forces
     atom    1 type  1   force =     0.00000000    0.00000000    0.00000000
     atom    2 type  2   force =     0.00000000    0.00000000    0.00000000
     atom    3 type  2   force =     0.00000000    0.00000000    0.00000000
     atom    4 type  1   force =     0.00000000    0.00000000    0.00000000
     atom    5 type  2   force =     0.00000000    0.00000000    0.00000000
     atom    6 type  2   force =     0.00000000    0.00000000    0.00000000
     atom    7 type  1   force =     0.00000000    0.00000000    0.00000000
     atom    8 type  2   force =     0.00000000    0.00000000    0.00000000
     atom    9 type  2   force =     0.00000000    0.00000000    0.00000000
     atom   10 type  1   force =     0.00000000    0.00000000    0.00000000
     atom   11 type  2   force =     0.00000000    0.00000000    0.00000000
     atom   12 type  2   force =     0.00000000    0.00000000    0.00000000
     atom   13 type  1   force =     0.00000000    0.00000000    0.00000000
     atom   14 type  2   force =     0.00000000    0.00000000    0.00000000
     atom   15 type  2   force =     0.00000000    0.00000000    0.00000000
     atom   16 type  1   force =     0.00000000    0.00000000    0.00000000
     atom   17 type  2   force =     0.00000000    0.00000000    0.00000000
     atom   18 type  2   force =     0.00000000    0.00000000    0.00000000
     atom   19 type  1   force =     0.00000000    0.00000000    0.00000000
     atom   20 type  2   force =     0.00000000    0.00000000    0.00000000
     atom   21 type  1   force =     0.00000000    0.00000000    0.00000000
     atom   22 type  2   force =     0.00000000    0.00000000    0.00000000
     atom   23 type  2   force =     0.00000000    0.00000000    0.00000000
     atom   24 type  1   force =     0.00000000    0.00000000    0.00000000
     atom   25 type  2   force =     0.00000000    0.00000000    0.00000000
     atom   26 type  2   force =     0.00000000    0.00000000    0.00000000
     atom   27 type  1   force =     0.00000000    0.00000000    0.00000000
     atom   28 type  2   force =     0.00000000    0.00000000    0.00000000
     atom   29 type  2   force =     0.00000000    0.00000000    0.00000000
     atom   30 type  1   force =     0.00000000    0.00000000    0.00000000
     atom   31 type  2   force =     0.00000000    0.00000000    0.00000000
     atom   32 type  2   force =     0.00000000    0.00000000    0.00000000
     atom   33 type  1   force =     0.00000000    0.00000000    0.00000000
     atom   34 type  2   force =     0.00000000    0.00000000    0.00000000
     atom   35 type  2   force =     0.00000000    0.00000000    0.00000000
     atom   36 type  3   force =     0.00000000    0.00000000    0.00000000
     The SCF correction term to forces
     atom    1 type  1   force =     0.00000330    0.00003507   -0.00000528
     atom    2 type  2   force =    -0.00001451    0.00000565   -0.00000630
     atom    3 type  2   force =    -0.00000454    0.00000885   -0.00000127
     atom    4 type  1   force =    -0.00001884    0.00002030   -0.00003542
     atom    5 type  2   force =    -0.00000985    0.00000880   -0.00001120
     atom    6 type  2   force =    -0.00000415    0.00001485   -0.00000331
     atom    7 type  1   force =    -0.00002647   -0.00003292   -0.00002374
     atom    8 type  2   force =    -0.00000282    0.00000713   -0.00001523
     atom    9 type  2   force =     0.00000180   -0.00000117   -0.00000206
     atom   10 type  1   force =     0.00000404   -0.00003151   -0.00000925
     atom   11 type  2   force =    -0.00000251   -0.00002014   -0.00000184
     atom   12 type  2   force =     0.00000491   -0.00003049   -0.00000140
     atom   13 type  1   force =     0.00001839    0.00004248   -0.00002499
     atom   14 type  2   force =     0.00000576    0.00001917   -0.00000195
     atom   15 type  2   force =    -0.00000429    0.00002367   -0.00000314
     atom   16 type  1   force =    -0.00001224    0.00002186   -0.00001185
     atom   17 type  2   force =     0.00001438    0.00001400   -0.00001251
     atom   18 type  2   force =     0.00000825    0.00001592   -0.00000498
     atom   19 type  1   force =     0.00000592   -0.00003271   -0.00002788
     atom   20 type  2   force =    -0.00001006   -0.00000135    0.00000406
     atom   21 type  1   force =     0.00000462   -0.00003939    0.00000752
     atom   22 type  2   force =     0.00000947   -0.00003538   -0.00000537
     atom   23 type  2   force =    -0.00000108   -0.00003131   -0.00000859
     atom   24 type  1   force =    -0.00000569    0.00003504   -0.00001685
     atom   25 type  2   force =     0.00000359    0.00001302   -0.00000836
     atom   26 type  2   force =     0.00000342    0.00000903   -0.00001004
     atom   27 type  1   force =     0.00000768    0.00004143   -0.00003466
     atom   28 type  2   force =     0.00000041    0.00000984   -0.00001130
     atom   29 type  2   force =     0.00000163    0.00001607   -0.00001402
     atom   30 type  1   force =     0.00000315   -0.00003609   -0.00003262
     atom   31 type  2   force =     0.00001398    0.00000781   -0.00001866
     atom   32 type  2   force =     0.00000949   -0.00000105   -0.00000103
     atom   33 type  1   force =     0.00001059   -0.00003945   -0.00002232
     atom   34 type  2   force =    -0.00000729   -0.00001656   -0.00000987
     atom   35 type  2   force =    -0.00000055   -0.00002125   -0.00000549
     atom   36 type  3   force =     0.00000225   -0.00007298   -0.00001166

     Total force =     0.006359     Total SCF correction =     0.000195
     Energy error            =      8.3E-05 Ry
     Gradient error          =      2.6E-03 Ry/Bohr

     bfgs converged in  20 scf cycles and  19 bfgs steps
     (criteria: energy <  1.0E-04 Ry, force <  1.0E-02 Ry/Bohr)

     End of BFGS Geometry Optimization

     Final energy             =   -2246.4457604118 Ry

     File ./MoS2-V-O.bfgs deleted, as requested
Begin final coordinates

ATOMIC_POSITIONS (angstrom)
Mo            6.5490892517        1.7452151247        2.7664158842
S             8.1210804831        0.8382693750        4.3755506828
S             8.1242291132        0.8239394690        1.1862529744
Mo            8.1194991202        4.4844986211        2.7155363803
S             6.5168567796        3.6587018377        4.3112940889
S             6.5554288859        3.5462306280        1.1157994132
Mo            6.5112631528        7.1686224267        2.6704723320
S             8.0835867851        6.2963472392        4.3043620161
S             8.1396243894        6.3137618901        1.1182086445
Mo            8.1207778371        9.9146274944        2.7788794557
S             6.4952434700        8.9320350611        4.3290266726
S             6.5915563343        9.0087938855        1.1249779449
Mo            3.4166593588        1.7417233900        2.7696708410
S             4.9853260684        0.7965421857        4.3582511822
S             4.9852539713        0.8430645734        1.1652948133
Mo            4.9901670322        4.5217793964        2.6541717813
S             3.4656026691        3.6585926627        4.3116231940
S             3.4309437448        3.5452060334        1.1167774050
Mo            3.4671580102        7.1396911655        2.6533239224
S             5.0045540748        6.2912089881        1.0318394317
Mo            5.0006166204        9.9120084306        2.7196137364
S             3.4397512823        8.9449471502        4.2390793302
S             3.3863264919        9.0269737117        1.1420520505
Mo            0.2555982826        1.7360041331        2.7702293201
S             1.8375089578        0.8434713715        4.3782505445
S             1.8357158411        0.8507837127        1.1717952394
Mo            1.8641414659        4.4907594574        2.7145701585
S             0.2639552545        3.6020225925        4.3165417287
S             0.2625775241        3.5491206527        1.1511985549
Mo            0.2686221432        7.2059285685        2.7422491629
S             1.9161305511        6.2947855148        4.3158668062
S             1.8345450538        6.3111234867        1.1018242564
Mo            1.8146484405        9.9474886742        2.7615676457
S             0.2574691288        9.0123484922        4.3656335556
S             0.2409739746        9.0396426332        1.1698119134
O             3.4721188008        8.9449419362        5.7367484731
End final coordinates



     Writing all to output data dir ./MoS2-V-O.save/
 
     init_run     :      4.62s CPU      5.09s WALL (       1 calls)
     electrons    :   1757.25s CPU   1987.32s WALL (      20 calls)
     update_pot   :     58.12s CPU     61.78s WALL (      19 calls)
     forces       :     54.60s CPU     62.06s WALL (      20 calls)

     Called by init_run:
     wfcinit      :      0.48s CPU      0.53s WALL (       1 calls)
     potinit      :      2.39s CPU      2.61s WALL (       1 calls)
     hinit0       :      0.45s CPU      0.47s WALL (       1 calls)

     Called by electrons:
     c_bands      :    263.88s CPU    270.12s WALL (     185 calls)
     sum_band     :    104.06s CPU    133.22s WALL (     185 calls)
     v_of_rho     :    172.90s CPU    209.75s WALL (     198 calls)
     newd         :     58.65s CPU     86.87s WALL (     198 calls)
     PAW_pot      :      7.90s CPU      7.95s WALL (     217 calls)
     mix_rho      :   1169.59s CPU   1301.00s WALL (     185 calls)

     Called by c_bands:
     init_us_2    :      4.26s CPU      4.55s WALL (     390 calls)
     init_us_2:cp :      4.25s CPU      4.54s WALL (     390 calls)
     regterg      :    249.81s CPU    255.75s WALL (     185 calls)

     Called by *egterg:
     rdiaghg      :     17.51s CPU     17.72s WALL (     981 calls)
     h_psi        :    161.84s CPU    163.19s WALL (    1008 calls)
     s_psi        :     15.38s CPU     15.45s WALL (    1008 calls)
     g_psi        :      0.79s CPU      0.80s WALL (     822 calls)

     Called by h_psi:
     h_psi:calbec :     17.80s CPU     17.94s WALL (    1008 calls)
     vloc_psi     :    126.89s CPU    128.00s WALL (    1008 calls)
     add_vuspsi   :     15.11s CPU     15.19s WALL (    1008 calls)

     General routines
     calbec       :     25.87s CPU     26.05s WALL (    1292 calls)
     fft          :    118.22s CPU    137.18s WALL (   13244 calls)
     ffts         :    522.12s CPU    649.09s WALL (  288235 calls)
     fftw         :     80.65s CPU     81.35s WALL (  112624 calls)
     interpolate  :      2.51s CPU      2.89s WALL (     198 calls)
 
     Parallel routines
 
     PWSCF        :  31m22.99s CPU  35m28.71s WALL

 
   This run was terminated on:  21: 7:54   1Nov2023            

=------------------------------------------------------------------------------=
   JOB DONE.
=------------------------------------------------------------------------------=
