
     Program PWSCF v.7.2 starts on  1Nov2023 at 20:48:15 

     This program is part of the open-source Quantum ESPRESSO suite
     for quantum simulation of materials; please cite
         "P. Giannozzi et al., J. Phys.:Condens. Matter 21 395502 (2009);
         "P. Giannozzi et al., J. Phys.:Condens. Matter 29 465901 (2017);
         "P. Giannozzi et al., J. Chem. Phys. 152 154105 (2020);
          URL http://www.quantum-espresso.org", 
     in publications or presentations arising from this work. More details at
     http://www.quantum-espresso.org/quote

     Parallel version (MPI & OpenMP), running on      48 processor cores
     Number of MPI processes:                48
     Threads/MPI process:                     1

     MPI processes distributed on     1 nodes
     57556 MiB available memory on the printing compute node when the environment starts
 
     Waiting for input...
     Reading input from standard input
Warning: card &CELL ignored
Warning: card CELL_DYNAMICS = 'BFGS', ignored
Warning: card CELL_DOFREE = '2DXY' ignored
Warning: card / ignored

     Current dimensions of program PWSCF are:
     Max number of different atomic species (ntypx) = 10
     Max number of k-points (npk) =  40000
     Max angular momentum in pseudopotentials (lmaxx) =  4
     file O.pbe-n-kjpaw_psl.0.1.UPF: wavefunction(s)  2P renormalized

     IMPORTANT: XC functional enforced from input :
     Exchange-correlation= RVV10
                           (   1   4  13   4  26   0   0)
     Any further DFT definition will be discarded
     Please, verify this is what you really want


     gamma-point specific algorithms are used
     signal trapping enabled: kill the code with -SIGUSR1 to stop cleanly the simulation 
 
     R & G space division:  proc/nbgrp/npool/nimage =      48
     Subspace diagonalization in iterative solution of the eigenvalue problem:
     one sub-group per band group will be used
     scalapack distributed-memory algorithm (size of sub-group:  2*  2 procs)

 
     Parallelization info
     --------------------
     sticks:   dense  smooth     PW     G-vecs:    dense   smooth      PW
     Min         396     194     47               101632    35090    4376
     Max         398     196     50               101674    35128    4410
     Sum       19091    9389   2349              4879585  1685513  210763
 
     Using Slab Decomposition
 


     bravais-lattice index     =            0
     lattice parameter (alat)  =      17.8707  a.u.
     unit-cell volume          =   17436.2743 (a.u.)^3
     number of atoms/cell      =           36
     number of atomic types    =            3
     number of electrons       =       312.00
     number of Kohn-Sham states=          187
     kinetic-energy cutoff     =      80.0000  Ry
     charge density cutoff     =     650.0000  Ry
     scf convergence threshold =      1.0E-06
     mixing beta               =       0.7000
     number of iterations used =            8  local-TF  mixing
     energy convergence thresh.=      1.0E-04
     force convergence thresh. =      1.0E-02
     Exchange-correlation= RVV10
                           (   1   4  13   4  26   0   0)
     nstep                     =          200


     celldm(1)=  17.870686  celldm(2)=   0.000000  celldm(3)=   0.000000
     celldm(4)=   0.000000  celldm(5)=   0.000000  celldm(6)=   0.000000

     crystal axes: (cart. coord. in units of alat)
               a(1) = (   1.000000   0.000000   0.000000 )  
               a(2) = (   0.000000   1.155671   0.000000 )  
               a(3) = (   0.000000   0.000000   2.643601 )  

     reciprocal axes: (cart. coord. in units 2 pi/alat)
               b(1) = (  1.000000  0.000000  0.000000 )  
               b(2) = (  0.000000  0.865298  0.000000 )  
               b(3) = (  0.000000  0.000000  0.378272 )  


     PseudoPot. # 1 for Mo read from file:
     ../pseudo/Mo_ONCV_PBE-1.0.oncvpsp.upf
     MD5 check sum: 1b5d28e075c9ccadda658a603575cd1f
     Pseudo is Norm-conserving, Zval = 14.0
     Generated using ONCVPSP code by D. R. Hamann
     Using radial grid of 1526 points,  6 beta functions with: 
                l(1) =   0
                l(2) =   0
                l(3) =   1
                l(4) =   1
                l(5) =   2
                l(6) =   2

     PseudoPot. # 2 for S  read from file:
     ../pseudo/s_pbe_v1.4.uspp.F.UPF
     MD5 check sum: 88d86576ff6df21479756cfb9bdac1df
     Pseudo is Ultrasoft + core correction, Zval =  6.0
     Generated by new atomic code, or converted to UPF format
     Using radial grid of  907 points,  6 beta functions with: 
                l(1) =   0
                l(2) =   0
                l(3) =   1
                l(4) =   1
                l(5) =   2
                l(6) =   2
     Q(r) pseudized with  8 coefficients,  rinner =    1.300   1.300   1.300
                                                       1.300   1.300

     PseudoPot. # 3 for O  read from file:
     ../pseudo/O.pbe-n-kjpaw_psl.0.1.UPF
     MD5 check sum: 0234752ac141de4415c5fc33072bef88
     Pseudo is Projector augmented-wave + core cor, Zval =  6.0
     Generated using "atomic" code by A. Dal Corso  v.5.0.99 svn rev. 10869
     Shape of augmentation charge: BESSEL
     Using radial grid of 1095 points,  4 beta functions with: 
                l(1) =   0
                l(2) =   0
                l(3) =   1
                l(4) =   1
     Q(r) pseudized with 0 coefficients 


     atomic species   valence    mass     pseudopotential
        Mo            14.00    95.94000     Mo( 1.00)
        S              6.00    32.06500     S ( 1.00)
        O              6.00    15.99940     O ( 1.00)

     No symmetry found



   Cartesian axes

     site n.     atom                  positions (alat units)
         1           Mo  tau(   1) = (   0.6952221   0.1890506   0.2985846  )
         2           S   tau(   2) = (   0.8646417   0.0856217   0.4689279  )
         3           S   tau(   3) = (   0.8663890   0.0857843   0.1351291  )
         4           Mo  tau(   4) = (   0.8560186   0.4753274   0.2873942  )
         5           S   tau(   5) = (   0.6873294   0.3936244   0.4596353  )
         6           S   tau(   6) = (   0.6929804   0.3713468   0.1185692  )
         7           Mo  tau(   7) = (   0.6862796   0.7633098   0.2825370  )
         8           S   tau(   8) = (   0.8545980   0.6708292   0.4486168  )
         9           S   tau(   9) = (   0.8545123   0.6666874   0.1146125  )
        10           Mo  tau(  10) = (   0.8629403   1.0471007   0.3006803  )
        11           S   tau(  11) = (   0.6868280   0.9456650   0.4634891  )
        12           S   tau(  12) = (   0.6998113   0.9568511   0.1205389  )
        13           Mo  tau(  13) = (   0.3618216   0.1847309   0.2935964  )
        14           S   tau(  14) = (   0.5260962   0.0863870   0.4600448  )
        15           S   tau(  15) = (   0.5348379   0.0894875   0.1297123  )
        16           Mo  tau(  16) = (   0.5265817   0.4772436   0.2784130  )
        17           S   tau(  17) = (   0.3624753   0.3882513   0.4525556  )
        18           S   tau(  18) = (   0.3635411   0.3752055   0.1119148  )
        19           Mo  tau(  19) = (   0.3652268   0.7630864   0.2781795  )
        20           S   tau(  20) = (   0.5269494   0.6690381   0.1096838  )
        21           Mo  tau(  21) = (   0.5300192   1.0470394   0.2900995  )
        22           S   tau(  22) = (   0.3670346   0.9457522   0.4574073  )
        23           S   tau(  23) = (   0.3604225   0.9585725   0.1159032  )
        24           Mo  tau(  24) = (   0.0313099   0.1847895   0.3013130  )
        25           S   tau(  25) = (   0.1956761   0.0838230   0.4650863  )
        26           S   tau(  26) = (   0.1967693   0.0903508   0.1278874  )
        27           Mo  tau(  27) = (   0.1967578   0.4753919   0.2813011  )
        28           S   tau(  28) = (   0.0287851   0.3864324   0.4586755  )
        29           S   tau(  29) = (   0.0244514   0.3729871   0.1239344  )
        30           Mo  tau(  30) = (   0.0286728   0.7631204   0.2856894  )
        31           S   tau(  31) = (   0.2011512   0.6675435   0.4465001  )
        32           S   tau(  32) = (   0.1969214   0.6672839   0.1104564  )
        33           Mo  tau(  33) = (   0.1950294   1.0511147   0.2932237  )
        34           S   tau(  34) = (   0.0312912   0.9612169   0.4667423  )
        35           S   tau(  35) = (   0.0292670   0.9563028   0.1216485  )
        36           O   tau(  36) = (   0.4444444   0.8988550   0.5792558  )

     number of k points=     1  Gaussian smearing, width (Ry)=  0.0100
                       cart. coord. in units 2pi/alat
        k(    1) = (   0.0000000   0.0000000   0.0000000), wk =   2.0000000

     Dense  grid:  2439793 G-vectors     FFT dimensions: ( 150, 180, 384)

     Smooth grid:   842757 G-vectors     FFT dimensions: ( 108, 120, 270)

     Estimated max dynamical RAM per process >     269.22 MB

     Estimated total dynamical RAM >      12.62 GB

     Initial potential from superposition of free atoms

     starting charge     311.9873, renormalised to     312.0000

     negative rho (up, down):  2.749E-04 0.000E+00


---------------------------------------------------------------------------------
Carrying out rVV10 run using the following parameters:
Nqs =      20    Nr_points =    1024   r_max =   100.000
b_value =  6.30000    beta =  0.00901
     q_mesh =  0.00010000  0.00030000  0.00058939  0.00100810
               0.00161396  0.00249058  0.00375900  0.00559430
               0.00824984  0.01209221  0.01765183  0.02569619
               0.03733578  0.05417739  0.07854596  0.11380545
               0.16482331  0.23864234  0.34545298  0.50000000

Gradients computed in Reciprocal space

---------------------------------------------------------------------------------


     Starting wfcs are  216 randomized atomic wfcs
     Checking if some PAW data can be deallocated... 

     total cpu time spent up to now is        5.4 secs

     Self-consistent Calculation

     iteration #  1     ecut=    80.00 Ry     beta= 0.70
     Davidson diagonalization with overlap
     ethr =  1.00E-02,  avg # of iterations =  2.0

     Threshold (ethr) on eigenvalues was too large:
     Diagonalizing with lowered threshold

     Davidson diagonalization with overlap
     ethr =  4.38E-04,  avg # of iterations =  4.0

     negative rho (up, down):  3.500E-08 0.000E+00

     total cpu time spent up to now is       20.3 secs

     total energy              =   -2246.31649516 Ry
     estimated scf accuracy    <       1.61729796 Ry

     iteration #  2     ecut=    80.00 Ry     beta= 0.70
     Davidson diagonalization with overlap
     ethr =  5.18E-04,  avg # of iterations =  3.0

     total cpu time spent up to now is       25.1 secs

     total energy              =   -2246.30836321 Ry
     estimated scf accuracy    <       0.55852890 Ry

     iteration #  3     ecut=    80.00 Ry     beta= 0.70
     Davidson diagonalization with overlap
     ethr =  1.79E-04,  avg # of iterations =  2.0

     total cpu time spent up to now is       29.1 secs

     total energy              =   -2246.32120235 Ry
     estimated scf accuracy    <       0.11927949 Ry

     iteration #  4     ecut=    80.00 Ry     beta= 0.70
     Davidson diagonalization with overlap
     ethr =  3.82E-05,  avg # of iterations = 18.0

     total cpu time spent up to now is       34.1 secs

     total energy              =   -2246.34073495 Ry
     estimated scf accuracy    <       0.02400517 Ry

     iteration #  5     ecut=    80.00 Ry     beta= 0.70
     Davidson diagonalization with overlap
     ethr =  7.69E-06,  avg # of iterations =  2.0

     total cpu time spent up to now is       37.8 secs

     total energy              =   -2246.33983127 Ry
     estimated scf accuracy    <       0.01524827 Ry

     iteration #  6     ecut=    80.00 Ry     beta= 0.70
     Davidson diagonalization with overlap
     ethr =  4.89E-06,  avg # of iterations =  2.0

     total cpu time spent up to now is       41.5 secs

     total energy              =   -2246.33903075 Ry
     estimated scf accuracy    <       0.00937693 Ry

     iteration #  7     ecut=    80.00 Ry     beta= 0.70
     Davidson diagonalization with overlap
     ethr =  3.01E-06,  avg # of iterations =  2.0

     total cpu time spent up to now is       47.6 secs

     total energy              =   -2246.33805650 Ry
     estimated scf accuracy    <       0.00555483 Ry

     iteration #  8     ecut=    80.00 Ry     beta= 0.70
     Davidson diagonalization with overlap
     ethr =  1.78E-06,  avg # of iterations =  7.0

     negative rho (up, down):  7.911E-03 0.000E+00

     total cpu time spent up to now is       54.3 secs

     total energy              =   -2246.33745762 Ry
     estimated scf accuracy    <       0.00315888 Ry

     iteration #  9     ecut=    80.00 Ry     beta= 0.70
     Davidson diagonalization with overlap
     ethr =  1.01E-06,  avg # of iterations =  2.0

     negative rho (up, down):  2.380E-02 0.000E+00

     total cpu time spent up to now is       59.9 secs

     total energy              =   -2246.33730127 Ry
     estimated scf accuracy    <       0.00177394 Ry

     iteration # 10     ecut=    80.00 Ry     beta= 0.70
     Davidson diagonalization with overlap
     ethr =  5.69E-07,  avg # of iterations =  2.0

     negative rho (up, down):  2.239E-02 0.000E+00

     total cpu time spent up to now is       66.7 secs

     total energy              =   -2246.33732864 Ry
     estimated scf accuracy    <       0.00070287 Ry

     iteration # 11     ecut=    80.00 Ry     beta= 0.70
     Davidson diagonalization with overlap
     ethr =  2.25E-07,  avg # of iterations =  2.0

     negative rho (up, down):  1.164E-02 0.000E+00

     total cpu time spent up to now is       74.4 secs

     total energy              =   -2246.33732182 Ry
     estimated scf accuracy    <       0.00012516 Ry

     iteration # 12     ecut=    80.00 Ry     beta= 0.70
     Davidson diagonalization with overlap
     ethr =  4.01E-08,  avg # of iterations =  7.0

     negative rho (up, down):  3.539E-03 0.000E+00

     total cpu time spent up to now is       81.9 secs

     total energy              =   -2246.33737115 Ry
     estimated scf accuracy    <       0.00003768 Ry

     iteration # 13     ecut=    80.00 Ry     beta= 0.70
     Davidson diagonalization with overlap
     ethr =  1.21E-08,  avg # of iterations =  2.0

     negative rho (up, down):  6.881E-04 0.000E+00

     total cpu time spent up to now is       89.9 secs

     total energy              =   -2246.33738365 Ry
     estimated scf accuracy    <       0.00000801 Ry

     iteration # 14     ecut=    80.00 Ry     beta= 0.70
     Davidson diagonalization with overlap
     ethr =  2.57E-09,  avg # of iterations =  4.0

     negative rho (up, down):  3.876E-04 0.000E+00

     total cpu time spent up to now is       99.6 secs

     total energy              =   -2246.33738444 Ry
     estimated scf accuracy    <       0.00000162 Ry

     iteration # 15     ecut=    80.00 Ry     beta= 0.70
     Davidson diagonalization with overlap
     ethr =  5.20E-10,  avg # of iterations =  4.0

     negative rho (up, down):  2.049E-04 0.000E+00

     total cpu time spent up to now is      103.1 secs

     End of self-consistent calculation

          k = 0.0000 0.0000 0.0000 (105382 PWs)   bands (ev):

   -63.0489 -62.9678 -62.9533 -62.9424 -62.9422 -62.9139 -62.8998 -62.8932
   -62.8567 -62.8249 -62.8124 -62.7691 -37.3263 -37.2942 -37.2605 -37.2485
   -37.2332 -37.2261 -37.1933 -37.1753 -37.1601 -37.1563 -37.1449 -37.1329
   -37.1286 -37.1147 -37.1131 -37.1117 -37.0915 -37.0838 -37.0727 -37.0471
   -37.0413 -37.0184 -37.0170 -37.0060 -37.0000 -36.9903 -36.9826 -36.9760
   -36.9622 -36.9543 -36.9418 -36.9140 -36.9029 -36.8902 -36.8108 -36.7522
   -23.5672 -16.0213 -15.2321 -15.1958 -15.0460 -14.9670 -14.8329 -14.5787
   -14.5449 -14.4993 -14.4777 -14.4543 -14.4209 -14.3834 -14.2726 -14.2144
   -14.2010 -14.1851 -14.1187 -13.9777 -13.9412 -13.9296 -13.8812 -13.6247
    -8.2516  -8.1105  -7.8547  -7.5624  -7.4949  -7.3745  -7.3097  -7.3030
    -7.1887  -7.0952  -7.0618  -6.8685  -6.8440  -6.7789  -6.7040  -6.6513
    -6.5675  -6.4868  -6.4353  -6.3519  -6.1818  -6.1379  -6.0013  -5.9442
    -5.8789  -5.8489  -5.8298  -5.7954  -5.7444  -5.7140  -5.6645  -5.6218
    -5.5904  -5.5739  -5.4782  -5.3709  -5.3263  -5.2236  -5.1374  -5.0940
    -5.0621  -5.0019  -4.9385  -4.9209  -4.7177  -4.6481  -4.5483  -4.3949
    -4.3372  -4.3058  -4.2694  -4.1810  -4.1108  -4.0393  -3.9371  -3.8405
    -3.8101  -3.7741  -3.6929  -3.6570  -3.6239  -3.5922  -3.5587  -3.5293
    -3.4879  -3.4541  -3.3538  -3.3004  -3.1622  -3.1078  -3.0412  -2.9137
    -2.8616  -2.7960  -2.7847  -2.7566  -2.7195  -2.6728  -2.5977  -2.5060
    -2.3165  -2.0555  -2.0453  -1.8806  -0.9394  -0.7833  -0.5532  -0.2435
    -0.2213  -0.1441  -0.1076  -0.0306   0.0601   0.0850   0.1641   0.1720
     0.2427   0.3402   0.3513   0.3842   0.4469   0.4621   0.5373   0.5846
     0.5977   0.6554   0.6701   0.6920   0.7636   0.7861   0.8673   0.8849
     0.9461   0.9629   1.1569

     the Fermi energy is    -1.4100 ev

!    total energy              =   -2246.33738642 Ry
     estimated scf accuracy    <       0.00000069 Ry
     smearing contrib. (-TS)   =      -0.00000007 Ry
     internal energy E=F+TS    =   -2246.33738635 Ry

     The total energy is F=E-TS. E is the sum of the following terms:
     one-electron contribution =  -18430.70866583 Ry
     hartree contribution      =    9203.17462511 Ry
     xc contribution           =    -392.18509123 Ry
     ewald contribution        =    7383.23500628 Ry
     one-center paw contrib.   =      -9.85326068 Ry

     convergence has been achieved in  15 iterations

     negative rho (up, down):  2.049E-04 0.000E+00

     Forces acting on atoms (cartesian axes, Ry/au):

     atom    1 type  1   force =     0.01340815   -0.02568356    0.00376820
     atom    2 type  2   force =    -0.01440112    0.01826201    0.00210447
     atom    3 type  2   force =    -0.01056824    0.00959310   -0.00466297
     atom    4 type  1   force =     0.00446414    0.00292442   -0.00128346
     atom    5 type  2   force =    -0.00095777   -0.00551428   -0.00586413
     atom    6 type  2   force =     0.00210410    0.01073973    0.00083984
     atom    7 type  1   force =     0.00930962   -0.01375732   -0.00962196
     atom    8 type  2   force =     0.00120690   -0.00297523    0.01794811
     atom    9 type  2   force =     0.01206694    0.00633572    0.01061618
     atom   10 type  1   force =    -0.01536510    0.00616994   -0.02440635
     atom   11 type  2   force =     0.01660864    0.00162997   -0.01881193
     atom   12 type  2   force =     0.00110144   -0.00164972    0.00491255
     atom   13 type  1   force =     0.00523655    0.00282297   -0.00565550
     atom   14 type  2   force =     0.00748775   -0.00078562    0.01586241
     atom   15 type  2   force =    -0.01256206    0.00558923   -0.01008640
     atom   16 type  1   force =    -0.00098847    0.01042470    0.00121506
     atom   17 type  2   force =     0.00734048    0.00126949    0.00145798
     atom   18 type  2   force =    -0.00363124   -0.00638376    0.01404529
     atom   19 type  1   force =    -0.00884695   -0.01619263   -0.01849408
     atom   20 type  2   force =     0.00589861   -0.00359946    0.00223996
     atom   21 type  1   force =    -0.00261343    0.01611522   -0.02122240
     atom   22 type  2   force =    -0.01241541    0.00414445   -0.18371487
     atom   23 type  2   force =    -0.00024783    0.00313210    0.01202999
     atom   24 type  1   force =    -0.01064922   -0.00198909   -0.02068236
     atom   25 type  2   force =     0.01352785    0.02446764    0.00617042
     atom   26 type  2   force =    -0.01105543   -0.00198049   -0.00622725
     atom   27 type  1   force =    -0.00056690    0.00203646    0.00581249
     atom   28 type  2   force =     0.00056798   -0.00144222   -0.00535135
     atom   29 type  2   force =     0.00289503   -0.00092732   -0.00173279
     atom   30 type  1   force =     0.00157722    0.00972316   -0.00369981
     atom   31 type  2   force =     0.00407520    0.00193671    0.02115057
     atom   32 type  2   force =    -0.01105969    0.00644665    0.00872779
     atom   33 type  1   force =    -0.00100046    0.00983328    0.01570907
     atom   34 type  2   force =    -0.00306892   -0.04377629   -0.01252175
     atom   35 type  2   force =    -0.00772011    0.00715966    0.01198906
     atom   36 type  3   force =     0.01884174   -0.03409963    0.19743993
     The non-local contrib.  to forces
     atom    1 type  1   force =    -0.00150107    0.03265835   -0.01032907
     atom    2 type  2   force =    -0.01049005    0.00260971   -0.27284539
     atom    3 type  2   force =    -0.01336737   -0.00423981    0.27258615
     atom    4 type  1   force =    -0.00157867    0.00424843    0.00305169
     atom    5 type  2   force =     0.00554028   -0.03255678   -0.25632203
     atom    6 type  2   force =     0.00028314    0.01203418    0.26351599
     atom    7 type  1   force =    -0.02024492    0.00371580   -0.02130729
     atom    8 type  2   force =     0.00590791   -0.00195924   -0.25626089
     atom    9 type  2   force =     0.00780980   -0.00706058    0.27835980
     atom   10 type  1   force =     0.00114155    0.00310606    0.00321801
     atom   11 type  2   force =     0.03703203    0.01333213   -0.26495107
     atom   12 type  2   force =    -0.00719900   -0.01925192    0.26282318
     atom   13 type  1   force =     0.00434479    0.02367779   -0.00948549
     atom   14 type  2   force =     0.00889211   -0.01598769   -0.26456263
     atom   15 type  2   force =    -0.01524955   -0.00009131    0.25929836
     atom   16 type  1   force =     0.00541326    0.03391236   -0.02305312
     atom   17 type  2   force =     0.00211294   -0.02898634   -0.25173678
     atom   18 type  2   force =    -0.00449206   -0.00454011    0.27339061
     atom   19 type  1   force =     0.00765128    0.03456808    0.00513211
     atom   20 type  2   force =     0.00049644   -0.02196543    0.26505301
     atom   21 type  1   force =    -0.02073578    0.00913381    0.03065867
     atom   22 type  2   force =     0.10888536   -0.05144834    0.15341814
     atom   23 type  2   force =     0.00550180   -0.01390428    0.27305341
     atom   24 type  1   force =     0.00286838    0.01907470   -0.00942801
     atom   25 type  2   force =     0.00935582    0.00119510   -0.26048716
     atom   26 type  2   force =    -0.00561966   -0.01662960    0.26498699
     atom   27 type  1   force =    -0.00386592    0.00566067    0.00884758
     atom   28 type  2   force =    -0.00530732   -0.02794476   -0.27570712
     atom   29 type  2   force =     0.00766025    0.00092446    0.26442858
     atom   30 type  1   force =    -0.00356527    0.01582659    0.00738158
     atom   31 type  2   force =     0.00495464    0.00822455   -0.25163790
     atom   32 type  2   force =    -0.00568586   -0.00948916    0.27412223
     atom   33 type  1   force =    -0.00173837    0.00535187    0.00057390
     atom   34 type  2   force =     0.00174858   -0.03637004   -0.27595426
     atom   35 type  2   force =    -0.00064835   -0.00837571    0.26929392
     atom   36 type  3   force =    -1.31767170    0.81549513   -1.72899555
     The ionic contribution  to forces
     atom    1 type  1   force =     0.76963933    0.80450996    4.53084808
     atom    2 type  2   force =    -0.48040108    0.78458459   39.03606398
     atom    3 type  2   force =    -0.11237335    0.15603556  -36.62648112
     atom    4 type  1   force =     0.28736855    0.15026792   -0.37515637
     atom    5 type  2   force =    -0.76782570    1.27879128   38.50278713
     atom    6 type  2   force =     0.40952539   -0.54695847  -38.53648296
     atom    7 type  1   force =    -1.20603436   -3.71679603   -0.08961372
     atom    8 type  2   force =    -0.64319563   -0.40083093   37.01386525
     atom    9 type  2   force =     0.41508130   -0.17183043  -38.61222728
     atom   10 type  1   force =    -0.55711612    0.21962100    4.11302845
     atom   11 type  2   force =     1.85861063   -1.10185316   37.79132826
     atom   12 type  2   force =     0.66196734    0.76415377  -38.72558049
     atom   13 type  1   force =     0.27484425    1.81015965    1.45644043
     atom   14 type  2   force =     0.36034951    1.24193218   37.93515011
     atom   15 type  2   force =     0.22184968    0.18097512  -37.51034960
     atom   16 type  1   force =     0.18914949    3.06150257   -1.00861755
     atom   17 type  2   force =     0.70885108    1.21390926   37.63222461
     atom   18 type  2   force =    -0.19210695   -0.70637859  -39.11613737
     atom   19 type  1   force =     1.80552020   -4.10004929   -3.64298615
     atom   20 type  2   force =     0.30854579   -0.44585268  -39.34005966
     atom   21 type  1   force =     1.06359072    1.92760952   -3.09015191
     atom   22 type  2   force =    -4.45329923    1.28259813   30.53061167
     atom   23 type  2   force =    -0.20961742    0.76801132  -39.39788382
     atom   24 type  1   force =    -0.73955764    1.53916121    4.84635128
     atom   25 type  2   force =     0.17538925    1.00900683   38.89092217
     atom   26 type  2   force =    -0.39916501    0.25108187  -37.95139899
     atom   27 type  1   force =    -0.36940094   -0.22709664   -3.50510310
     atom   28 type  2   force =    -0.04002617    0.88554504   38.00284575
     atom   29 type  2   force =    -0.29649689   -0.46511557  -37.73794503
     atom   30 type  1   force =    -0.87734536   -1.37479645   -1.64040662
     atom   31 type  2   force =     0.28925531   -1.05317881   36.61754539
     atom   32 type  2   force =    -0.62684524   -0.19255040  -39.35876362
     atom   33 type  1   force =    -0.61732789    0.18232761   -0.45648469
     atom   34 type  2   force =    -0.33510446   -1.25676033   38.92418340
     atom   35 type  2   force =    -0.40008444    0.52669204  -38.50472298
     atom   36 type  3   force =     3.52378607   -4.27842864   49.40235705
     The local contribution  to forces
     atom    1 type  1   force =    -0.75491281   -0.86289091   -4.51772276
     atom    2 type  2   force =     0.47622327   -0.76888063  -38.78231072
     atom    3 type  2   force =     0.11459138   -0.14238293   36.36976489
     atom    4 type  1   force =    -0.28136415   -0.15135355    0.36973798
     atom    5 type  2   force =     0.76185766   -1.25356642  -38.27319014
     atom    6 type  2   force =    -0.40793464    0.54683515   38.29421227
     atom    7 type  1   force =     1.23563456    3.69942647    0.10032411
     atom    8 type  2   force =     0.63872004    0.39946357  -36.76050944
     atom    9 type  2   force =    -0.41068028    0.18484080   38.36511086
     atom   10 type  1   force =     0.54055088   -0.21680111   -4.14155755
     atom   11 type  2   force =    -1.87688507    1.09114732  -37.56682856
     atom   12 type  2   force =    -0.65450708   -0.74811406   38.48808126
     atom   13 type  1   force =    -0.27382966   -1.83092448   -1.45358080
     atom   14 type  2   force =    -0.36138485   -1.22719670  -37.67572217
     atom   15 type  2   force =    -0.21998605   -0.17533448   37.26095398
     atom   16 type  1   force =    -0.19555768   -3.08490647    1.03184112
     atom   17 type  2   force =    -0.70361132   -1.18518449  -37.39973974
     atom   18 type  2   force =     0.19288242    0.70502870   38.87735952
     atom   19 type  1   force =    -1.82206118    4.04937640    3.61831807
     atom   20 type  2   force =    -0.30318458    0.46334244   39.09784342
     atom   21 type  1   force =    -1.04541080   -1.92073562    3.03729516
     atom   22 type  2   force =     4.33805905   -1.22967894  -30.86697520
     atom   23 type  2   force =     0.20431762   -0.75222131   39.15761722
     atom   24 type  1   force =     0.72609652   -1.56030901   -4.85860910
     atom   25 type  2   force =    -0.17101344   -0.98572775  -38.64525502
     atom   26 type  2   force =     0.39375182   -0.23737846   37.70066563
     atom   27 type  1   force =     0.37277275    0.22365470    3.50100936
     atom   28 type  2   force =     0.04562412   -0.86098532  -37.75386628
     atom   29 type  2   force =     0.29237898    0.46387327   37.49191716
     atom   30 type  1   force =     0.88246958    1.36870993    1.62834310
     atom   31 type  2   force =    -0.28995835    1.04734652  -36.36550384
     atom   32 type  2   force =     0.62144546    0.20790368   39.11394854
     atom   33 type  1   force =     0.61804468   -0.17802875    0.47065856
     atom   34 type  2   force =     0.33022710    1.24819569  -38.68232725
     atom   35 type  2   force =     0.39322560   -0.51197912   38.26803225
     atom   36 type  3   force =    -2.20111171    3.43732107  -47.49325068
     The core correction contribution to forces
     atom    1 type  1   force =     0.00000000    0.00000000    0.00000000
     atom    2 type  2   force =     0.00022462   -0.00014279    0.02088057
     atom    3 type  2   force =     0.00055320    0.00012799   -0.02100309
     atom    4 type  1   force =     0.00000000    0.00000000    0.00000000
     atom    5 type  2   force =    -0.00060365    0.00185054    0.02055566
     atom    6 type  2   force =     0.00017354   -0.00113173   -0.02090313
     atom    7 type  1   force =     0.00000000    0.00000000    0.00000000
     atom    8 type  2   force =    -0.00027707    0.00043698    0.02054068
     atom    9 type  2   force =    -0.00019668    0.00042753   -0.02107819
     atom   10 type  1   force =     0.00000000    0.00000000    0.00000000
     atom   11 type  2   force =    -0.00215180   -0.00104780    0.02132673
     atom   12 type  2   force =     0.00081901    0.00148632   -0.02083867
     atom   13 type  1   force =     0.00000000    0.00000000    0.00000000
     atom   14 type  2   force =    -0.00036292    0.00039487    0.02071386
     atom   15 type  2   force =     0.00083565    0.00000385   -0.02046411
     atom   16 type  1   force =     0.00000000    0.00000000    0.00000000
     atom   17 type  2   force =     0.00001494    0.00156967    0.02037622
     atom   18 type  2   force =     0.00011816   -0.00044201   -0.02103874
     atom   19 type  1   force =     0.00000000    0.00000000    0.00000000
     atom   20 type  2   force =     0.00007994    0.00087269   -0.02113024
     atom   21 type  1   force =     0.00000000    0.00000000    0.00000000
     atom   22 type  2   force =    -0.00610771    0.00268651   -0.00098222
     atom   23 type  2   force =    -0.00043898    0.00120742   -0.02122437
     atom   24 type  1   force =     0.00000000    0.00000000    0.00000000
     atom   25 type  2   force =    -0.00016139   -0.00009248    0.02070899
     atom   26 type  2   force =    -0.00001223    0.00089848   -0.02095935
     atom   27 type  1   force =     0.00000000    0.00000000    0.00000000
     atom   28 type  2   force =     0.00031194    0.00200387    0.02104502
     atom   29 type  2   force =    -0.00062796   -0.00055208   -0.02062653
     atom   30 type  1   force =     0.00000000    0.00000000    0.00000000
     atom   31 type  2   force =    -0.00016122   -0.00041081    0.02045723
     atom   32 type  2   force =     0.00004006    0.00058317   -0.02103356
     atom   33 type  1   force =     0.00000000    0.00000000    0.00000000
     atom   34 type  2   force =     0.00006790    0.00111254    0.02127199
     atom   35 type  2   force =    -0.00022072    0.00079558   -0.02104637
     atom   36 type  3   force =     0.01371529   -0.00841226    0.01698160
     The Hubbard contrib.    to forces
     atom    1 type  1   force =     0.00000000    0.00000000    0.00000000
     atom    2 type  2   force =     0.00000000    0.00000000    0.00000000
     atom    3 type  2   force =     0.00000000    0.00000000    0.00000000
     atom    4 type  1   force =     0.00000000    0.00000000    0.00000000
     atom    5 type  2   force =     0.00000000    0.00000000    0.00000000
     atom    6 type  2   force =     0.00000000    0.00000000    0.00000000
     atom    7 type  1   force =     0.00000000    0.00000000    0.00000000
     atom    8 type  2   force =     0.00000000    0.00000000    0.00000000
     atom    9 type  2   force =     0.00000000    0.00000000    0.00000000
     atom   10 type  1   force =     0.00000000    0.00000000    0.00000000
     atom   11 type  2   force =     0.00000000    0.00000000    0.00000000
     atom   12 type  2   force =     0.00000000    0.00000000    0.00000000
     atom   13 type  1   force =     0.00000000    0.00000000    0.00000000
     atom   14 type  2   force =     0.00000000    0.00000000    0.00000000
     atom   15 type  2   force =     0.00000000    0.00000000    0.00000000
     atom   16 type  1   force =     0.00000000    0.00000000    0.00000000
     atom   17 type  2   force =     0.00000000    0.00000000    0.00000000
     atom   18 type  2   force =     0.00000000    0.00000000    0.00000000
     atom   19 type  1   force =     0.00000000    0.00000000    0.00000000
     atom   20 type  2   force =     0.00000000    0.00000000    0.00000000
     atom   21 type  1   force =     0.00000000    0.00000000    0.00000000
     atom   22 type  2   force =     0.00000000    0.00000000    0.00000000
     atom   23 type  2   force =     0.00000000    0.00000000    0.00000000
     atom   24 type  1   force =     0.00000000    0.00000000    0.00000000
     atom   25 type  2   force =     0.00000000    0.00000000    0.00000000
     atom   26 type  2   force =     0.00000000    0.00000000    0.00000000
     atom   27 type  1   force =     0.00000000    0.00000000    0.00000000
     atom   28 type  2   force =     0.00000000    0.00000000    0.00000000
     atom   29 type  2   force =     0.00000000    0.00000000    0.00000000
     atom   30 type  1   force =     0.00000000    0.00000000    0.00000000
     atom   31 type  2   force =     0.00000000    0.00000000    0.00000000
     atom   32 type  2   force =     0.00000000    0.00000000    0.00000000
     atom   33 type  1   force =     0.00000000    0.00000000    0.00000000
     atom   34 type  2   force =     0.00000000    0.00000000    0.00000000
     atom   35 type  2   force =     0.00000000    0.00000000    0.00000000
     atom   36 type  3   force =     0.00000000    0.00000000    0.00000000
     The SCF correction term to forces
     atom    1 type  1   force =     0.00018095    0.00003915    0.00094863
     atom    2 type  2   force =     0.00004038    0.00009125    0.00029272
     atom    3 type  2   force =     0.00002614    0.00005240    0.00044689
     atom    4 type  1   force =     0.00003665   -0.00023828    0.00105993
     atom    5 type  2   force =     0.00007190   -0.00003279    0.00028193
     atom    6 type  2   force =     0.00005492   -0.00003930    0.00047436
     atom    7 type  1   force =    -0.00004741   -0.00010345    0.00095162
     atom    8 type  2   force =     0.00004989   -0.00008550    0.00028920
     atom    9 type  2   force =     0.00005104   -0.00004148    0.00042767
     atom   10 type  1   force =     0.00005684    0.00024410    0.00088142
     atom   11 type  2   force =     0.00000109    0.00005159    0.00028940
     atom   12 type  2   force =     0.00001941    0.00007628    0.00040395
     atom   13 type  1   force =    -0.00012459   -0.00008989    0.00094705
     atom   14 type  2   force =    -0.00000785    0.00007184    0.00025993
     atom   15 type  2   force =    -0.00001354    0.00003616    0.00045166
     atom   16 type  1   force =     0.00000470   -0.00008366    0.00102129
     atom   17 type  2   force =    -0.00002892   -0.00003850    0.00031036
     atom   18 type  2   force =    -0.00003456   -0.00005163    0.00044796
     atom   19 type  1   force =     0.00004098   -0.00008771    0.00101858
     atom   20 type  2   force =    -0.00004072    0.00000362    0.00051010
     atom   21 type  1   force =    -0.00005932    0.00010761    0.00095237
     atom   22 type  2   force =     0.00004537   -0.00001280    0.00018943
     atom   23 type  2   force =    -0.00001260    0.00003905    0.00044423
     atom   24 type  1   force =    -0.00005824    0.00008411    0.00098016
     atom   25 type  2   force =    -0.00004413    0.00008605    0.00025812
     atom   26 type  2   force =    -0.00001210    0.00004734    0.00045517
     atom   27 type  1   force =    -0.00007454   -0.00018217    0.00103533
     atom   28 type  2   force =    -0.00003635   -0.00006095    0.00030796
     atom   29 type  2   force =    -0.00002109   -0.00005729    0.00046971
     atom   30 type  1   force =     0.00001652   -0.00001680    0.00095882
     atom   31 type  2   force =    -0.00001694   -0.00004463    0.00026638
     atom   32 type  2   force =    -0.00001587   -0.00000053    0.00043089
     atom   33 type  1   force =     0.00001939    0.00018267    0.00093798
     atom   34 type  2   force =    -0.00000978    0.00004596    0.00028106
     atom   35 type  2   force =     0.00000605    0.00002699    0.00040893
     atom   36 type  3   force =     0.00012205   -0.00007482    0.00032419

     Total force =     0.294275     Total SCF correction =     0.003899

     BFGS Geometry Optimization
     Energy error            =      0.0E+00 Ry
     Gradient error          =      2.0E-01 Ry/Bohr

     number of scf cycles    =   1
     number of bfgs steps    =   0

     energy             new  =   -2246.3373864180 Ry

     new trust radius        =       0.2012469222 bohr
     new conv_thr            =       0.0000010000 Ry


ATOMIC_POSITIONS (angstrom)
Mo            6.5816436975        1.7742150760        2.8256370751
S             8.1690885954        0.8193678662        4.4356519895
S             8.1876406130        0.8163181959        1.2754158873
Mo            8.0975248840        4.4966044810        2.7171392168
S             6.4994024279        3.7194934576        4.3435574868
S             6.5544632398        3.5174207742        1.1217246532
Mo            6.4949081358        7.2111572230        2.6667927613
S             8.0823663929        6.3422965678        4.2519592954
S             8.0873031968        6.3080550328        1.0894808403
Mo            8.1524881899        9.9054454072        2.8305464771
S             6.5039565086        8.9437893573        4.3731506874
S             6.6185300543        9.0478382188        1.1425069106
Mo            3.4244307244        1.7484497036        2.7734784001
S             4.9791278357        0.8165254782        4.3589271195
S             5.0511861999        0.8492198045        1.2213209659
Mo            4.9792336040        4.5186945177        2.6335275295
S             3.4317260761        3.6722714729        4.2804811111
S             3.4359990131        3.5448505586        1.0657841303
Mo            3.4491801331        7.2077557667        2.6208902183
S             4.9863556021        6.3250275310        1.0384390643
Mo            5.0108809544        9.9101278601        2.7321705504
S             3.4643881654        8.9459444179        4.2283735890
S             3.4082980183        9.0666474203        1.1024342932
Mo            0.2904551614        1.7464569478        2.8385000745
S             1.8576208431        0.8056417236        4.4014746828
S             1.8549497540        0.8533778890        1.2061055380
Mo            1.8603913213        4.4967444076        2.6632732147
S             0.2725144132        3.6536356343        4.3347522856
S             0.2327631903        3.5267585080        1.1711009287
Mo            0.2719867808        7.2217913664        2.6997385753
S             1.9043947485        6.3138236965        4.2336365218
S             1.8563856785        6.3137552347        1.0491778293
Mo            1.8438172444        9.9453427025        2.7812591318
S             0.2942888988        9.0668324125        4.4072432423
S             0.2726860935        9.0473144448        1.1567451196
O             4.2129750662        8.4822108090        5.5823641400



     Writing config-only to output data dir ./MoS2-V-O.save/
     NEW-OLD atomic charge density approx. for the potential

     negative rho (up, down):  1.762E-04 0.000E+00

     total cpu time spent up to now is      110.7 secs

     Self-consistent Calculation

     iteration #  1     ecut=    80.00 Ry     beta= 0.70
     Davidson diagonalization with overlap
     ethr =  1.00E-06,  avg # of iterations = 11.0

     negative rho (up, down):  1.867E-03 0.000E+00

     total cpu time spent up to now is      124.9 secs

     total energy              =   -2246.36141647 Ry
     estimated scf accuracy    <       0.01795210 Ry

     iteration #  2     ecut=    80.00 Ry     beta= 0.70
     Davidson diagonalization with overlap
     ethr =  5.75E-06,  avg # of iterations =  4.0

     negative rho (up, down):  3.899E-03 0.000E+00

     total cpu time spent up to now is      138.6 secs

     total energy              =   -2246.36066900 Ry
     estimated scf accuracy    <       0.00595207 Ry

     iteration #  3     ecut=    80.00 Ry     beta= 0.70
     Davidson diagonalization with overlap
     ethr =  1.91E-06,  avg # of iterations =  3.0

     negative rho (up, down):  5.401E-03 0.000E+00

     total cpu time spent up to now is      149.6 secs

     total energy              =   -2246.36100570 Ry
     estimated scf accuracy    <       0.00176216 Ry

     iteration #  4     ecut=    80.00 Ry     beta= 0.70
     Davidson diagonalization with overlap
     ethr =  5.65E-07,  avg # of iterations =  2.0

     negative rho (up, down):  5.823E-03 0.000E+00

     total cpu time spent up to now is      160.2 secs

     total energy              =   -2246.36099497 Ry
     estimated scf accuracy    <       0.00065944 Ry

     iteration #  5     ecut=    80.00 Ry     beta= 0.70
     Davidson diagonalization with overlap
     ethr =  2.11E-07,  avg # of iterations =  5.0

     negative rho (up, down):  5.378E-03 0.000E+00

     total cpu time spent up to now is      170.1 secs

     total energy              =   -2246.36102264 Ry
     estimated scf accuracy    <       0.00012083 Ry

     iteration #  6     ecut=    80.00 Ry     beta= 0.70
     Davidson diagonalization with overlap
     ethr =  3.87E-08,  avg # of iterations =  4.0

     negative rho (up, down):  4.326E-03 0.000E+00

     total cpu time spent up to now is      179.4 secs

     total energy              =   -2246.36102449 Ry
     estimated scf accuracy    <       0.00003298 Ry

     iteration #  7     ecut=    80.00 Ry     beta= 0.70
     Davidson diagonalization with overlap
     ethr =  1.06E-08,  avg # of iterations =  4.0

     negative rho (up, down):  2.863E-03 0.000E+00

     total cpu time spent up to now is      188.0 secs

     total energy              =   -2246.36101489 Ry
     estimated scf accuracy    <       0.00000874 Ry

     iteration #  8     ecut=    80.00 Ry     beta= 0.70
     Davidson diagonalization with overlap
     ethr =  2.80E-09,  avg # of iterations =  5.0

     negative rho (up, down):  1.915E-03 0.000E+00

     total cpu time spent up to now is      197.9 secs

     total energy              =   -2246.36100843 Ry
     estimated scf accuracy    <       0.00000532 Ry

     iteration #  9     ecut=    80.00 Ry     beta= 0.70
     Davidson diagonalization with overlap
     ethr =  1.71E-09,  avg # of iterations =  2.0

     negative rho (up, down):  8.669E-04 0.000E+00

     total cpu time spent up to now is      207.6 secs

     total energy              =   -2246.36100216 Ry
     estimated scf accuracy    <       0.00000156 Ry

     iteration # 10     ecut=    80.00 Ry     beta= 0.70
     Davidson diagonalization with overlap
     ethr =  5.00E-10,  avg # of iterations =  2.0

     negative rho (up, down):  1.890E-04 0.000E+00

     total cpu time spent up to now is      211.0 secs

     End of self-consistent calculation

          k = 0.0000 0.0000 0.0000 (105382 PWs)   bands (ev):

   -63.0819 -63.0243 -63.0082 -63.0017 -62.9888 -62.9731 -62.9567 -62.9509
   -62.9286 -62.9102 -62.8866 -62.8733 -37.3853 -37.3407 -37.3127 -37.3008
   -37.2900 -37.2859 -37.2529 -37.2395 -37.2213 -37.2150 -37.2062 -37.1876
   -37.1840 -37.1736 -37.1725 -37.1674 -37.1523 -37.1445 -37.1302 -37.1104
   -37.1039 -37.0948 -37.0767 -37.0742 -37.0727 -37.0672 -37.0572 -37.0468
   -37.0356 -37.0248 -37.0161 -37.0079 -36.9897 -36.9523 -36.8777 -36.8463
   -21.1188 -16.0874 -15.3009 -15.2593 -15.1106 -15.0342 -14.8863 -14.6263
   -14.5895 -14.5744 -14.5466 -14.5225 -14.4826 -14.4452 -14.3425 -14.2703
   -14.2585 -14.2487 -14.2074 -14.0561 -14.0125 -14.0000 -13.9724 -13.9377
    -7.9395  -7.8212  -7.6673  -7.5306  -7.4819  -7.4184  -7.3695  -7.3346
    -7.2376  -7.0425  -6.9955  -6.9233  -6.8943  -6.7890  -6.7022  -6.6891
    -6.6273  -6.5307  -6.4462  -6.4124  -6.1798  -6.1492  -6.0605  -5.9911
    -5.9281  -5.9143  -5.8580  -5.8422  -5.8036  -5.7801  -5.7250  -5.6745
    -5.6389  -5.6072  -5.4994  -5.4128  -5.3272  -5.2427  -5.1862  -5.1357
    -5.1183  -5.0671  -4.9921  -4.9525  -4.7174  -4.6748  -4.5413  -4.4674
    -4.3775  -4.3644  -4.2587  -4.1871  -4.0739  -4.0525  -3.9925  -3.8963
    -3.8583  -3.8208  -3.7399  -3.7132  -3.6692  -3.6632  -3.6120  -3.5873
    -3.5556  -3.5273  -3.3521  -3.3441  -3.2046  -3.1408  -3.0768  -2.9710
    -2.9349  -2.8710  -2.8467  -2.8051  -2.7867  -2.7303  -2.5921  -2.5618
    -2.3723  -2.1265  -2.1040  -1.9369  -0.9656  -0.8656  -0.5664  -0.3055
    -0.2920  -0.1831  -0.1720  -0.0685   0.0021   0.0390   0.1092   0.1313
     0.1880   0.2777   0.2893   0.3415   0.3867   0.4082   0.4668   0.5161
     0.5309   0.5950   0.6234   0.6400   0.7053   0.7276   0.8103   0.8330
     0.8811   0.9049   1.0851

     the Fermi energy is    -1.4513 ev

!    total energy              =   -2246.36099997 Ry
     estimated scf accuracy    <       0.00000042 Ry
     smearing contrib. (-TS)   =      -0.00000003 Ry
     internal energy E=F+TS    =   -2246.36099994 Ry

     The total energy is F=E-TS. E is the sum of the following terms:
     one-electron contribution =  -18423.10073640 Ry
     hartree contribution      =    9198.88693087 Ry
     xc contribution           =    -392.03600016 Ry
     ewald contribution        =    7379.75331507 Ry
     one-center paw contrib.   =      -9.86450932 Ry

     convergence has been achieved in  10 iterations

     negative rho (up, down):  1.890E-04 0.000E+00

     Forces acting on atoms (cartesian axes, Ry/au):

     atom    1 type  1   force =     0.00216271   -0.01218426   -0.00057203
     atom    2 type  2   force =    -0.00936059    0.01133546    0.00033366
     atom    3 type  2   force =    -0.00982091    0.00731172   -0.00992586
     atom    4 type  1   force =     0.00486663    0.00259453    0.00128983
     atom    5 type  2   force =     0.00013555   -0.00550001   -0.00602308
     atom    6 type  2   force =     0.00148303    0.00685307    0.00259856
     atom    7 type  1   force =     0.00696549   -0.00952835   -0.00186576
     atom    8 type  2   force =     0.00210002   -0.00342531    0.01301325
     atom    9 type  2   force =     0.01161001    0.00494067    0.00613081
     atom   10 type  1   force =    -0.00376144    0.00592586   -0.01268162
     atom   11 type  2   force =     0.00467058    0.00090306   -0.01729105
     atom   12 type  2   force =    -0.00061524   -0.00175994   -0.00096191
     atom   13 type  1   force =     0.00414961    0.00232398   -0.00250157
     atom   14 type  2   force =     0.00608366   -0.00164612    0.01044461
     atom   15 type  2   force =    -0.00853764    0.00652535   -0.01047637
     atom   16 type  1   force =     0.00050885    0.00601738    0.00175323
     atom   17 type  2   force =     0.00655458    0.00165155    0.00170351
     atom   18 type  2   force =    -0.00278921   -0.00389291    0.01081432
     atom   19 type  1   force =    -0.00171444   -0.02315140   -0.01662108
     atom   20 type  2   force =     0.00475387   -0.00433025   -0.00300416
     atom   21 type  1   force =     0.01156177    0.01391443   -0.01606259
     atom   22 type  2   force =     0.10352356   -0.06717768    0.08964832
     atom   23 type  2   force =    -0.00346763    0.00348826    0.00288999
     atom   24 type  1   force =    -0.00556062   -0.00078510   -0.01059090
     atom   25 type  2   force =     0.00910811    0.02061224    0.00393383
     atom   26 type  2   force =    -0.00779901   -0.00070121   -0.00471185
     atom   27 type  1   force =    -0.00086924    0.00216002    0.00685728
     atom   28 type  2   force =    -0.00003352   -0.00216727   -0.00533764
     atom   29 type  2   force =     0.00247247    0.00099433   -0.00301826
     atom   30 type  1   force =    -0.00034951    0.00258873    0.00353514
     atom   31 type  2   force =     0.00277883    0.00112627    0.01536795
     atom   32 type  2   force =    -0.01073639    0.00412099    0.00357175
     atom   33 type  1   force =    -0.01121300    0.01231644   -0.00061607
     atom   34 type  2   force =    -0.00533923   -0.03301977   -0.01205894
     atom   35 type  2   force =    -0.00571774    0.00796369    0.00810780
     atom   36 type  3   force =    -0.09780396    0.04360155   -0.04767310
     The non-local contrib.  to forces
     atom    1 type  1   force =     0.00007647    0.02921345   -0.01105375
     atom    2 type  2   force =    -0.00643902   -0.00206350   -0.27336768
     atom    3 type  2   force =    -0.01173652   -0.00679256    0.26780295
     atom    4 type  1   force =    -0.00078886    0.00589441    0.00294339
     atom    5 type  2   force =     0.00639832   -0.03334167   -0.25907177
     atom    6 type  2   force =    -0.00036062    0.00873293    0.26590784
     atom    7 type  1   force =    -0.01835472    0.00503890   -0.02170786
     atom    8 type  2   force =     0.00745827   -0.00131850   -0.26100115
     atom    9 type  2   force =     0.00713675   -0.00756260    0.27626958
     atom   10 type  1   force =    -0.00270318    0.00162015    0.00551371
     atom   11 type  2   force =     0.02141347    0.01144562   -0.26802844
     atom   12 type  2   force =    -0.00992320   -0.01955847    0.26023225
     atom   13 type  1   force =     0.00469803    0.02428630   -0.00917600
     atom   14 type  2   force =     0.00819809   -0.01238594   -0.27030629
     atom   15 type  2   force =    -0.01224180   -0.00098821    0.25850673
     atom   16 type  1   force =     0.00415724    0.03429351   -0.02430636
     atom   17 type  2   force =     0.00131553   -0.02863443   -0.25361935
     atom   18 type  2   force =    -0.00362781   -0.00285409    0.27251650
     atom   19 type  1   force =     0.00829911    0.02501778   -0.00384717
     atom   20 type  2   force =    -0.00110700   -0.02008019    0.26241321
     atom   21 type  1   force =    -0.01121284    0.01432412    0.02519953
     atom   22 type  2   force =     0.17164249   -0.09193286    0.34991437
     atom   23 type  2   force =     0.00482378   -0.01529168    0.27168671
     atom   24 type  1   force =     0.00100369    0.01943903   -0.00757199
     atom   25 type  2   force =     0.00584160   -0.00152234   -0.26477167
     atom   26 type  2   force =    -0.00274243   -0.01423573    0.26497491
     atom   27 type  1   force =    -0.00465327    0.00558051    0.00758139
     atom   28 type  2   force =    -0.00484345   -0.02681002   -0.27757608
     atom   29 type  2   force =     0.00702334    0.00095154    0.26483717
     atom   30 type  1   force =    -0.00347980    0.01652702    0.00722585
     atom   31 type  2   force =    -0.00045475    0.00542353   -0.25928285
     atom   32 type  2   force =    -0.00381553   -0.01055615    0.27150736
     atom   33 type  1   force =    -0.00127118    0.00573992    0.00277212
     atom   34 type  2   force =    -0.00071548   -0.02642427   -0.27976870
     atom   35 type  2   force =    -0.00007839   -0.00859116    0.26697248
     atom   36 type  3   force =    -1.01163073    0.65748928   -1.58923168
     The ionic contribution  to forces
     atom    1 type  1   force =     0.49552847    1.16033025    4.65102629
     atom    2 type  2   force =    -0.31324369    0.65675573   39.13978071
     atom    3 type  2   force =    -0.08568222    0.17010572  -36.75100240
     atom    4 type  1   force =     0.22217182    0.10195992   -0.30525437
     atom    5 type  2   force =    -0.78107284    1.26172034   38.41708558
     atom    6 type  2   force =     0.36285086   -0.59109068  -38.43539139
     atom    7 type  1   force =    -1.42680155   -3.51520111   -0.04793589
     atom    8 type  2   force =    -0.66143687   -0.38438279   37.13765963
     atom    9 type  2   force =     0.42468382   -0.20976783  -38.58858349
     atom   10 type  1   force =    -0.33088252    0.20025737    3.83636834
     atom   11 type  2   force =     1.58113875   -1.13439448   37.69022938
     atom   12 type  2   force =     0.59229033    0.67321441  -38.70999688
     atom   13 type  1   force =     0.25826273    1.80646181    1.46574504
     atom   14 type  2   force =     0.27405285    1.15937964   38.08028071
     atom   15 type  2   force =     0.22941782    0.28787295  -37.59313245
     atom   16 type  1   force =     0.26088795    2.89696101   -0.86375419
     atom   17 type  2   force =     0.71270637    1.18682872   37.64706762
     atom   18 type  2   force =    -0.17650920   -0.67249576  -39.03119391
     atom   19 type  1   force =     2.00853764   -4.10809538   -3.89102720
     atom   20 type  2   force =     0.30951021   -0.43115415  -39.35792467
     atom   21 type  1   force =     1.21238134    1.72040265   -3.23211785
     atom   22 type  2   force =    -2.92767903    0.43846775   31.18038605
     atom   23 type  2   force =    -0.26278412    0.74670350  -39.35539031
     atom   24 type  1   force =    -0.54349720    1.46615484    4.54496071
     atom   25 type  2   force =     0.10905112    0.98127552   38.95415773
     atom   26 type  2   force =    -0.35078897    0.22944209  -37.94716881
     atom   27 type  1   force =    -0.37264065   -0.25348586   -3.23751559
     atom   28 type  2   force =    -0.02996753    0.82485069   37.98661363
     atom   29 type  2   force =    -0.27137398   -0.40709109  -37.75031602
     atom   30 type  1   force =    -0.86088312   -1.47537117   -1.58694338
     atom   31 type  2   force =     0.33459653   -0.99629008   36.78005184
     atom   32 type  2   force =    -0.64792618   -0.24940056  -39.36038976
     atom   33 type  1   force =    -0.91050476    0.40199732    0.15717051
     atom   34 type  2   force =    -0.37683519   -1.09773214   38.89649549
     atom   35 type  2   force =    -0.30814861    0.54934016  -38.43681110
     atom   36 type  3   force =     2.25058962   -3.39452930   47.91677040
     The local contribution  to forces
     atom    1 type  1   force =    -0.49315082   -1.20173737   -4.64043180
     atom    2 type  2   force =     0.31013062   -0.64325654  -38.88690824
     atom    3 type  2   force =     0.08712900   -0.15620314   36.49398121
     atom    4 type  1   force =    -0.21642357   -0.10537041    0.30360454
     atom    5 type  2   force =     0.77549441   -1.23570676  -38.18449539
     atom    6 type  2   force =    -0.36114180    0.59027802   38.19274934
     atom    7 type  1   force =     1.45228223    3.50038208    0.06788070
     atom    8 type  2   force =     0.65641023    0.38176833  -36.88425078
     atom    9 type  2   force =    -0.42005869    0.22178287   38.33926236
     atom   10 type  1   force =     0.32973401   -0.19581607   -3.85462429
     atom   11 type  2   force =    -1.59628584    1.12487868  -37.46085955
     atom   12 type  2   force =    -0.58381896   -0.65678815   38.46929870
     atom   13 type  1   force =    -0.25890086   -1.82828620   -1.45899633
     atom   14 type  2   force =    -0.27575812   -1.14885344  -37.82035854
     atom   15 type  2   force =    -0.22640738   -0.28050101   37.34437820
     atom   16 type  1   force =    -0.26454873   -2.92521155    0.88984427
     atom   17 type  2   force =    -0.70753759   -1.15802173  -37.41206290
     atom   18 type  2   force =     0.17725827    0.67198267   38.79028494
     atom   19 type  1   force =    -2.01869207    4.05971130    3.87858956
     atom   20 type  2   force =    -0.30382505    0.44598078   39.11331913
     atom   21 type  1   force =    -1.18958635   -1.72062257    3.19121728
     atom   22 type  2   force =     2.87001276   -0.41912096  -31.42806641
     atom   23 type  2   force =     0.25494027   -0.72917139   39.10742888
     atom   24 type  1   force =     0.53676971   -1.48615068   -4.54803776
     atom   25 type  2   force =    -0.10573658   -0.95923739  -38.70615635
     atom   26 type  2   force =     0.34576832   -0.21657943   37.69816913
     atom   27 type  1   force =     0.37635502    0.24997347    3.23682758
     atom   28 type  2   force =     0.03446220   -0.80208102  -37.73538079
     atom   29 type  2   force =     0.26736077    0.40761869   37.50291074
     atom   30 type  1   force =     0.86400702    1.46130161    1.58325634
     atom   31 type  2   force =    -0.33147261    0.99216163  -36.52607566
     atom   32 type  2   force =     0.64109252    0.26344616   39.11319539
     atom   33 type  1   force =     0.90059355   -0.39543019   -0.16030057
     atom   34 type  2   force =     0.37219710    1.09040430  -38.65009589
     atom   35 type  2   force =     0.30262310   -0.53362144   38.19864743
     atom   36 type  3   force =    -1.34834759    2.78810594  -46.39253147
     The core correction contribution to forces
     atom    1 type  1   force =     0.00000000    0.00000000    0.00000000
     atom    2 type  2   force =     0.00015288   -0.00000595    0.02097653
     atom    3 type  2   force =     0.00049283    0.00026040   -0.02090498
     atom    4 type  1   force =     0.00000000    0.00000000    0.00000000
     atom    5 type  2   force =    -0.00065473    0.00184898    0.02064567
     atom    6 type  2   force =     0.00017858   -0.00103719   -0.02092748
     atom    7 type  1   force =     0.00000000    0.00000000    0.00000000
     atom    8 type  2   force =    -0.00032992    0.00041870    0.02075563
     atom    9 type  2   force =    -0.00012056    0.00041473   -0.02105743
     atom   10 type  1   force =     0.00000000    0.00000000    0.00000000
     atom   11 type  2   force =    -0.00165607   -0.00098785    0.02159134
     atom   12 type  2   force =     0.00091903    0.00141781   -0.02076985
     atom   13 type  1   force =     0.00000000    0.00000000    0.00000000
     atom   14 type  2   force =    -0.00040118    0.00015920    0.02105964
     atom   15 type  2   force =     0.00071988    0.00017560   -0.02048495
     atom   16 type  1   force =     0.00000000    0.00000000    0.00000000
     atom   17 type  2   force =     0.00005684    0.00153529    0.02048162
     atom   18 type  2   force =     0.00007415   -0.00049699   -0.02103581
     atom   19 type  1   force =     0.00000000    0.00000000    0.00000000
     atom   20 type  2   force =     0.00019110    0.00078661   -0.02107779
     atom   21 type  1   force =     0.00000000    0.00000000    0.00000000
     atom   22 type  2   force =    -0.01050246    0.00542727   -0.01230589
     atom   23 type  2   force =    -0.00048503    0.00128273   -0.02114304
     atom   24 type  1   force =     0.00000000    0.00000000    0.00000000
     atom   25 type  2   force =    -0.00002830    0.00009530    0.02093292
     atom   26 type  2   force =    -0.00010556    0.00074512   -0.02094600
     atom   27 type  1   force =     0.00000000    0.00000000    0.00000000
     atom   28 type  2   force =     0.00029145    0.00188071    0.02115643
     atom   29 type  2   force =    -0.00057132   -0.00050558   -0.02065842
     atom   30 type  1   force =     0.00000000    0.00000000    0.00000000
     atom   31 type  2   force =     0.00015281   -0.00018198    0.02089642
     atom   32 type  2   force =    -0.00013684    0.00056387   -0.02100092
     atom   33 type  1   force =     0.00000000    0.00000000    0.00000000
     atom   34 type  2   force =     0.00011017    0.00070295    0.02150873
     atom   35 type  2   force =    -0.00016225    0.00084186   -0.02096086
     atom   36 type  3   force =     0.01139090   -0.00734212    0.01729596
     The Hubbard contrib.    to forces
     atom    1 type  1   force =     0.00000000    0.00000000    0.00000000
     atom    2 type  2   force =     0.00000000    0.00000000    0.00000000
     atom    3 type  2   force =     0.00000000    0.00000000    0.00000000
     atom    4 type  1   force =     0.00000000    0.00000000    0.00000000
     atom    5 type  2   force =     0.00000000    0.00000000    0.00000000
     atom    6 type  2   force =     0.00000000    0.00000000    0.00000000
     atom    7 type  1   force =     0.00000000    0.00000000    0.00000000
     atom    8 type  2   force =     0.00000000    0.00000000    0.00000000
     atom    9 type  2   force =     0.00000000    0.00000000    0.00000000
     atom   10 type  1   force =     0.00000000    0.00000000    0.00000000
     atom   11 type  2   force =     0.00000000    0.00000000    0.00000000
     atom   12 type  2   force =     0.00000000    0.00000000    0.00000000
     atom   13 type  1   force =     0.00000000    0.00000000    0.00000000
     atom   14 type  2   force =     0.00000000    0.00000000    0.00000000
     atom   15 type  2   force =     0.00000000    0.00000000    0.00000000
     atom   16 type  1   force =     0.00000000    0.00000000    0.00000000
     atom   17 type  2   force =     0.00000000    0.00000000    0.00000000
     atom   18 type  2   force =     0.00000000    0.00000000    0.00000000
     atom   19 type  1   force =     0.00000000    0.00000000    0.00000000
     atom   20 type  2   force =     0.00000000    0.00000000    0.00000000
     atom   21 type  1   force =     0.00000000    0.00000000    0.00000000
     atom   22 type  2   force =     0.00000000    0.00000000    0.00000000
     atom   23 type  2   force =     0.00000000    0.00000000    0.00000000
     atom   24 type  1   force =     0.00000000    0.00000000    0.00000000
     atom   25 type  2   force =     0.00000000    0.00000000    0.00000000
     atom   26 type  2   force =     0.00000000    0.00000000    0.00000000
     atom   27 type  1   force =     0.00000000    0.00000000    0.00000000
     atom   28 type  2   force =     0.00000000    0.00000000    0.00000000
     atom   29 type  2   force =     0.00000000    0.00000000    0.00000000
     atom   30 type  1   force =     0.00000000    0.00000000    0.00000000
     atom   31 type  2   force =     0.00000000    0.00000000    0.00000000
     atom   32 type  2   force =     0.00000000    0.00000000    0.00000000
     atom   33 type  1   force =     0.00000000    0.00000000    0.00000000
     atom   34 type  2   force =     0.00000000    0.00000000    0.00000000
     atom   35 type  2   force =     0.00000000    0.00000000    0.00000000
     atom   36 type  3   force =     0.00000000    0.00000000    0.00000000
     The SCF correction term to forces
     atom    1 type  1   force =    -0.00029320    0.00000931   -0.00010617
     atom    2 type  2   force =     0.00003683   -0.00009438   -0.00014106
     atom    3 type  2   force =    -0.00002579   -0.00005881    0.00020396
     atom    4 type  1   force =    -0.00009454    0.00011050    0.00000288
     atom    5 type  2   force =    -0.00003140   -0.00002101   -0.00018057
     atom    6 type  2   force =    -0.00004578   -0.00003012    0.00026685
     atom    7 type  1   force =    -0.00016227    0.00025168   -0.00009611
     atom    8 type  2   force =    -0.00000349    0.00008884   -0.00014349
     atom    9 type  2   force =    -0.00003310    0.00007339    0.00024639
     atom   10 type  1   force =     0.00008846   -0.00013569    0.00006723
     atom   11 type  2   force =     0.00005848   -0.00003902   -0.00021718
     atom   12 type  2   force =    -0.00008423   -0.00004564    0.00028048
     atom   13 type  1   force =     0.00008792   -0.00013803   -0.00006768
     atom   14 type  2   force =    -0.00000976    0.00005431   -0.00022431
     atom   15 type  2   force =    -0.00002795   -0.00003407    0.00026270
     atom   16 type  1   force =     0.00001060   -0.00002570   -0.00002389
     atom   17 type  2   force =     0.00001163   -0.00005640   -0.00015689
     atom   18 type  2   force =     0.00001359   -0.00002885    0.00024920
     atom   19 type  1   force =     0.00013909    0.00021480   -0.00032967
     atom   20 type  2   force =    -0.00001718    0.00013660    0.00027256
     atom   21 type  1   force =    -0.00002216   -0.00018987   -0.00035496
     atom   22 type  2   force =     0.00004802   -0.00001898   -0.00027320
     atom   23 type  2   force =     0.00003569   -0.00003500    0.00031434
     atom   24 type  1   force =     0.00016139   -0.00022838    0.00006473
     atom   25 type  2   force =    -0.00002153    0.00000104   -0.00022220
     atom   26 type  2   force =     0.00006784   -0.00007337    0.00026552
     atom   27 type  1   force =     0.00006788    0.00009180   -0.00002949
     atom   28 type  2   force =     0.00002202   -0.00000775   -0.00014422
     atom   29 type  2   force =     0.00003188    0.00002067    0.00021487
     atom   30 type  1   force =     0.00000461    0.00013118    0.00000293
     atom   31 type  2   force =    -0.00004494    0.00001306   -0.00021520
     atom   32 type  2   force =     0.00004784    0.00006757    0.00026628
     atom   33 type  1   force =    -0.00003239    0.00000929   -0.00025152
     atom   34 type  2   force =    -0.00009762    0.00002930   -0.00019197
     atom   35 type  2   force =     0.00004662   -0.00000584    0.00026645
     atom   36 type  3   force =     0.00019205   -0.00012236    0.00003028

     Total force =     0.209571     Total SCF correction =     0.001484
     Energy error            =      2.4E-02 Ry
     Gradient error          =      1.0E-01 Ry/Bohr

     number of scf cycles    =   2
     number of bfgs steps    =   1

     energy             old  =   -2246.3373864180 Ry
     energy             new  =   -2246.3609999686 Ry

     CASE: energy            _new < energy            _old

     new trust radius        =       0.0966151047 bohr
     new conv_thr            =       0.0000001035 Ry


ATOMIC_POSITIONS (angstrom)
Mo            6.5845192240        1.7653284796        2.8259495271
S             8.1630433791        0.8268091539        4.4361008831
S             8.1819642677        0.8207973116        1.2705617261
Mo            8.1002243557        4.4981235111        2.7174928328
S             6.4993188759        3.7163738336        4.3401667887
S             6.5553949636        3.5218754030        1.1229395793
Mo            6.4992002047        7.2051359702        2.6645974096
S             8.0834257138        6.3404210483        4.2600594203
S             8.0939510404        6.3110601625        1.0936139034
Mo            8.1486539189        9.9088401260        2.8216382879
S             6.5083551555        8.9444078646        4.3631266211
S             6.6184331516        9.0468568133        1.1428234354
Mo            3.4269422637        1.7498401879        2.7715977872
S             4.9827821659        0.8157186528        4.3656421261
S             5.0457565078        0.8527811982        1.2154399282
Mo            4.9793023817        4.5227518386        2.6344423541
S             3.4355566470        3.6731515622        4.2814106823
S             3.4342945059        3.5422785718        1.0723878986
Mo            3.4471620436        7.1956538487        2.6111942545
S             4.9892181292        6.3226802495        1.0375055252
Mo            5.0153549937        9.9183377195        2.7223089898
S             3.5060599653        8.9183292080        4.2390872004
S             3.4068048181        9.0685723986        1.1054131978
Mo            0.2865568013        1.7458353170        2.8310165428
S             1.8634318806        0.8178907755        4.4040325630
S             1.8500513982        0.8527927618        1.2032124555
Mo            1.8599429708        4.4979506288        2.6670068107
S             0.2725836495        3.6525135373        4.3317247804
S             0.2342266312        3.5270402202        1.1695786819
Mo            0.2720713140        7.2243053044        2.7006810411
S             1.9061600236        6.3145809775        4.2431957047
S             1.8502526215        6.3164322708        1.0519587437
Mo            1.8389595959        9.9519596726        2.7833047497
S             0.2915955473        9.0465381300        4.4003400701
S             0.2691514101        9.0517104974        1.1619101658
O             4.1746489395        8.4955267591        5.5912988686



     Writing config-only to output data dir ./MoS2-V-O.save/
     NEW-OLD atomic charge density approx. for the potential

     negative rho (up, down):  1.833E-04 0.000E+00

     total cpu time spent up to now is      218.4 secs

     Self-consistent Calculation

     iteration #  1     ecut=    80.00 Ry     beta= 0.70
     Davidson diagonalization with overlap
     ethr =  1.00E-06,  avg # of iterations =  8.0

     negative rho (up, down):  1.131E-04 0.000E+00

     total cpu time spent up to now is      232.6 secs

     total energy              =   -2246.38478794 Ry
     estimated scf accuracy    <       0.00271857 Ry

     iteration #  2     ecut=    80.00 Ry     beta= 0.70
     Davidson diagonalization with overlap
     ethr =  8.71E-07,  avg # of iterations =  5.0

     negative rho (up, down):  9.643E-05 0.000E+00

     total cpu time spent up to now is      248.1 secs

     total energy              =   -2246.38511099 Ry
     estimated scf accuracy    <       0.00103726 Ry

     iteration #  3     ecut=    80.00 Ry     beta= 0.70
     Davidson diagonalization with overlap
     ethr =  3.32E-07,  avg # of iterations =  4.0

     negative rho (up, down):  6.582E-05 0.000E+00

     total cpu time spent up to now is      260.2 secs

     total energy              =   -2246.38514197 Ry
     estimated scf accuracy    <       0.00019101 Ry

     iteration #  4     ecut=    80.00 Ry     beta= 0.70
     Davidson diagonalization with overlap
     ethr =  6.12E-08,  avg # of iterations =  5.0

     negative rho (up, down):  6.232E-05 0.000E+00

     total cpu time spent up to now is      276.3 secs

     total energy              =   -2246.38516821 Ry
     estimated scf accuracy    <       0.00001428 Ry

     iteration #  5     ecut=    80.00 Ry     beta= 0.70
     Davidson diagonalization with overlap
     ethr =  4.58E-09,  avg # of iterations =  5.0

     negative rho (up, down):  6.424E-05 0.000E+00

     total cpu time spent up to now is      290.4 secs

     total energy              =   -2246.38517298 Ry
     estimated scf accuracy    <       0.00000509 Ry

     iteration #  6     ecut=    80.00 Ry     beta= 0.70
     Davidson diagonalization with overlap
     ethr =  1.63E-09,  avg # of iterations =  2.0

     negative rho (up, down):  7.124E-05 0.000E+00

     total cpu time spent up to now is      301.1 secs

     total energy              =   -2246.38517297 Ry
     estimated scf accuracy    <       0.00000227 Ry

     iteration #  7     ecut=    80.00 Ry     beta= 0.70
     Davidson diagonalization with overlap
     ethr =  7.29E-10,  avg # of iterations =  2.0

     negative rho (up, down):  8.187E-05 0.000E+00

     total cpu time spent up to now is      316.9 secs

     total energy              =   -2246.38517330 Ry
     estimated scf accuracy    <       0.00000046 Ry

     iteration #  8     ecut=    80.00 Ry     beta= 0.70
     Davidson diagonalization with overlap
     ethr =  1.48E-10,  avg # of iterations =  5.0

     negative rho (up, down):  1.087E-04 0.000E+00

     total cpu time spent up to now is      325.5 secs

     total energy              =   -2246.38517342 Ry
     estimated scf accuracy    <       0.00000018 Ry

     iteration #  9     ecut=    80.00 Ry     beta= 0.70
     Davidson diagonalization with overlap
     ethr =  5.71E-11,  avg # of iterations =  2.0

     negative rho (up, down):  1.887E-04 0.000E+00

     total cpu time spent up to now is      328.9 secs

     End of self-consistent calculation

          k = 0.0000 0.0000 0.0000 (105382 PWs)   bands (ev):

   -63.0586 -63.0244 -63.0085 -62.9993 -62.9870 -62.9687 -62.9555 -62.9441
   -62.9295 -62.9058 -62.8977 -62.8625 -37.3742 -37.3164 -37.3006 -37.2991
   -37.2855 -37.2673 -37.2462 -37.2361 -37.2164 -37.2115 -37.2068 -37.1851
   -37.1798 -37.1748 -37.1705 -37.1606 -37.1495 -37.1434 -37.1300 -37.1069
   -37.1001 -37.0933 -37.0746 -37.0719 -37.0681 -37.0640 -37.0545 -37.0504
   -37.0312 -37.0243 -37.0154 -37.0055 -36.9884 -36.9500 -36.8855 -36.8431
   -21.6628 -16.0827 -15.2974 -15.2576 -15.0968 -15.0266 -14.8849 -14.6179
   -14.5794 -14.5702 -14.5454 -14.5291 -14.4744 -14.4434 -14.3412 -14.2623
   -14.2523 -14.2484 -14.1952 -14.0244 -14.0099 -14.0002 -13.9726 -13.8875
    -7.9547  -7.8225  -7.6957  -7.5298  -7.4886  -7.4170  -7.3708  -7.3471
    -7.2385  -7.0651  -7.0072  -6.9253  -6.8996  -6.8031  -6.7102  -6.7013
    -6.6286  -6.5160  -6.4602  -6.4123  -6.1972  -6.1596  -6.0523  -5.9862
    -5.9230  -5.9119  -5.8630  -5.8431  -5.8037  -5.7847  -5.7393  -5.6807
    -5.6356  -5.5931  -5.4907  -5.4104  -5.3252  -5.2418  -5.1761  -5.1334
    -5.1263  -5.0717  -5.0031  -4.9471  -4.7265  -4.6893  -4.5447  -4.4685
    -4.3831  -4.3623  -4.2765  -4.2168  -4.0981  -4.0770  -3.9967  -3.9027
    -3.8534  -3.8228  -3.7463  -3.7238  -3.6782  -3.6540  -3.6028  -3.5850
    -3.5573  -3.5239  -3.3627  -3.3501  -3.2083  -3.1566  -3.0705  -2.9672
    -2.9384  -2.8706  -2.8519  -2.7980  -2.7842  -2.7346  -2.6544  -2.5666
    -2.3727  -2.1254  -2.1042  -1.9846  -0.9554  -0.8742  -0.5035  -0.3082
    -0.2690  -0.1703  -0.1607  -0.0530  -0.0013   0.0475   0.1128   0.1548
     0.1924   0.2792   0.2914   0.3582   0.3999   0.4193   0.4672   0.5116
     0.5370   0.5991   0.6313   0.6509   0.7088   0.7363   0.8163   0.8540
     0.8778   0.9099   1.0836

     the Fermi energy is    -1.4701 ev

!    total energy              =   -2246.38517334 Ry
     estimated scf accuracy    <       0.00000005 Ry
     smearing contrib. (-TS)   =      -0.00000001 Ry
     internal energy E=F+TS    =   -2246.38517333 Ry

     The total energy is F=E-TS. E is the sum of the following terms:
     one-electron contribution =  -18421.27339697 Ry
     hartree contribution      =    9198.01387538 Ry
     xc contribution           =    -392.07310558 Ry
     ewald contribution        =    7378.80924773 Ry
     one-center paw contrib.   =      -9.86179390 Ry

     convergence has been achieved in   9 iterations

     negative rho (up, down):  1.887E-04 0.000E+00

     Forces acting on atoms (cartesian axes, Ry/au):

     atom    1 type  1   force =    -0.00369137   -0.00344960   -0.00332710
     atom    2 type  2   force =    -0.00554015    0.00673280   -0.00144207
     atom    3 type  2   force =    -0.00863149    0.00580469   -0.01195187
     atom    4 type  1   force =     0.00447697    0.00199370    0.00199857
     atom    5 type  2   force =     0.00084937   -0.00552773   -0.00573920
     atom    6 type  2   force =     0.00124978    0.00476200    0.00331155
     atom    7 type  1   force =     0.00416072   -0.00633679    0.00057317
     atom    8 type  2   force =     0.00212205   -0.00358334    0.00943462
     atom    9 type  2   force =     0.01047230    0.00379995    0.00347210
     atom   10 type  1   force =     0.00020261    0.00518780   -0.00355319
     atom   11 type  2   force =     0.00457543    0.00166586   -0.01631020
     atom   12 type  2   force =    -0.00065162   -0.00244781   -0.00484704
     atom   13 type  1   force =     0.00205543    0.00095575    0.00053172
     atom   14 type  2   force =     0.00440541   -0.00196914    0.00553348
     atom   15 type  2   force =    -0.00602907    0.00785046   -0.01099160
     atom   16 type  1   force =     0.00048091    0.00330339    0.00205808
     atom   17 type  2   force =     0.00557989    0.00192017    0.00200631
     atom   18 type  2   force =    -0.00169083   -0.00171388    0.00822839
     atom   19 type  1   force =     0.00320013   -0.01720038   -0.00901402
     atom   20 type  2   force =     0.00510157   -0.00479023   -0.00652236
     atom   21 type  1   force =     0.01055810    0.00495432   -0.00559898
     atom   22 type  2   force =     0.06473227   -0.04465587    0.05115582
     atom   23 type  2   force =    -0.00481883    0.00323436    0.00369108
     atom   24 type  1   force =    -0.00343622    0.00044683   -0.00437215
     atom   25 type  2   force =     0.00576951    0.01550790    0.00129687
     atom   26 type  2   force =    -0.00545874    0.00014308   -0.00355526
     atom   27 type  1   force =    -0.00054087    0.00197180    0.00694471
     atom   28 type  2   force =    -0.00030257   -0.00272305   -0.00457362
     atom   29 type  2   force =     0.00216305    0.00228685   -0.00315460
     atom   30 type  1   force =    -0.00050715   -0.00106744    0.00681794
     atom   31 type  2   force =     0.00268374    0.00066275    0.01020138
     atom   32 type  2   force =    -0.01154174    0.00185810   -0.00008423
     atom   33 type  1   force =     0.00206539    0.00166134    0.00785420
     atom   34 type  2   force =    -0.00439438   -0.02244073   -0.01147211
     atom   35 type  2   force =    -0.00390655    0.00786818    0.00500642
     atom   36 type  3   force =    -0.07576304    0.03333387   -0.02360677
     The non-local contrib.  to forces
     atom    1 type  1   force =     0.00103488    0.02662280   -0.01167429
     atom    2 type  2   force =    -0.00391753   -0.00551993   -0.27304934
     atom    3 type  2   force =    -0.01019696   -0.00869005    0.26519997
     atom    4 type  1   force =     0.00063155    0.00617549    0.00249861
     atom    5 type  2   force =     0.00684355   -0.03328037   -0.25963343
     atom    6 type  2   force =    -0.00058837    0.00661922    0.26715696
     atom    7 type  1   force =    -0.01849747    0.00560084   -0.02267738
     atom    8 type  2   force =     0.00758911   -0.00096728   -0.26271920
     atom    9 type  2   force =     0.00601696   -0.00854957    0.27454056
     atom   10 type  1   force =    -0.00176656    0.00252031    0.00504520
     atom   11 type  2   force =     0.02253954    0.01200606   -0.27026812
     atom   12 type  2   force =    -0.00989063   -0.01977245    0.25900223
     atom   13 type  1   force =     0.00517105    0.02308541   -0.00859965
     atom   14 type  2   force =     0.00712547   -0.01132794   -0.27131013
     atom   15 type  2   force =    -0.01014899   -0.00026507    0.25692673
     atom   16 type  1   force =     0.00426093    0.03314543   -0.02714617
     atom   17 type  2   force =     0.00073204   -0.02786865   -0.25411573
     atom   18 type  2   force =    -0.00265336   -0.00117060    0.27152917
     atom   19 type  1   force =     0.00849000    0.02494461   -0.00081076
     atom   20 type  2   force =    -0.00127577   -0.01954588    0.26073348
     atom   21 type  1   force =    -0.01221459    0.01370519    0.02690186
     atom   22 type  2   force =     0.14163815   -0.07352292    0.32840431
     atom   23 type  2   force =     0.00502839   -0.01613643    0.27335698
     atom   24 type  1   force =     0.00025791    0.01894096   -0.00614459
     atom   25 type  2   force =     0.00377944   -0.00460883   -0.26590039
     atom   26 type  2   force =    -0.00107885   -0.01231563    0.26508327
     atom   27 type  1   force =    -0.00512193    0.00539070    0.00657134
[...]
     atom   28 type  2   force =     0.00215451   -0.01417396   -0.27728769
     atom   29 type  2   force =    -0.00070290   -0.00771664    0.26790296
     atom   30 type  1   force =    -0.00011554    0.02055453    0.00421235
     atom   31 type  2   force =    -0.00301288    0.00624698   -0.27199497
     atom   32 type  2   force =     0.00714475   -0.01426366    0.26814513
     atom   33 type  1   force =     0.00745284    0.00626469    0.01865891
     atom   34 type  2   force =    -0.00287422   -0.00591430   -0.27851541
     atom   35 type  2   force =     0.00024889   -0.01412174    0.26215559
     atom   36 type  3   force =    -0.01964452    0.05886842   -2.31437522
     The ionic contribution  to forces
     atom    1 type  1   force =     0.28188645    1.25021853    1.53610283
     atom    2 type  2   force =    -0.20087605    0.40023626   38.60475979
     atom    3 type  2   force =     0.09842288    0.05777193  -37.82495163
     atom    4 type  1   force =    -0.20075612    0.11210380   -0.32319124
     atom    5 type  2   force =    -0.69302264    1.16300591   38.02924335
     atom    6 type  2   force =     0.30784893   -0.37714896  -38.50621451
     atom    7 type  1   force =    -2.10724262   -2.49241149    0.74461581
     atom    8 type  2   force =    -1.19694138   -0.17833631   37.87506359
     atom    9 type  2   force =     0.37423314   -0.10001531  -38.38298542
     atom   10 type  1   force =    -0.48927048   -0.03372281    1.97511315
     atom   11 type  2   force =     0.57043227   -1.51293552   37.79415703
     atom   12 type  2   force =     0.25302622    0.32647134  -38.68579679
     atom   13 type  1   force =     0.15615930    1.53634018    1.42301303
     atom   14 type  2   force =     0.53788076    1.00691901   38.03399599
     atom   15 type  2   force =     0.02784408    0.06218122  -38.28538571
     atom   16 type  1   force =     0.44170183    2.88142066    0.06173652
     atom   17 type  2   force =     0.87704072    1.06875835   38.05310540
     atom   18 type  2   force =    -0.26442295   -0.41208544  -38.49900830
     atom   19 type  1   force =     2.90744523   -2.73802218   -1.72806397
     atom   20 type  2   force =     0.14132795   -0.07968422  -39.52549307
     atom   21 type  1   force =     1.01269142    0.29708513   -2.77027008
     atom   22 type  2   force =     0.47783143   -1.33257622   28.36493233
     atom   23 type  2   force =    -0.21416932    0.30820561  -38.52789840
     atom   24 type  1   force =    -0.47991382    1.01088334    1.80537894
     atom   25 type  2   force =    -0.28950457    1.11840300   38.36977762
     atom   26 type  2   force =    -0.10252808    0.12772813  -38.22680513
     atom   27 type  1   force =    -0.23996101   -0.29779855   -0.01465068
     atom   28 type  2   force =    -0.16461098    0.49192968   38.05594561
     atom   29 type  2   force =    -0.04807830   -0.13689616  -37.93713016
     atom   30 type  1   force =    -0.69206180   -1.26891805    0.71353268
     atom   31 type  2   force =     0.51523548   -0.93894097   37.68690873
     atom   32 type  2   force =    -0.52307529   -0.11023894  -38.75417726
     atom   33 type  1   force =    -0.54518753    0.31990004   -1.18075732
     atom   34 type  2   force =    -1.05861745   -0.49670447   38.22128488
     atom   35 type  2   force =    -0.08803698    0.11798589  -38.25027896
     atom   36 type  3   force =     0.61726930   -1.15111244   50.07439135
     The local contribution  to forces
     atom    1 type  1   force =    -0.28022581   -1.27354002   -1.53064144
     atom    2 type  2   force =     0.20090753   -0.38857768  -38.35506830
     atom    3 type  2   force =    -0.09593388   -0.04531353   37.57609565
     atom    4 type  1   force =     0.19611789   -0.11753824    0.32130525
     atom    5 type  2   force =     0.68906650   -1.14083795  -37.79272569
     atom    6 type  2   force =    -0.30767330    0.37843253   38.26183760
     atom    7 type  1   force =     2.12070359    2.48607276   -0.72173766
     atom    8 type  2   force =     1.18860343    0.17481416  -37.62756977
     atom    9 type  2   force =    -0.36798370    0.11126575   38.13385649
     atom   10 type  1   force =     0.48723553    0.02774231   -1.98401750
     atom   11 type  2   force =    -0.57504529    1.50581742  -37.55072167
     atom   12 type  2   force =    -0.24529034   -0.31070931   38.44314477
     atom   13 type  1   force =    -0.16067246   -1.55687061   -1.41550610
     atom   14 type  2   force =    -0.53770163   -0.99924762  -37.78208162
     atom   15 type  2   force =    -0.02709192   -0.05361334   38.04405772
     atom   16 type  1   force =    -0.44565455   -2.91007595   -0.02787358
     atom   17 type  2   force =    -0.87155766   -1.04515672  -37.81664546
     atom   18 type  2   force =     0.26399299    0.41523000   38.25267226
     atom   19 type  1   force =    -2.92211734    2.72219494    1.73629465
     atom   20 type  2   force =    -0.13998295    0.09274719   39.28330583
     atom   21 type  1   force =    -1.00382890   -0.30881104    2.74683782
     atom   22 type  2   force =    -0.49133131    1.32508864  -28.65350421
     atom   23 type  2   force =     0.20672343   -0.29396727   38.27371641
     atom   24 type  1   force =     0.48076897   -1.02800488   -1.80777370
     atom   25 type  2   force =     0.28795501   -1.10784899  -38.11888393
     atom   26 type  2   force =     0.10061010   -0.11801668   37.98324074
     atom   27 type  1   force =     0.24772210    0.29383544    0.01256361
     atom   28 type  2   force =     0.16302840   -0.47924917  -37.80023747
     atom   29 type  2   force =     0.04830860    0.14408305   37.68959285
     atom   30 type  1   force =     0.69163245    1.24780114   -0.71802469
     atom   31 type  2   force =    -0.51261818    0.93297498  -37.43662540
     atom   32 type  2   force =     0.51544359    0.12367882   38.50678985
     atom   33 type  1   force =     0.53929977   -0.32774054    1.16205203
     atom   34 type  2   force =     1.06008501    0.50176775  -37.96382594
     atom   35 type  2   force =     0.08804793   -0.10460930   38.00827573
     atom   36 type  3   force =    -0.59752884    1.09514515  -47.78610315
     The core correction contribution to forces
     atom    1 type  1   force =     0.00000000    0.00000000    0.00000000
     atom    2 type  2   force =    -0.00001696    0.00048382    0.02102367
     atom    3 type  2   force =     0.00020677    0.00052021   -0.02094269
     atom    4 type  1   force =     0.00000000    0.00000000    0.00000000
     atom    5 type  2   force =    -0.00042876    0.00108025    0.02050781
     atom    6 type  2   force =     0.00019617   -0.00043021   -0.02086376
     atom    7 type  1   force =     0.00000000    0.00000000    0.00000000
     atom    8 type  2   force =    -0.00044823    0.00008411    0.02100201
     atom    9 type  2   force =     0.00069355    0.00067149   -0.02102086
     atom   10 type  1   force =     0.00000000    0.00000000    0.00000000
     atom   11 type  2   force =    -0.00009305   -0.00064150    0.02108771
     atom   12 type  2   force =     0.00059739    0.00113585   -0.02083496
     atom   13 type  1   force =     0.00000000    0.00000000    0.00000000
     atom   14 type  2   force =     0.00002208    0.00009153    0.02127421
     atom   15 type  2   force =    -0.00000911    0.00044789   -0.02068200
     atom   16 type  1   force =     0.00000000    0.00000000    0.00000000
     atom   17 type  2   force =     0.00054016    0.00115839    0.02053514
     atom   18 type  2   force =    -0.00032884   -0.00036393   -0.02089426
     atom   19 type  1   force =     0.00000000    0.00000000    0.00000000
     atom   20 type  2   force =     0.00015059    0.00068912   -0.02121986
     atom   21 type  1   force =     0.00000000    0.00000000    0.00000000
     atom   22 type  2   force =    -0.00093174   -0.00054766   -0.01001668
     atom   23 type  2   force =    -0.00069554    0.00098564   -0.02123920
     atom   24 type  1   force =     0.00000000    0.00000000    0.00000000
     atom   25 type  2   force =     0.00002869    0.00038369    0.02125955
     atom   26 type  2   force =    -0.00008119    0.00052134   -0.02077798
     atom   27 type  1   force =     0.00000000    0.00000000    0.00000000
     atom   28 type  2   force =    -0.00012421    0.00092108    0.02130003
     atom   29 type  2   force =     0.00008056    0.00017944   -0.02084003
     atom   30 type  1   force =     0.00000000    0.00000000    0.00000000
     atom   31 type  2   force =     0.00017165    0.00002182    0.02134536
     atom   32 type  2   force =    -0.00076764    0.00071788   -0.02099377
     atom   33 type  1   force =     0.00000000    0.00000000    0.00000000
     atom   34 type  2   force =     0.00017138    0.00017589    0.02163897
     atom   35 type  2   force =    -0.00006680    0.00074221   -0.02077081
     atom   36 type  3   force =     0.00019748   -0.00066832    0.02454823
     The Hubbard contrib.    to forces
     atom    1 type  1   force =     0.00000000    0.00000000    0.00000000
     atom    2 type  2   force =     0.00000000    0.00000000    0.00000000
     atom    3 type  2   force =     0.00000000    0.00000000    0.00000000
     atom    4 type  1   force =     0.00000000    0.00000000    0.00000000
     atom    5 type  2   force =     0.00000000    0.00000000    0.00000000
     atom    6 type  2   force =     0.00000000    0.00000000    0.00000000
     atom    7 type  1   force =     0.00000000    0.00000000    0.00000000
     atom    8 type  2   force =     0.00000000    0.00000000    0.00000000
     atom    9 type  2   force =     0.00000000    0.00000000    0.00000000
     atom   10 type  1   force =     0.00000000    0.00000000    0.00000000
     atom   11 type  2   force =     0.00000000    0.00000000    0.00000000
     atom   12 type  2   force =     0.00000000    0.00000000    0.00000000
     atom   13 type  1   force =     0.00000000    0.00000000    0.00000000
     atom   14 type  2   force =     0.00000000    0.00000000    0.00000000
     atom   15 type  2   force =     0.00000000    0.00000000    0.00000000
     atom   16 type  1   force =     0.00000000    0.00000000    0.00000000
     atom   17 type  2   force =     0.00000000    0.00000000    0.00000000
     atom   18 type  2   force =     0.00000000    0.00000000    0.00000000
     atom   19 type  1   force =     0.00000000    0.00000000    0.00000000
     atom   20 type  2   force =     0.00000000    0.00000000    0.00000000
     atom   21 type  1   force =     0.00000000    0.00000000    0.00000000
     atom   22 type  2   force =     0.00000000    0.00000000    0.00000000
     atom   23 type  2   force =     0.00000000    0.00000000    0.00000000
     atom   24 type  1   force =     0.00000000    0.00000000    0.00000000
     atom   25 type  2   force =     0.00000000    0.00000000    0.00000000
     atom   26 type  2   force =     0.00000000    0.00000000    0.00000000
     atom   27 type  1   force =     0.00000000    0.00000000    0.00000000
     atom   28 type  2   force =     0.00000000    0.00000000    0.00000000
     atom   29 type  2   force =     0.00000000    0.00000000    0.00000000
     atom   30 type  1   force =     0.00000000    0.00000000    0.00000000
     atom   31 type  2   force =     0.00000000    0.00000000    0.00000000
     atom   32 type  2   force =     0.00000000    0.00000000    0.00000000
     atom   33 type  1   force =     0.00000000    0.00000000    0.00000000
     atom   34 type  2   force =     0.00000000    0.00000000    0.00000000
     atom   35 type  2   force =     0.00000000    0.00000000    0.00000000
     atom   36 type  3   force =     0.00000000    0.00000000    0.00000000
     The SCF correction term to forces
     atom    1 type  1   force =     0.00001389    0.00000978   -0.00002123
     atom    2 type  2   force =     0.00001158   -0.00000586    0.00000127
     atom    3 type  2   force =    -0.00000262   -0.00000331   -0.00000904
     atom    4 type  1   force =     0.00001616    0.00001728   -0.00001363
     atom    5 type  2   force =     0.00000339    0.00000924   -0.00000409
     atom    6 type  2   force =     0.00000340    0.00000922   -0.00001180
     atom    7 type  1   force =    -0.00000463   -0.00001238   -0.00002913
     atom    8 type  2   force =     0.00001289    0.00000070    0.00000370
     atom    9 type  2   force =    -0.00000071   -0.00000275   -0.00000973
     atom   10 type  1   force =     0.00002809   -0.00002395   -0.00000683
     atom   11 type  2   force =     0.00001740   -0.00000831   -0.00000651
     atom   12 type  2   force =     0.00000192   -0.00000786   -0.00001471
     atom   13 type  1   force =    -0.00002071    0.00000735   -0.00001074
     atom   14 type  2   force =    -0.00000510    0.00000674   -0.00000812
     atom   15 type  2   force =    -0.00000050   -0.00000153   -0.00001102
     atom   16 type  1   force =    -0.00001372    0.00001635   -0.00001666
     atom   17 type  2   force =    -0.00001415    0.00001313    0.00000216
     atom   18 type  2   force =    -0.00000264    0.00001088   -0.00000254
     atom   19 type  1   force =    -0.00002606   -0.00000457   -0.00000416
     atom   20 type  2   force =    -0.00000122    0.00000543   -0.00001586
     atom   21 type  1   force =    -0.00001814   -0.00002036   -0.00003353
     atom   22 type  2   force =    -0.00003761   -0.00001777   -0.00001492
     atom   23 type  2   force =    -0.00000818   -0.00000736   -0.00000294
     atom   24 type  1   force =     0.00001638    0.00000047    0.00000073
     atom   25 type  2   force =    -0.00000602   -0.00001189   -0.00000298
     atom   26 type  2   force =     0.00000149   -0.00001180    0.00000577
     atom   27 type  1   force =     0.00000421    0.00002394    0.00000950
     atom   28 type  2   force =     0.00000726    0.00001323    0.00000043
     atom   29 type  2   force =    -0.00000247    0.00001125   -0.00000162
     atom   30 type  1   force =     0.00002185    0.00000924    0.00001331
     atom   31 type  2   force =    -0.00000178    0.00000434    0.00000992
     atom   32 type  2   force =     0.00000350    0.00000058   -0.00000082
     atom   33 type  1   force =    -0.00002244   -0.00002620    0.00001333
     atom   34 type  2   force =     0.00002102   -0.00000397    0.00000198
     atom   35 type  2   force =     0.00000986    0.00000006    0.00000831
     atom   36 type  3   force =    -0.00008366   -0.00006300   -0.00000883

     Total force =     0.006688     Total SCF correction =     0.000168
     Energy error            =      8.5E-05 Ry
     Gradient error          =      2.2E-03 Ry/Bohr

     bfgs converged in  21 scf cycles and  20 bfgs steps
     (criteria: energy <  1.0E-04 Ry, force <  1.0E-02 Ry/Bohr)

     End of BFGS Geometry Optimization

     Final energy             =   -2246.4457239709 Ry

     File ./MoS2-V-O.bfgs deleted, as requested
Begin final coordinates

ATOMIC_POSITIONS (angstrom)
Mo            6.5839422169        1.7433847801        2.7619453571
S             8.1535849998        0.8363043539        4.3768534423
S             8.1673996477        0.8267655011        1.1892204166
Mo            8.1440810628        4.4861333096        2.7144367759
S             6.5395318271        3.6567591904        4.3041967180
S             6.5828891805        3.5449057776        1.1083893301
Mo            6.5420012002        7.1721706818        2.6644341470
S             8.1087984649        6.2970076416        4.3014283471
S             8.1705254876        6.3154020626        1.1143508534
Mo            8.1530066078        9.9143060936        2.7783143069
S             6.5303679796        8.9301072494        4.3302472877
S             6.6198201917        9.0154355101        1.1217641983
Mo            3.4505790960        1.7437541502        2.7674501744
S             5.0206978500        0.8003011815        4.3549783825
S             5.0183399624        0.8419220783        1.1623007886
Mo            5.0163899395        4.5225782499        2.6459206487
S             3.4983158109        3.6566571478        4.3108671015
S             3.4510042919        3.5487693276        1.1145211667
Mo            3.4951923241        7.1380703629        2.6511796983
S             5.0323333647        6.2962666223        1.0262178688
Mo            5.0301534109        9.9115948865        2.7226906089
S             3.4604489759        8.9414694944        4.2349889931
S             3.4136992248        9.0257963370        1.1434618626
Mo            0.2891308859        1.7401378198        2.7793713014
S             1.8749275268        0.8404639932        4.3802804960
S             1.8658390528        0.8557623942        1.1760359178
Mo            1.8904859951        4.4898556649        2.7243037961
S             0.2841568151        3.6067312293        4.3277285377
S             0.2906340036        3.5521395060        1.1599509639
Mo            0.3000193689        7.2057610353        2.7457932883
S             1.9501097250        6.2965579271        4.3204749706
S             1.8656286727        6.3042928964        1.1064578085
Mo            1.8425354362        9.9502464997        2.7604816521
S             0.2919693319        9.0178078982        4.3666973903
S             0.2726277316        9.0358221842        1.1725509073
O             3.4741837934        8.9197609276        5.7344760322
End final coordinates



     Writing all to output data dir ./MoS2-V-O.save/
 
     init_run     :      4.67s CPU      5.20s WALL (       1 calls)
     electrons    :   1883.56s CPU   2130.54s WALL (      21 calls)
     update_pot   :     63.53s CPU     67.56s WALL (      20 calls)
     forces       :     57.48s CPU     65.71s WALL (      21 calls)

     Called by init_run:
     wfcinit      :      0.48s CPU      0.53s WALL (       1 calls)
     potinit      :      2.44s CPU      2.70s WALL (       1 calls)
     hinit0       :      0.44s CPU      0.47s WALL (       1 calls)

     Called by electrons:
     c_bands      :    274.61s CPU    281.46s WALL (     193 calls)
     sum_band     :    108.34s CPU    139.35s WALL (     193 calls)
     v_of_rho     :    182.69s CPU    222.05s WALL (     208 calls)
     newd         :     64.35s CPU     93.84s WALL (     208 calls)
     PAW_pot      :      8.25s CPU      8.28s WALL (     228 calls)
     mix_rho      :   1266.56s CPU   1408.81s WALL (     193 calls)

     Called by c_bands:
     init_us_2    :      4.43s CPU      4.75s WALL (     407 calls)
     init_us_2:cp :      4.42s CPU      4.75s WALL (     407 calls)
     regterg      :    259.88s CPU    266.37s WALL (     193 calls)

     Called by *egterg:
     rdiaghg      :     17.95s CPU     18.18s WALL (     995 calls)
     h_psi        :    168.82s CPU    170.40s WALL (    1022 calls)
     s_psi        :     16.01s CPU     16.06s WALL (    1022 calls)
     g_psi        :      0.82s CPU      0.83s WALL (     828 calls)

     Called by h_psi:
     h_psi:calbec :     17.93s CPU     18.06s WALL (    1022 calls)
     vloc_psi     :    132.98s CPU    134.30s WALL (    1022 calls)
     add_vuspsi   :     15.80s CPU     15.91s WALL (    1022 calls)

     General routines
     calbec       :     26.10s CPU     26.30s WALL (    1319 calls)
     fft          :    127.65s CPU    147.56s WALL (   13911 calls)
     ffts         :    567.88s CPU    704.91s WALL (  309909 calls)
     fftw         :     85.04s CPU     85.73s WALL (  118090 calls)
     interpolate  :      2.57s CPU      2.96s WALL (     208 calls)
 
     Parallel routines
 
     PWSCF        :  33m38.37s CPU  38m 2.34s WALL

 
   This run was terminated on:  21:26:18   1Nov2023            

=------------------------------------------------------------------------------=
   JOB DONE.
=------------------------------------------------------------------------------=
