
     Program PWSCF v.7.2 starts on  1Nov2023 at 22: 8:27 

     This program is part of the open-source Quantum ESPRESSO suite
     for quantum simulation of materials; please cite
         "P. Giannozzi et al., J. Phys.:Condens. Matter 21 395502 (2009);
         "P. Giannozzi et al., J. Phys.:Condens. Matter 29 465901 (2017);
         "P. Giannozzi et al., J. Chem. Phys. 152 154105 (2020);
          URL http://www.quantum-espresso.org", 
     in publications or presentations arising from this work. More details at
     http://www.quantum-espresso.org/quote

     Parallel version (MPI & OpenMP), running on      48 processor cores
     Number of MPI processes:                48
     Threads/MPI process:                     1

     MPI processes distributed on     1 nodes
     149884 MiB available memory on the printing compute node when the environment starts
 
     Waiting for input...
     Reading input from standard input
Warning: card &CELL ignored
Warning: card CELL_DYNAMICS = 'BFGS', ignored
Warning: card CELL_DOFREE = '2DXY' ignored
Warning: card / ignored

     Current dimensions of program PWSCF are:
     Max number of different atomic species (ntypx) = 10
     Max number of k-points (npk) =  40000
     Max angular momentum in pseudopotentials (lmaxx) =  4
     file O.pbe-n-kjpaw_psl.0.1.UPF: wavefunction(s)  2P renormalized

     IMPORTANT: XC functional enforced from input :
     Exchange-correlation= RVV10
                           (   1   4  13   4  26   0   0)
     Any further DFT definition will be discarded
     Please, verify this is what you really want


     gamma-point specific algorithms are used
     signal trapping enabled: kill the code with -SIGUSR1 to stop cleanly the simulation 
 
     R & G space division:  proc/nbgrp/npool/nimage =      48
     Subspace diagonalization in iterative solution of the eigenvalue problem:
     one sub-group per band group will be used
     scalapack distributed-memory algorithm (size of sub-group:  2*  2 procs)

 
     Parallelization info
     --------------------
     sticks:   dense  smooth     PW     G-vecs:    dense   smooth      PW
     Min         396     194     47               101632    35090    4376
     Max         398     196     50               101674    35128    4410
     Sum       19091    9389   2349              4879585  1685513  210763
 
     Using Slab Decomposition
 


     bravais-lattice index     =            0
     lattice parameter (alat)  =      17.8707  a.u.
     unit-cell volume          =   17436.2743 (a.u.)^3
     number of atoms/cell      =           36
     number of atomic types    =            3
     number of electrons       =       312.00
     number of Kohn-Sham states=          187
     kinetic-energy cutoff     =      80.0000  Ry
     charge density cutoff     =     650.0000  Ry
     scf convergence threshold =      1.0E-06
     mixing beta               =       0.7000
     number of iterations used =            8  local-TF  mixing
     energy convergence thresh.=      1.0E-04
     force convergence thresh. =      1.0E-02
     Exchange-correlation= RVV10
                           (   1   4  13   4  26   0   0)
     nstep                     =          200


     celldm(1)=  17.870686  celldm(2)=   0.000000  celldm(3)=   0.000000
     celldm(4)=   0.000000  celldm(5)=   0.000000  celldm(6)=   0.000000

     crystal axes: (cart. coord. in units of alat)
               a(1) = (   1.000000   0.000000   0.000000 )  
               a(2) = (   0.000000   1.155671   0.000000 )  
               a(3) = (   0.000000   0.000000   2.643601 )  

     reciprocal axes: (cart. coord. in units 2 pi/alat)
               b(1) = (  1.000000  0.000000  0.000000 )  
               b(2) = (  0.000000  0.865298  0.000000 )  
               b(3) = (  0.000000  0.000000  0.378272 )  


     PseudoPot. # 1 for Mo read from file:
     ../pseudo/Mo_ONCV_PBE-1.0.oncvpsp.upf
     MD5 check sum: 1b5d28e075c9ccadda658a603575cd1f
     Pseudo is Norm-conserving, Zval = 14.0
     Generated using ONCVPSP code by D. R. Hamann
     Using radial grid of 1526 points,  6 beta functions with: 
                l(1) =   0
                l(2) =   0
                l(3) =   1
                l(4) =   1
                l(5) =   2
                l(6) =   2

     PseudoPot. # 2 for S  read from file:
     ../pseudo/s_pbe_v1.4.uspp.F.UPF
     MD5 check sum: 88d86576ff6df21479756cfb9bdac1df
     Pseudo is Ultrasoft + core correction, Zval =  6.0
     Generated by new atomic code, or converted to UPF format
     Using radial grid of  907 points,  6 beta functions with: 
                l(1) =   0
                l(2) =   0
                l(3) =   1
                l(4) =   1
                l(5) =   2
                l(6) =   2
     Q(r) pseudized with  8 coefficients,  rinner =    1.300   1.300   1.300
                                                       1.300   1.300

     PseudoPot. # 3 for O  read from file:
     ../pseudo/O.pbe-n-kjpaw_psl.0.1.UPF
     MD5 check sum: 0234752ac141de4415c5fc33072bef88
     Pseudo is Projector augmented-wave + core cor, Zval =  6.0
     Generated using "atomic" code by A. Dal Corso  v.5.0.99 svn rev. 10869
     Shape of augmentation charge: BESSEL
     Using radial grid of 1095 points,  4 beta functions with: 
                l(1) =   0
                l(2) =   0
                l(3) =   1
                l(4) =   1
     Q(r) pseudized with 0 coefficients 


     atomic species   valence    mass     pseudopotential
        Mo            14.00    95.94000     Mo( 1.00)
        S              6.00    32.06500     S ( 1.00)
        O              6.00    15.99940     O ( 1.00)

     No symmetry found



   Cartesian axes

     site n.     atom                  positions (alat units)
         1           Mo  tau(   1) = (   0.6952221   0.1890506   0.2985846  )
         2           S   tau(   2) = (   0.8646417   0.0856217   0.4689279  )
         3           S   tau(   3) = (   0.8663890   0.0857843   0.1351291  )
         4           Mo  tau(   4) = (   0.8560186   0.4753274   0.2873942  )
         5           S   tau(   5) = (   0.6873294   0.3936244   0.4596353  )
         6           S   tau(   6) = (   0.6929804   0.3713468   0.1185692  )
         7           Mo  tau(   7) = (   0.6862796   0.7633098   0.2825370  )
         8           S   tau(   8) = (   0.8545980   0.6708292   0.4486168  )
         9           S   tau(   9) = (   0.8545123   0.6666874   0.1146125  )
        10           Mo  tau(  10) = (   0.8629403   1.0471007   0.3006803  )
        11           S   tau(  11) = (   0.6868280   0.9456650   0.4634891  )
        12           S   tau(  12) = (   0.6998113   0.9568511   0.1205389  )
        13           Mo  tau(  13) = (   0.3618216   0.1847309   0.2935964  )
        14           S   tau(  14) = (   0.5260962   0.0863870   0.4600448  )
        15           S   tau(  15) = (   0.5348379   0.0894875   0.1297123  )
        16           Mo  tau(  16) = (   0.5265817   0.4772436   0.2784130  )
        17           S   tau(  17) = (   0.3624753   0.3882513   0.4525556  )
        18           S   tau(  18) = (   0.3635411   0.3752055   0.1119148  )
        19           Mo  tau(  19) = (   0.3652268   0.7630864   0.2781795  )
        20           S   tau(  20) = (   0.5269494   0.6690381   0.1096838  )
        21           Mo  tau(  21) = (   0.5300192   1.0470394   0.2900995  )
        22           S   tau(  22) = (   0.3670346   0.9457522   0.4574073  )
        23           S   tau(  23) = (   0.3604225   0.9585725   0.1159032  )
        24           Mo  tau(  24) = (   0.0313099   0.1847895   0.3013130  )
        25           S   tau(  25) = (   0.1956761   0.0838230   0.4650863  )
        26           S   tau(  26) = (   0.1967693   0.0903508   0.1278874  )
        27           Mo  tau(  27) = (   0.1967578   0.4753919   0.2813011  )
        28           S   tau(  28) = (   0.0287851   0.3864324   0.4586755  )
        29           S   tau(  29) = (   0.0244514   0.3729871   0.1239344  )
        30           Mo  tau(  30) = (   0.0286728   0.7631204   0.2856894  )
        31           S   tau(  31) = (   0.2011512   0.6675435   0.4465001  )
        32           S   tau(  32) = (   0.1969214   0.6672839   0.1104564  )
        33           Mo  tau(  33) = (   0.1950294   1.0511147   0.2932237  )
        34           S   tau(  34) = (   0.0312912   0.9612169   0.4667423  )
        35           S   tau(  35) = (   0.0292670   0.9563028   0.1216485  )
        36           O   tau(  36) = (   0.6666667   1.0272628   0.5656742  )

     number of k points=     1  Gaussian smearing, width (Ry)=  0.0100
                       cart. coord. in units 2pi/alat
        k(    1) = (   0.0000000   0.0000000   0.0000000), wk =   2.0000000

     Dense  grid:  2439793 G-vectors     FFT dimensions: ( 150, 180, 384)

     Smooth grid:   842757 G-vectors     FFT dimensions: ( 108, 120, 270)

     Estimated max dynamical RAM per process >     269.22 MB

     Estimated total dynamical RAM >      12.62 GB

     Initial potential from superposition of free atoms

     starting charge     311.9873, renormalised to     312.0000

     negative rho (up, down):  2.756E-04 0.000E+00


---------------------------------------------------------------------------------
Carrying out rVV10 run using the following parameters:
Nqs =      20    Nr_points =    1024   r_max =   100.000
b_value =  6.30000    beta =  0.00901
     q_mesh =  0.00010000  0.00030000  0.00058939  0.00100810
               0.00161396  0.00249058  0.00375900  0.00559430
               0.00824984  0.01209221  0.01765183  0.02569619
               0.03733578  0.05417739  0.07854596  0.11380545
               0.16482331  0.23864234  0.34545298  0.50000000

Gradients computed in Reciprocal space

---------------------------------------------------------------------------------


     Starting wfcs are  216 randomized atomic wfcs
     Checking if some PAW data can be deallocated... 

     total cpu time spent up to now is        5.1 secs

     Self-consistent Calculation

     iteration #  1     ecut=    80.00 Ry     beta= 0.70
     Davidson diagonalization with overlap
     ethr =  1.00E-02,  avg # of iterations =  2.0

     Threshold (ethr) on eigenvalues was too large:
     Diagonalizing with lowered threshold

     Davidson diagonalization with overlap
     ethr =  4.76E-04,  avg # of iterations =  4.0

     negative rho (up, down):  3.271E-08 0.000E+00

     total cpu time spent up to now is       19.3 secs

     total energy              =   -2246.11302381 Ry
     estimated scf accuracy    <       1.73009481 Ry

     iteration #  2     ecut=    80.00 Ry     beta= 0.70
     Davidson diagonalization with overlap
     ethr =  5.55E-04,  avg # of iterations =  4.0

     total cpu time spent up to now is       23.7 secs

     total energy              =   -2246.10462102 Ry
     estimated scf accuracy    <       0.57112377 Ry

     iteration #  3     ecut=    80.00 Ry     beta= 0.70
     Davidson diagonalization with overlap
     ethr =  1.83E-04,  avg # of iterations =  2.0

     total cpu time spent up to now is       27.5 secs

     total energy              =   -2246.12196269 Ry
     estimated scf accuracy    <       0.11243868 Ry

     iteration #  4     ecut=    80.00 Ry     beta= 0.70
     Davidson diagonalization with overlap
     ethr =  3.60E-05,  avg # of iterations = 18.0

     total cpu time spent up to now is       32.3 secs

     total energy              =   -2246.13924226 Ry
     estimated scf accuracy    <       0.02391786 Ry

     iteration #  5     ecut=    80.00 Ry     beta= 0.70
     Davidson diagonalization with overlap
     ethr =  7.67E-06,  avg # of iterations =  2.0

     total cpu time spent up to now is       35.8 secs

     total energy              =   -2246.13841555 Ry
     estimated scf accuracy    <       0.01544592 Ry

     iteration #  6     ecut=    80.00 Ry     beta= 0.70
     Davidson diagonalization with overlap
     ethr =  4.95E-06,  avg # of iterations =  1.0

     total cpu time spent up to now is       39.2 secs

     total energy              =   -2246.13742427 Ry
     estimated scf accuracy    <       0.01018544 Ry

     iteration #  7     ecut=    80.00 Ry     beta= 0.70
     Davidson diagonalization with overlap
     ethr =  3.26E-06,  avg # of iterations =  2.0

     negative rho (up, down):  3.363E-05 0.000E+00

     total cpu time spent up to now is       44.2 secs

     total energy              =   -2246.13645899 Ry
     estimated scf accuracy    <       0.00595826 Ry

     iteration #  8     ecut=    80.00 Ry     beta= 0.70
     Davidson diagonalization with overlap
     ethr =  1.91E-06,  avg # of iterations = 20.0

     negative rho (up, down):  1.483E-02 0.000E+00

     total cpu time spent up to now is       50.6 secs

     total energy              =   -2246.13567814 Ry
     estimated scf accuracy    <       0.00348276 Ry

     iteration #  9     ecut=    80.00 Ry     beta= 0.70
     Davidson diagonalization with overlap
     ethr =  1.12E-06,  avg # of iterations =  2.0

     negative rho (up, down):  3.099E-02 0.000E+00

     total cpu time spent up to now is       56.4 secs

     total energy              =   -2246.13557744 Ry
     estimated scf accuracy    <       0.00179964 Ry

     iteration # 10     ecut=    80.00 Ry     beta= 0.70
     Davidson diagonalization with overlap
     ethr =  5.77E-07,  avg # of iterations =  2.0

     negative rho (up, down):  2.394E-02 0.000E+00

     total cpu time spent up to now is       62.9 secs

     total energy              =   -2246.13557065 Ry
     estimated scf accuracy    <       0.00064800 Ry

     iteration # 11     ecut=    80.00 Ry     beta= 0.70
     Davidson diagonalization with overlap
     ethr =  2.08E-07,  avg # of iterations =  2.0

     negative rho (up, down):  1.052E-02 0.000E+00

     total cpu time spent up to now is       69.5 secs

     total energy              =   -2246.13554753 Ry
     estimated scf accuracy    <       0.00008842 Ry

     iteration # 12     ecut=    80.00 Ry     beta= 0.70
     Davidson diagonalization with overlap
     ethr =  2.83E-08,  avg # of iterations =  8.0

     negative rho (up, down):  3.832E-03 0.000E+00

     total cpu time spent up to now is       77.4 secs

     total energy              =   -2246.13560235 Ry
     estimated scf accuracy    <       0.00001709 Ry

     iteration # 13     ecut=    80.00 Ry     beta= 0.70
     Davidson diagonalization with overlap
     ethr =  5.48E-09,  avg # of iterations =  2.0

     negative rho (up, down):  4.818E-04 0.000E+00

     total cpu time spent up to now is       85.7 secs

     total energy              =   -2246.13560834 Ry
     estimated scf accuracy    <       0.00000436 Ry

     iteration # 14     ecut=    80.00 Ry     beta= 0.70
     Davidson diagonalization with overlap
     ethr =  1.40E-09,  avg # of iterations =  2.0

     negative rho (up, down):  2.330E-04 0.000E+00

     total cpu time spent up to now is       89.1 secs

     End of self-consistent calculation

          k = 0.0000 0.0000 0.0000 (105382 PWs)   bands (ev):

   -62.9265 -62.9014 -62.8840 -62.8620 -62.8419 -62.8375 -62.8279 -62.8228
   -62.8168 -62.8027 -62.6629 -62.6389 -37.2575 -37.2159 -37.1837 -37.1702
   -37.1393 -37.1148 -37.1042 -37.0884 -37.0740 -37.0685 -37.0616 -37.0463
   -37.0349 -37.0322 -37.0262 -37.0178 -37.0084 -37.0029 -36.9968 -36.9923
   -36.9869 -36.9799 -36.9734 -36.9512 -36.9419 -36.9133 -36.9024 -36.8905
   -36.8519 -36.8426 -36.8123 -36.8084 -36.7893 -36.7833 -36.7672 -36.6933
   -26.5881 -15.9448 -15.1643 -15.1429 -14.9686 -14.9099 -14.7389 -14.5148
   -14.4913 -14.4626 -14.4047 -14.3913 -14.3329 -14.2978 -14.2366 -14.1426
   -14.1216 -14.1085 -14.0356 -13.9299 -13.8690 -13.8674 -13.8146 -13.2077
    -9.5060  -9.3492  -8.2791  -7.5857  -7.4480  -7.2911  -7.2649  -7.2282
    -7.1271  -7.0937  -7.0591  -6.8029  -6.7795  -6.7340  -6.6593  -6.6106
    -6.5111  -6.4216  -6.3966  -6.2667  -6.1100  -6.0563  -5.9619  -5.8933
    -5.8280  -5.8041  -5.7656  -5.7425  -5.6789  -5.6684  -5.6279  -5.5554
    -5.5320  -5.4931  -5.4023  -5.3390  -5.2620  -5.1815  -5.1060  -5.0366
    -4.9982  -4.9587  -4.9284  -4.8561  -4.7614  -4.6399  -4.5161  -4.3277
    -4.2812  -4.2436  -4.1822  -4.1091  -4.0603  -3.9852  -3.8802  -3.7741
    -3.7480  -3.7189  -3.6487  -3.6049  -3.5865  -3.5124  -3.4809  -3.4414
    -3.4338  -3.3772  -3.2537  -3.2242  -3.1926  -3.0109  -2.9882  -2.8281
    -2.8004  -2.7265  -2.7075  -2.6746  -2.6520  -2.6150  -2.4509  -2.3740
    -2.2016  -2.0422  -1.9745  -1.8688  -1.0689  -0.7410  -0.3147  -0.1537
    -0.1149  -0.0571  -0.0427   0.0947   0.1488   0.1814   0.2720   0.3071
     0.3457   0.3892   0.4302   0.4594   0.5110   0.5567   0.5628   0.6549
     0.6800   0.7354   0.7674   0.7881   0.8118   0.8525   0.9220   0.9674
     0.9797   1.1060   1.2989

     the Fermi energy is    -1.4688 ev

!    total energy              =   -2246.13560891 Ry
     estimated scf accuracy    <       0.00000052 Ry
     smearing contrib. (-TS)   =      -0.00000200 Ry
     internal energy E=F+TS    =   -2246.13560691 Ry

     The total energy is F=E-TS. E is the sum of the following terms:
     one-electron contribution =  -18466.46278146 Ry
     hartree contribution      =    9221.61579109 Ry
     xc contribution           =    -392.53627268 Ry
     ewald contribution        =    7401.08529004 Ry
     one-center paw contrib.   =      -9.83763391 Ry

     convergence has been achieved in  14 iterations

     negative rho (up, down):  2.330E-04 0.000E+00

     Forces acting on atoms (cartesian axes, Ry/au):

     atom    1 type  1   force =     0.01394106   -0.02883684    0.00848434
     atom    2 type  2   force =    -0.01150406    0.01862697    0.00104114
     atom    3 type  2   force =    -0.01264575    0.01085774   -0.00348591
     atom    4 type  1   force =     0.00400732    0.00521393    0.00382801
     atom    5 type  2   force =    -0.00180776   -0.00634875   -0.00795056
     atom    6 type  2   force =    -0.00151076    0.01271688   -0.00120831
     atom    7 type  1   force =    -0.01708679   -0.03061531    0.01674380
     atom    8 type  2   force =     0.00938751   -0.00993830    0.01177217
     atom    9 type  2   force =     0.01420919    0.00556862    0.00685545
     atom   10 type  1   force =    -0.00749256    0.00478278   -0.04504052
     atom   11 type  2   force =     0.15878266   -0.52385459   -0.84518115
     atom   12 type  2   force =    -0.00129120    0.00075660    0.00863325
     atom   13 type  1   force =     0.00435823    0.00670216   -0.00889427
     atom   14 type  2   force =    -0.00072987    0.01110595    0.00687955
     atom   15 type  2   force =    -0.01052684    0.00676996   -0.00850946
     atom   16 type  1   force =     0.00193033    0.00859276    0.00889358
     atom   17 type  2   force =     0.00717932   -0.00051634   -0.00089545
     atom   18 type  2   force =    -0.00206448   -0.00660547    0.01318380
     atom   19 type  1   force =     0.00893851   -0.00410005   -0.01096616
     atom   20 type  2   force =     0.00795646   -0.00101409   -0.00047179
     atom   21 type  1   force =    -0.02611266   -0.01190244   -0.07030782
     atom   22 type  2   force =    -0.00046636   -0.00322824    0.00328138
     atom   23 type  2   force =    -0.00162524    0.00282978    0.01307198
     atom   24 type  1   force =    -0.00960469   -0.00197265   -0.02329315
     atom   25 type  2   force =     0.01636787    0.01862764    0.00842157
     atom   26 type  2   force =    -0.01149966   -0.00078043   -0.00321985
     atom   27 type  1   force =    -0.00052827    0.00098273    0.00614613
     atom   28 type  2   force =     0.00048428   -0.00248011   -0.00503311
     atom   29 type  2   force =     0.00232293    0.00042878   -0.00013487
     atom   30 type  1   force =     0.00060693    0.01173552   -0.00182518
     atom   31 type  2   force =     0.00184719    0.00048293    0.01599079
     atom   32 type  2   force =    -0.00898486    0.00665098    0.00960218
     atom   33 type  1   force =     0.01306568   -0.00663536   -0.01445526
     atom   34 type  2   force =     0.00140351   -0.04523529   -0.00724318
     atom   35 type  2   force =    -0.00567497    0.00530526    0.01583544
     atom   36 type  3   force =    -0.13563222    0.54532631    0.89945144
     The non-local contrib.  to forces
     atom    1 type  1   force =    -0.00420487    0.02948338   -0.00859397
     atom    2 type  2   force =    -0.00317869    0.01690265   -0.27106864
     atom    3 type  2   force =    -0.01559315    0.00278540    0.26611290
     atom    4 type  1   force =     0.00457641   -0.00350776    0.00541254
     atom    5 type  2   force =     0.00532117   -0.03229209   -0.25415480
     atom    6 type  2   force =    -0.00117147    0.01282815    0.26309698
     atom    7 type  1   force =    -0.01417244    0.01822021    0.00027368
     atom    8 type  2   force =    -0.00093469   -0.00578948   -0.25473000
     atom    9 type  2   force =     0.00634835   -0.01039811    0.27842023
     atom   10 type  1   force =    -0.02095439   -0.01907962    0.02293030
     atom   11 type  2   force =     0.05130012   -0.24276039   -0.37405895
     atom   12 type  2   force =    -0.01023410   -0.01917856    0.26588610
     atom   13 type  1   force =     0.00267629    0.01675399   -0.00752167
     atom   14 type  2   force =    -0.00093377    0.02669692   -0.26679216
     atom   15 type  2   force =    -0.00985697    0.00047258    0.25761926
     atom   16 type  1   force =    -0.00505207    0.01625751   -0.03398729
     atom   17 type  2   force =     0.00378280   -0.02735326   -0.24977239
     atom   18 type  2   force =    -0.00256215   -0.00099696    0.27089433
     atom   19 type  1   force =     0.00913882    0.00200492   -0.01518706
     atom   20 type  2   force =     0.00713726   -0.02175252    0.27040753
     atom   21 type  1   force =     0.03965100    0.00402644    0.04326535
     atom   22 type  2   force =    -0.00353005    0.00718418   -0.25924276
     atom   23 type  2   force =     0.00519074   -0.01848664    0.26692427
     atom   24 type  1   force =     0.00752972    0.01122682   -0.00619320
     atom   25 type  2   force =     0.00964798    0.00567981   -0.26086795
     atom   26 type  2   force =    -0.00275435   -0.01723219    0.26352504
     atom   27 type  1   force =    -0.00759071    0.00420145    0.01023581
     atom   28 type  2   force =    -0.00677417   -0.02238108   -0.27720591
     atom   29 type  2   force =     0.00574314    0.00559476    0.25908201
     atom   30 type  1   force =     0.00639157    0.01312841    0.00913966
     atom   31 type  2   force =    -0.00863443    0.00679282   -0.25430949
     atom   32 type  2   force =    -0.00248876   -0.00771452    0.27464640
     atom   33 type  1   force =    -0.00785583    0.01114120    0.01495584
     atom   34 type  2   force =    -0.01113890   -0.03618089   -0.27415114
     atom   35 type  2   force =    -0.00000448   -0.01472956    0.26816073
     atom   36 type  3   force =     0.38550474   -1.65622006   -1.60468580
     The ionic contribution  to forces
     atom    1 type  1   force =     0.55362215    2.08178988    3.46735231
     atom    2 type  2   force =     0.68714965    1.95555262   38.48590132
     atom    3 type  2   force =     0.03043842    0.27149946  -36.93119223
     atom    4 type  1   force =     0.36574109    0.44775766   -0.41042332
     atom    5 type  2   force =    -0.93968404    1.75432194   38.49529621
     atom    6 type  2   force =     0.35762076   -0.40214865  -38.59480806
     atom    7 type  1   force =    -2.47058377   -4.79642384   -0.25426277
     atom    8 type  2   force =    -0.54291881   -0.82327275   36.96742283
     atom    9 type  2   force =     0.44183417   -0.23751715  -38.64338115
     atom   10 type  1   force =     1.33469394   -0.04438865    1.54324045
     atom   11 type  2   force =     1.37917003   -9.49836057   29.16222742
     atom   12 type  2   force =     0.50165450    0.55200293  -39.06657035
     atom   13 type  1   force =    -0.17636853    1.89133035    1.43289391
     atom   14 type  2   force =    -1.29266579    2.12985296   37.36204884
     atom   15 type  2   force =     0.00680474    0.22233311  -37.71523019
     atom   16 type  1   force =    -0.24685928    3.79646214   -0.65517002
     atom   17 type  2   force =     0.63450353    1.65310412   37.72408464
     atom   18 type  2   force =    -0.22491299   -0.58282296  -39.06664614
     atom   19 type  1   force =     1.94531256   -3.36828191   -0.98269555
     atom   20 type  2   force =     0.14594768   -0.41100643  -39.14235263
     atom   21 type  1   force =    -2.12776958    0.38582363   -4.01945308
     atom   22 type  2   force =    -1.08584050   -2.20959364   37.67948574
     atom   23 type  2   force =    -0.29311343    0.59096304  -39.09523016
     atom   24 type  1   force =    -0.04153345    1.90485317    4.58386647
     atom   25 type  2   force =     0.53196545    0.66477372   38.99524254
     atom   26 type  2   force =    -0.31949855    0.20558646  -37.93804555
     atom   27 type  1   force =    -0.02645790    0.33199431   -3.16003919
     atom   28 type  2   force =     0.19233165    1.14065811   38.02104979
     atom   29 type  2   force =    -0.21040186   -0.36579518  -37.75240755
     atom   30 type  1   force =     0.25690648   -1.67205693   -1.45975436
     atom   31 type  2   force =     1.15399362   -0.38333518   37.08696651
     atom   32 type  2   force =    -0.49912732   -0.12894583  -39.15780813
     atom   33 type  1   force =     0.55744518   -0.76050728    0.49797558
     atom   34 type  2   force =     1.21852484   -1.70057606   38.88057763
     atom   35 type  2   force =    -0.13520925    0.40935730  -38.55528692
     atom   36 type  3   force =    -1.66271540    4.99501612   52.21512512
     The local contribution  to forces
     atom    1 type  1   force =    -0.53553269   -2.14045191   -3.45045270
     atom    2 type  2   force =    -0.69548512   -1.95316118  -38.23496488
     atom    3 type  2   force =    -0.02823207   -0.26316971   36.68246673
     atom    4 type  1   force =    -0.36640041   -0.43924009    0.40832351
     atom    5 type  2   force =     0.93310754   -1.73034768  -38.26992224
     atom    6 type  2   force =    -0.35826977    0.40319286   38.35151810
     atom    7 type  1   force =     2.46761251    4.74796581    0.27041227
     atom    8 type  2   force =     0.55299366    0.81880103  -36.72170807
     atom    9 type  2   force =    -0.43388980    0.25292410   38.39299987
     atom   10 type  1   force =    -1.32129103    0.06850270   -1.61133592
     atom   11 type  2   force =    -1.26786224    9.19996055  -29.66611286
     atom   12 type  2   force =    -0.49376095   -0.53352923   38.83053121
     atom   13 type  1   force =     0.17820733   -1.90168849   -1.43455710
     atom   14 type  2   force =     1.29283201   -2.14373990  -37.10970409
     atom   15 type  2   force =    -0.00801626   -0.21599990   37.46970055
     atom   16 type  1   force =     0.25386695   -3.80438720    0.69757000
     atom   17 type  2   force =    -0.63094850   -1.62785941  -37.49585875
     atom   18 type  2   force =     0.22544545    0.57779649   38.82991460
     atom   19 type  1   force =    -1.94548937    3.36263008    0.98653968
     atom   20 type  2   force =    -0.14492956    0.43097531   38.89292083
     atom   21 type  1   force =     2.06192018   -0.40158163    3.90586227
     atom   22 type  2   force =     1.08930368    2.19986362  -37.43784826
     atom   23 type  2   force =     0.28667680   -0.57116265   38.86240648
     atom   24 type  1   force =     0.02427975   -1.91839027   -4.60134095
     atom   25 type  2   force =    -0.52507636   -0.65145066  -38.74708962
     atom   26 type  2   force =     0.31092911   -0.19003016   37.69235121
     atom   27 type  1   force =     0.03356970   -0.33533794    3.15537394
     atom   28 type  2   force =    -0.18552245   -1.12258938  -37.77038324
     atom   29 type  2   force =     0.20749298    0.36137251   37.51365121
     atom   30 type  1   force =    -0.26269238    1.67100552    1.44832615
     atom   31 type  2   force =    -1.14394688    0.37734018  -36.83768565
     atom   32 type  2   force =     0.49287359    0.14287870   38.91395685
     atom   33 type  1   force =    -0.53638670    0.74279733   -0.52767801
     atom   34 type  2   force =    -1.20707833    1.69047691  -38.63518578
     atom   35 type  2   force =     0.12978614   -0.39046204   38.32410555
     atom   36 type  3   force =     1.14441774   -2.80602736  -49.72138361
     The core correction contribution to forces
     atom    1 type  1   force =     0.00000000    0.00000000    0.00000000
     atom    2 type  2   force =    -0.00013121   -0.00080960    0.02083708
     atom    3 type  2   force =     0.00071328   -0.00029276   -0.02065638
     atom    4 type  1   force =     0.00000000    0.00000000    0.00000000
     atom    5 type  2   force =    -0.00055979    0.00172306    0.02043875
     atom    6 type  2   force =     0.00029801   -0.00125055   -0.02091020
     atom    7 type  1   force =     0.00000000    0.00000000    0.00000000
     atom    8 type  2   force =     0.00019540    0.00046713    0.02034884
     atom    9 type  2   force =    -0.00010323    0.00059328   -0.02108079
     atom   10 type  1   force =     0.00000000    0.00000000    0.00000000
     atom   11 type  2   force =    -0.00385033    0.01751177    0.03252864
     atom   12 type  2   force =     0.00103314    0.00152624   -0.02103400
     atom   13 type  1   force =     0.00000000    0.00000000    0.00000000
     atom   14 type  2   force =     0.00011996   -0.00184180    0.02102232
     atom   15 type  2   force =     0.00054309   -0.00005657   -0.02037092
     atom   16 type  1   force =     0.00000000    0.00000000    0.00000000
     atom   17 type  2   force =    -0.00011451    0.00139353    0.02026576
     atom   18 type  2   force =    -0.00002593   -0.00066720   -0.02091701
     atom   19 type  1   force =     0.00000000    0.00000000    0.00000000
     atom   20 type  2   force =    -0.00023901    0.00083551   -0.02139701
     atom   21 type  1   force =     0.00000000    0.00000000    0.00000000
     atom   22 type  2   force =    -0.00025551   -0.00052153    0.02047399
     atom   23 type  2   force =    -0.00037084    0.00152626   -0.02080005
     atom   24 type  1   force =     0.00000000    0.00000000    0.00000000
     atom   25 type  2   force =    -0.00011382   -0.00046922    0.02073470
     atom   26 type  2   force =    -0.00014921    0.00086907   -0.02087437
     atom   27 type  1   force =     0.00000000    0.00000000    0.00000000
     atom   28 type  2   force =     0.00040648    0.00166350    0.02108369
     atom   29 type  2   force =    -0.00051358   -0.00081645   -0.02037862
     atom   30 type  1   force =     0.00000000    0.00000000    0.00000000
     atom   31 type  2   force =     0.00050072   -0.00018952    0.02054649
     atom   32 type  2   force =    -0.00017948    0.00049999   -0.02108237
     atom   33 type  1   force =     0.00000000    0.00000000    0.00000000
     atom   34 type  2   force =     0.00100270    0.00122411    0.02109106
     atom   35 type  2   force =    -0.00024425    0.00120537   -0.02095706
     atom   36 type  3   force =    -0.00285607    0.01270026    0.00998458
     The Hubbard contrib.    to forces
     atom    1 type  1   force =     0.00000000    0.00000000    0.00000000
     atom    2 type  2   force =     0.00000000    0.00000000    0.00000000
     atom    3 type  2   force =     0.00000000    0.00000000    0.00000000
     atom    4 type  1   force =     0.00000000    0.00000000    0.00000000
     atom    5 type  2   force =     0.00000000    0.00000000    0.00000000
     atom    6 type  2   force =     0.00000000    0.00000000    0.00000000
     atom    7 type  1   force =     0.00000000    0.00000000    0.00000000
     atom    8 type  2   force =     0.00000000    0.00000000    0.00000000
     atom    9 type  2   force =     0.00000000    0.00000000    0.00000000
     atom   10 type  1   force =     0.00000000    0.00000000    0.00000000
     atom   11 type  2   force =     0.00000000    0.00000000    0.00000000
     atom   12 type  2   force =     0.00000000    0.00000000    0.00000000
     atom   13 type  1   force =     0.00000000    0.00000000    0.00000000
     atom   14 type  2   force =     0.00000000    0.00000000    0.00000000
     atom   15 type  2   force =     0.00000000    0.00000000    0.00000000
     atom   16 type  1   force =     0.00000000    0.00000000    0.00000000
     atom   17 type  2   force =     0.00000000    0.00000000    0.00000000
     atom   18 type  2   force =     0.00000000    0.00000000    0.00000000
     atom   19 type  1   force =     0.00000000    0.00000000    0.00000000
     atom   20 type  2   force =     0.00000000    0.00000000    0.00000000
     atom   21 type  1   force =     0.00000000    0.00000000    0.00000000
     atom   22 type  2   force =     0.00000000    0.00000000    0.00000000
     atom   23 type  2   force =     0.00000000    0.00000000    0.00000000
     atom   24 type  1   force =     0.00000000    0.00000000    0.00000000
     atom   25 type  2   force =     0.00000000    0.00000000    0.00000000
     atom   26 type  2   force =     0.00000000    0.00000000    0.00000000
     atom   27 type  1   force =     0.00000000    0.00000000    0.00000000
     atom   28 type  2   force =     0.00000000    0.00000000    0.00000000
     atom   29 type  2   force =     0.00000000    0.00000000    0.00000000
     atom   30 type  1   force =     0.00000000    0.00000000    0.00000000
     atom   31 type  2   force =     0.00000000    0.00000000    0.00000000
     atom   32 type  2   force =     0.00000000    0.00000000    0.00000000
     atom   33 type  1   force =     0.00000000    0.00000000    0.00000000
     atom   34 type  2   force =     0.00000000    0.00000000    0.00000000
     atom   35 type  2   force =     0.00000000    0.00000000    0.00000000
     atom   36 type  3   force =     0.00000000    0.00000000    0.00000000
     The SCF correction term to forces
     atom    1 type  1   force =     0.00005579    0.00034269    0.00017576
     atom    2 type  2   force =     0.00014065    0.00014337    0.00033331
     atom    3 type  2   force =     0.00002711    0.00003623   -0.00021988
     atom    4 type  1   force =     0.00008956    0.00020501    0.00051234
     atom    5 type  2   force =     0.00000668    0.00024689    0.00038857
     atom    6 type  2   force =     0.00001104    0.00009595   -0.00010808
     atom    7 type  1   force =     0.00005624   -0.00037660    0.00031768
     atom    8 type  2   force =     0.00005128   -0.00014334    0.00043563
     atom    9 type  2   force =     0.00001902   -0.00003260   -0.00010567
     atom   10 type  1   force =     0.00005824   -0.00025076    0.00012170
     atom   11 type  2   force =     0.00002440   -0.00020507    0.00023166
     atom   12 type  2   force =     0.00001553   -0.00006389   -0.00018265
     atom   13 type  1   force =    -0.00015753    0.00030720    0.00028765
     atom   14 type  2   force =    -0.00008296    0.00013865    0.00030168
     atom   15 type  2   force =    -0.00000212    0.00002163   -0.00023111
     atom   16 type  1   force =    -0.00002594    0.00026119    0.00047794
     atom   17 type  2   force =    -0.00004468    0.00019956    0.00038234
     atom   18 type  2   force =    -0.00000953    0.00008605   -0.00006493
     atom   19 type  1   force =    -0.00002418   -0.00045225    0.00037383
     atom   20 type  2   force =     0.00003941   -0.00006507   -0.00005347
     atom   21 type  1   force =     0.00008507   -0.00016999    0.00001470
     atom   22 type  2   force =    -0.00014465   -0.00015998    0.00040972
     atom   23 type  2   force =    -0.00000919   -0.00000934   -0.00023150
     atom   24 type  1   force =     0.00011863    0.00033852    0.00037157
     atom   25 type  2   force =    -0.00005606    0.00009488    0.00039895
     atom   26 type  2   force =    -0.00002733    0.00002727   -0.00017913
     atom   27 type  1   force =    -0.00005003    0.00012579    0.00057262
     atom   28 type  2   force =     0.00004209    0.00016962    0.00041961
     atom   29 type  2   force =     0.00000158    0.00007404   -0.00008488
     atom   30 type  1   force =     0.00000058   -0.00034059    0.00046041
     atom   31 type  2   force =    -0.00006651   -0.00012448    0.00046997
     atom   32 type  2   force =    -0.00006356   -0.00006647   -0.00011352
     atom   33 type  1   force =    -0.00013764   -0.00006572    0.00028839
     atom   34 type  2   force =     0.00009254   -0.00017847    0.00042210
     atom   35 type  2   force =    -0.00000381   -0.00006492   -0.00018981
     atom   36 type  3   force =     0.00001610   -0.00014176    0.00040820

     Total force =     1.468835     Total SCF correction =     0.002301

     BFGS Geometry Optimization
     Energy error            =      0.0E+00 Ry
     Gradient error          =      9.0E-01 Ry/Bohr

     number of scf cycles    =   1
     number of bfgs steps    =   0

     energy             new  =   -2246.1356089105 Ry

     new trust radius        =       0.5000000000 bohr
     new conv_thr            =       0.0000010000 Ry


ATOMIC_POSITIONS (angstrom)
Mo            6.5780264223        1.7806120184        2.8257597046
S             8.1738393077        0.8143510769        4.4347980963
S             8.1900782272        0.8139505330        1.2770137630
Mo            8.0961623107        4.4963577143        2.7187734058
S             6.4994582561        3.7208276018        4.3446771449
S             6.5529728950        3.5149101602        1.1209787785
Mo            6.4857188860        7.2107993822        2.6760617257
S             8.0840697236        6.3413915871        4.2453984826
S             8.0844625540        6.3060915753        1.0855732957
Mo            8.1587498059        9.9033736209        2.8322250600
S             6.5347806676        8.8122356542        4.1722498768
S             6.6176250715        9.0488999682        1.1420611234
Mo            3.4227469547        1.7486279057        2.7742522210
S             4.9749834034        0.8197119199        4.3522494008
S             5.0552075200        0.8479510764        1.2245355211
Mo            4.9802382600        4.5153217223        2.6351033187
S             3.4296327563        3.6714708682        4.2794861834
S             3.4374055358        3.5465807671        1.0616407739
Mo            3.4560917177        7.2153016578        2.6279410260
S             4.9852191681        6.3266792917        1.0371360288
Mo            5.0057493389        9.8986306316        2.7258605771
S             3.4708417703        8.9429458870        4.3264099492
S             3.4080237004        9.0656959562        1.0993294954
Mo            0.2936943106        1.7470173960        2.8436335368
S             1.8545456653        0.7973412269        4.4003104498
S             1.8579311009        0.8542312169        1.2085975654
Mo            1.8605595161        4.4959119326        2.6617307151
S             0.2723346671        3.6537800878        4.3363284409
S             0.2318107327        3.5273561987        1.1719842362
Mo            0.2713035679        7.2195738693        2.7012410818
S             1.9026990855        6.3129193162        4.2264335009
S             1.8599966739        6.3120030978        1.0469548333
Mo            1.8476062870        9.9384837657        2.7693399564
S             0.2962630459        9.0787125341        4.4120624386
S             0.2753556094        9.0448492705        1.1543514018
O             6.2706691634        9.8506256995        5.5738397100



     Writing config-only to output data dir ./MoS2-V-O.save/
     NEW-OLD atomic charge density approx. for the potential

     negative rho (up, down):  1.886E-04 0.000E+00

     total cpu time spent up to now is       96.1 secs

     Self-consistent Calculation

     iteration #  1     ecut=    80.00 Ry     beta= 0.70
     Davidson diagonalization with overlap
     ethr =  1.00E-06,  avg # of iterations = 19.0

     negative rho (up, down):  6.320E-03 0.000E+00

     total cpu time spent up to now is      120.4 secs

     total energy              =   -2246.24981156 Ry
     estimated scf accuracy    <       0.19463983 Ry

     iteration #  2     ecut=    80.00 Ry     beta= 0.70
     Davidson diagonalization with overlap
     ethr =  6.24E-05,  avg # of iterations =  6.0

     negative rho (up, down):  9.917E-03 0.000E+00

     total cpu time spent up to now is      133.5 secs

     total energy              =   -2246.26827793 Ry
     estimated scf accuracy    <       0.12051655 Ry

     iteration #  3     ecut=    80.00 Ry     beta= 0.70
     Davidson diagonalization with overlap
     ethr =  3.86E-05,  avg # of iterations =  3.0

     negative rho (up, down):  1.711E-02 0.000E+00

     total cpu time spent up to now is      145.9 secs

     total energy              =   -2246.27128855 Ry
     estimated scf accuracy    <       0.01755608 Ry

     iteration #  4     ecut=    80.00 Ry     beta= 0.70
     Davidson diagonalization with overlap
     ethr =  5.63E-06,  avg # of iterations =  5.0

     negative rho (up, down):  1.874E-02 0.000E+00

     total cpu time spent up to now is      158.5 secs

     total energy              =   -2246.27291854 Ry
     estimated scf accuracy    <       0.00860563 Ry

     iteration #  5     ecut=    80.00 Ry     beta= 0.70
     Davidson diagonalization with overlap
     ethr =  2.76E-06,  avg # of iterations =  2.0

     negative rho (up, down):  1.892E-02 0.000E+00

     total cpu time spent up to now is      167.4 secs

     total energy              =   -2246.27239364 Ry
     estimated scf accuracy    <       0.00309177 Ry

     iteration #  6     ecut=    80.00 Ry     beta= 0.70
     Davidson diagonalization with overlap
     ethr =  9.91E-07,  avg # of iterations =  7.0

     negative rho (up, down):  1.725E-02 0.000E+00

     total cpu time spent up to now is      178.2 secs

     total energy              =   -2246.27288079 Ry
     estimated scf accuracy    <       0.00117036 Ry

     iteration #  7     ecut=    80.00 Ry     beta= 0.70
     Davidson diagonalization with overlap
     ethr =  3.75E-07,  avg # of iterations =  3.0

     negative rho (up, down):  1.309E-02 0.000E+00

     total cpu time spent up to now is      188.5 secs

     total energy              =   -2246.27276950 Ry
     estimated scf accuracy    <       0.00031436 Ry

     iteration #  8     ecut=    80.00 Ry     beta= 0.70
     Davidson diagonalization with overlap
     ethr =  1.01E-07,  avg # of iterations =  7.0

     negative rho (up, down):  1.012E-02 0.000E+00

     total cpu time spent up to now is      200.1 secs

     total energy              =   -2246.27279134 Ry
     estimated scf accuracy    <       0.00017922 Ry

     iteration #  9     ecut=    80.00 Ry     beta= 0.70
     Davidson diagonalization with overlap
     ethr =  5.74E-08,  avg # of iterations =  2.0

     negative rho (up, down):  5.693E-03 0.000E+00

     total cpu time spent up to now is      209.1 secs

     total energy              =   -2246.27272380 Ry
     estimated scf accuracy    <       0.00007907 Ry

     iteration # 10     ecut=    80.00 Ry     beta= 0.70
     Davidson diagonalization with overlap
     ethr =  2.53E-08,  avg # of iterations =  5.0

     negative rho (up, down):  3.457E-03 0.000E+00

     total cpu time spent up to now is      219.1 secs

     total energy              =   -2246.27270979 Ry
     estimated scf accuracy    <       0.00001054 Ry

     iteration # 11     ecut=    80.00 Ry     beta= 0.70
     Davidson diagonalization with overlap
     ethr =  3.38E-09,  avg # of iterations =  5.0

     negative rho (up, down):  2.450E-03 0.000E+00

     total cpu time spent up to now is      227.4 secs

     total energy              =   -2246.27270246 Ry
     estimated scf accuracy    <       0.00000717 Ry

     iteration # 12     ecut=    80.00 Ry     beta= 0.70
     Davidson diagonalization with overlap
     ethr =  2.30E-09,  avg # of iterations =  2.0

     negative rho (up, down):  7.824E-04 0.000E+00

     total cpu time spent up to now is      236.9 secs

     total energy              =   -2246.27269076 Ry
     estimated scf accuracy    <       0.00000370 Ry

     iteration # 13     ecut=    80.00 Ry     beta= 0.70
     Davidson diagonalization with overlap
     ethr =  1.19E-09,  avg # of iterations =  3.0

     negative rho (up, down):  1.933E-04 0.000E+00

     total cpu time spent up to now is      240.1 secs

     End of self-consistent calculation

          k = 0.0000 0.0000 0.0000 (105382 PWs)   bands (ev):

   -63.0982 -63.0580 -63.0390 -63.0120 -63.0008 -62.9865 -62.9735 -62.9625
   -62.9524 -62.9286 -62.9169 -62.9089 -37.4578 -37.3887 -37.3460 -37.3342
   -37.3241 -37.2763 -37.2679 -37.2577 -37.2340 -37.2297 -37.2257 -37.2162
   -37.2011 -37.1913 -37.1762 -37.1725 -37.1592 -37.1556 -37.1458 -37.1414
   -37.1391 -37.1292 -37.1206 -37.1127 -37.1107 -37.0972 -37.0725 -37.0657
   -37.0561 -37.0424 -37.0380 -37.0294 -36.9700 -36.9665 -36.9394 -36.9146
   -19.5873 -16.1112 -15.3871 -15.3049 -15.1662 -15.0559 -14.8836 -14.7020
   -14.6764 -14.6280 -14.6013 -14.5529 -14.4931 -14.4350 -14.3868 -14.3386
   -14.2956 -14.2621 -14.2149 -14.1228 -14.0369 -14.0245 -14.0031 -13.9394
    -7.9927  -7.7147  -7.6766  -7.5447  -7.4939  -7.4480  -7.3943  -7.2970
    -7.2153  -7.0353  -6.9970  -6.9694  -6.9174  -6.8067  -6.7307  -6.6754
    -6.6200  -6.5475  -6.4776  -6.4005  -6.1608  -6.1331  -6.0993  -6.0105
    -5.9499  -5.9316  -5.9061  -5.8753  -5.8348  -5.7962  -5.7486  -5.6820
    -5.6471  -5.6150  -5.5512  -5.3961  -5.3208  -5.2931  -5.2013  -5.1891
    -5.1122  -5.0850  -5.0050  -4.8645  -4.7700  -4.7351  -4.5576  -4.4836
    -4.4023  -4.3264  -4.2437  -4.1950  -4.1444  -4.0226  -3.9161  -3.8832
    -3.8551  -3.8214  -3.7555  -3.7348  -3.7270  -3.6746  -3.6414  -3.5922
    -3.5541  -3.5117  -3.3520  -3.2951  -3.1660  -3.1282  -3.0167  -2.9920
    -2.9780  -2.8949  -2.8834  -2.8290  -2.8053  -2.7759  -2.4766  -2.3717
    -2.2140  -2.1580  -2.0643  -1.9156  -1.2819  -0.9183  -0.4416  -0.3339
    -0.2787  -0.2416  -0.1969  -0.0774  -0.0053   0.0116   0.1045   0.1443
     0.1753   0.2342   0.2584   0.2825   0.3537   0.3861   0.4008   0.4935
     0.5140   0.5906   0.6075   0.6343   0.6495   0.7032   0.7316   0.8015
     0.8150   0.9409   1.1546

     the Fermi energy is    -1.5987 ev

!    total energy              =   -2246.27268914 Ry
     estimated scf accuracy    <       0.00000075 Ry
     smearing contrib. (-TS)   =      -0.00004986 Ry
     internal energy E=F+TS    =   -2246.27263928 Ry

     The total energy is F=E-TS. E is the sum of the following terms:
     one-electron contribution =  -18444.09531676 Ry
     hartree contribution      =    9209.33672883 Ry
     xc contribution           =    -392.03038428 Ry
     ewald contribution        =    7390.38553365 Ry
     one-center paw contrib.   =      -9.86920072 Ry

     convergence has been achieved in  13 iterations

     negative rho (up, down):  1.933E-04 0.000E+00

     Forces acting on atoms (cartesian axes, Ry/au):

     atom    1 type  1   force =     0.00788480   -0.02192133    0.00797423
     atom    2 type  2   force =    -0.01210499    0.00928578   -0.00019394
     atom    3 type  2   force =    -0.01109311    0.01012009   -0.00606892
     atom    4 type  1   force =     0.00359121    0.00618193    0.00053229
     atom    5 type  2   force =    -0.00147317   -0.00730730   -0.00671317
     atom    6 type  2   force =    -0.00180548    0.01135726    0.00017470
     atom    7 type  1   force =    -0.00869221   -0.10351206   -0.06309005
     atom    8 type  2   force =     0.01177449   -0.01238585    0.01621992
     atom    9 type  2   force =     0.01551770    0.00365544    0.00571237
     atom   10 type  1   force =     0.01415513    0.01204698   -0.04632027
     atom   11 type  2   force =    -0.02713413    0.22547434    0.20790871
     atom   12 type  2   force =    -0.00025300    0.00015687   -0.00766955
     atom   13 type  1   force =     0.00425433    0.01068722   -0.00997335
     atom   14 type  2   force =     0.00694289   -0.00684331    0.00602096
     atom   15 type  2   force =    -0.01078798    0.00569208   -0.00988303
     atom   16 type  1   force =     0.00201264    0.00590298    0.00602261
     atom   17 type  2   force =     0.00638908   -0.00102560    0.00102370
     atom   18 type  2   force =    -0.00173970   -0.00543193    0.01136589
     atom   19 type  1   force =     0.00143584   -0.00521518   -0.00380897
     atom   20 type  2   force =     0.00203339   -0.00339950   -0.00489680
     atom   21 type  1   force =    -0.03022433    0.00233252   -0.04140222
     atom   22 type  2   force =     0.00331516   -0.00012139   -0.00018980
     atom   23 type  2   force =    -0.00129631    0.00247011    0.00548299
     atom   24 type  1   force =    -0.00874654    0.00049226   -0.01869384
     atom   25 type  2   force =     0.01362501    0.01519132    0.00605605
     atom   26 type  2   force =    -0.00968532   -0.00187964   -0.00539097
     atom   27 type  1   force =    -0.00009753    0.00176523    0.00483702
     atom   28 type  2   force =     0.00050747   -0.00352506   -0.00394681
     atom   29 type  2   force =     0.00203751    0.00116691   -0.00133068
     atom   30 type  1   force =     0.00188066    0.00700111   -0.00080510
     atom   31 type  2   force =     0.00165049    0.00199314    0.01312870
     atom   32 type  2   force =    -0.00797778    0.00623850    0.00771592
     atom   33 type  1   force =     0.00944598   -0.00544750   -0.00571064
     atom   34 type  2   force =     0.00051224   -0.03697820   -0.00929434
     atom   35 type  2   force =    -0.00606535    0.00699972    0.01219053
     atom   36 type  3   force =     0.03021091   -0.13121793   -0.06698412
     The non-local contrib.  to forces
     atom    1 type  1   force =    -0.00455055    0.02761959   -0.00810620
     atom    2 type  2   force =    -0.00706513    0.01181374   -0.27721232
     atom    3 type  2   force =    -0.01529976   -0.00128334    0.26325591
     atom    4 type  1   force =     0.00656682   -0.00615076    0.00487239
     atom    5 type  2   force =     0.00560435   -0.03416615   -0.25628413
     atom    6 type  2   force =    -0.00071632    0.01261815    0.26473988
     atom    7 type  1   force =    -0.01730931    0.02882675    0.00544193
     atom    8 type  2   force =    -0.00153186   -0.00691005   -0.26209279
     atom    9 type  2   force =     0.00956732   -0.01180998    0.27649061
     atom   10 type  1   force =    -0.00099791   -0.00484468    0.01080885
     atom   11 type  2   force =    -0.08845247    0.27926689    0.36482496
     atom   12 type  2   force =    -0.01076970   -0.02100343    0.26093478
     atom   13 type  1   force =     0.00709843    0.01368973   -0.00390277
     atom   14 type  2   force =     0.01605117    0.00413040   -0.26665976
     atom   15 type  2   force =    -0.00896476   -0.00426163    0.25841803
     atom   16 type  1   force =    -0.00857712    0.01279743   -0.03498103
     atom   17 type  2   force =     0.00329029   -0.02683544   -0.25139482
     atom   18 type  2   force =    -0.00154277    0.00139591    0.27102363
     atom   19 type  1   force =     0.00689365    0.00611558   -0.01333030
     atom   20 type  2   force =     0.00076163   -0.02189755    0.26574450
     atom   21 type  1   force =     0.01232155    0.02016670    0.02571412
     atom   22 type  2   force =    -0.01022077    0.00359194   -0.26980305
     atom   23 type  2   force =     0.00840261   -0.01634425    0.26655832
     atom   24 type  1   force =     0.00455674    0.01080048   -0.00442476
     atom   25 type  2   force =     0.00621299    0.00337122   -0.26499381
     atom   26 type  2   force =    -0.00168762   -0.01835369    0.26207013
     atom   27 type  1   force =    -0.00730468    0.00183490    0.01049035
     atom   28 type  2   force =    -0.00636813   -0.02077664   -0.27954806
     atom   29 type  2   force =     0.00474372    0.00616430    0.25976206
     atom   30 type  1   force =     0.00968939    0.01531369    0.00812025
     atom   31 type  2   force =    -0.00864131    0.00596179   -0.25769353
     atom   32 type  2   force =    -0.00197702   -0.00654695    0.27588995
     atom   33 type  1   force =    -0.00418598    0.00980086    0.01167683
     atom   34 type  2   force =    -0.00452475   -0.03375740   -0.28478194
     atom   35 type  2   force =    -0.00372885   -0.01179228    0.26817497
     atom   36 type  3   force =     0.23564881   -0.98468012   -1.15987959
     The ionic contribution  to forces
     atom    1 type  1   force =     0.42617574    1.98180404    3.70145604
     atom    2 type  2   force =     0.66606675    1.64751011   38.45498811
     atom    3 type  2   force =     0.02711894    0.30462022  -36.93256657
     atom    4 type  1   force =     0.38991066    0.29573946   -0.33241103
     atom    5 type  2   force =    -0.93210608    1.70152944   38.46463816
     atom    6 type  2   force =     0.34582715   -0.45963266  -38.53513053
     atom    7 type  1   force =    -2.54474201   -5.79564245   -0.70678034
     atom    8 type  2   force =    -0.45824914   -0.83277924   37.15453595
     atom    9 type  2   force =     0.46017152   -0.27020970  -38.65150209
     atom   10 type  1   force =     1.45088138    0.55023370    1.78047248
     atom   11 type  2   force =     0.13676334   -4.36433910   32.61568781
     atom   12 type  2   force =     0.52193899    0.55607477  -39.16752159
     atom   13 type  1   force =    -0.15473305    1.77064840    1.45951346
     atom   14 type  2   force =    -1.21479170    1.79598878   37.19269741
     atom   15 type  2   force =     0.03723811    0.30360216  -37.67149715
     atom   16 type  1   force =    -0.28788966    3.59032880   -0.51171039
     atom   17 type  2   force =     0.61711530    1.62538002   37.73398062
     atom   18 type  2   force =    -0.21717752   -0.56704024  -39.01918521
     atom   19 type  1   force =     1.75190093   -3.34899464   -0.91183535
     atom   20 type  2   force =     0.10979055   -0.46805653  -39.21883962
     atom   21 type  1   force =    -1.98230458    0.88449056   -3.69629849
     atom   22 type  2   force =    -0.80920741   -2.10890588   37.78487122
     atom   23 type  2   force =    -0.37950140    0.56473530  -39.11268126
     atom   24 type  1   force =     0.01900489    1.76703367    4.49523382
     atom   25 type  2   force =     0.47261288    0.59439989   38.97302331
     atom   26 type  2   force =    -0.30619216    0.21570631  -37.89386441
     atom   27 type  1   force =    -0.02658130    0.32096197   -3.02012922
     atom   28 type  2   force =     0.20381974    1.08398559   38.01831278
     atom   29 type  2   force =    -0.20486158   -0.34885335  -37.74044626
     atom   30 type  1   force =     0.39498365   -1.71668375   -1.35392064
     atom   31 type  2   force =     1.17114126   -0.34903230   37.14561305
     atom   32 type  2   force =    -0.49694711   -0.15963160  -39.12033421
     atom   33 type  1   force =     0.46671400   -0.60712255    0.67195060
     atom   34 type  2   force =     1.07626689   -1.52600466   38.92221996
     atom   35 type  2   force =    -0.08368798    0.42366207  -38.52031374
     atom   36 type  3   force =    -0.64646997    0.94449339   47.54777335
     The local contribution  to forces
     atom    1 type  1   force =    -0.41380834   -2.03180624   -3.68542310
     atom    2 type  2   force =    -0.67092367   -1.64920755  -38.19938041
     atom    3 type  2   force =    -0.02364703   -0.29335968   36.68360355
     atom    4 type  1   force =    -0.39306063   -0.28326062    0.32788274
     atom    5 type  2   force =     0.92559177   -1.67644024  -38.23557287
     atom    6 type  2   force =    -0.34721760    0.45963008   38.29108224
     atom    7 type  1   force =     2.55328929    5.66365752    0.63834297
     atom    8 type  2   force =     0.47112955    0.82700225  -36.89692305
     atom    9 type  2   force =    -0.45404735    0.28509159   38.40137322
     atom   10 type  1   force =    -1.43593372   -0.53342111   -1.83749459
     atom   11 type  2   force =    -0.08036476    4.32573048  -32.76160521
     atom   12 type  2   force =    -0.51252886   -0.53638581   38.91950805
     atom   13 type  1   force =     0.15206923   -1.77402056   -1.46578178
     atom   14 type  2   force =     1.20606308   -1.80572062  -36.94137700
     atom   15 type  2   force =    -0.03961331   -0.29409761   37.42337848
     atom   16 type  1   force =     0.29856339   -3.59703961    0.55247393
     atom   17 type  2   force =    -0.61387248   -1.60094364  -37.50189716
     atom   18 type  2   force =     0.21708125    0.56093912   38.78002944
     atom   19 type  1   force =    -1.75700984    3.33806415    0.92132362
     atom   20 type  2   force =    -0.10851693    0.48581783   38.96903948
     atom   21 type  1   force =     1.93984527   -0.90243870    3.62920110
     atom   22 type  2   force =     0.82240389    2.10549289  -37.53646609
     atom   23 type  2   force =     0.37056109   -0.54718626   38.87220524
     atom   24 type  1   force =    -0.03245244   -1.77775799   -4.50956482
     atom   25 type  2   force =    -0.46521507   -0.58235832  -38.72283110
     atom   26 type  2   force =     0.29841599   -0.20024052   37.64684475
     atom   27 type  1   force =     0.03388875   -0.32105934    3.01415731
     atom   28 type  2   force =    -0.19737930   -1.06831388  -37.76387606
     atom   29 type  2   force =     0.20260208    0.34464909   37.49933721
     atom   30 type  1   force =    -0.40306691    1.70873531    1.34494712
     atom   31 type  2   force =    -1.16133480    0.34532015  -36.89540692
     atom   32 type  2   force =     0.49116198    0.17202953   38.87285641
     atom   33 type  1   force =    -0.45297717    0.59188615   -0.68929504
     atom   34 type  2   force =    -1.07191436    1.52163281  -38.66838549
     atom   35 type  2   force =     0.08125328   -0.40583724   38.28506732
     atom   36 type  3   force =     0.44381620   -0.10273548  -46.46764229
     The core correction contribution to forces
     atom    1 type  1   force =     0.00000000    0.00000000    0.00000000
     atom    2 type  2   force =    -0.00022296   -0.00104104    0.02150632
     atom    3 type  2   force =     0.00069700   -0.00000024   -0.02062071
     atom    4 type  1   force =     0.00000000    0.00000000    0.00000000
     atom    5 type  2   force =    -0.00057857    0.00176243    0.02059420
     atom    6 type  2   force =     0.00027459   -0.00127849   -0.02093732
     atom    7 type  1   force =     0.00000000    0.00000000    0.00000000
     atom    8 type  2   force =     0.00026527    0.00052784    0.02081434
     atom    9 type  2   force =    -0.00026770    0.00066970   -0.02100325
     atom   10 type  1   force =     0.00000000    0.00000000    0.00000000
     atom   11 type  2   force =     0.00489939   -0.01520074   -0.01090154
     atom   12 type  2   force =     0.00106466    0.00150063   -0.02077915
     atom   13 type  1   force =     0.00000000    0.00000000    0.00000000
     atom   14 type  2   force =    -0.00036732   -0.00142892    0.02137895
     atom   15 type  2   force =     0.00053301    0.00031565   -0.02043743
     atom   16 type  1   force =     0.00000000    0.00000000    0.00000000
     atom   17 type  2   force =    -0.00009600    0.00132944    0.02039688
     atom   18 type  2   force =    -0.00008343   -0.00077357   -0.02093835
     atom   19 type  1   force =     0.00000000    0.00000000    0.00000000
     atom   20 type  2   force =     0.00007279    0.00081746   -0.02123625
     atom   21 type  1   force =     0.00000000    0.00000000    0.00000000
     atom   22 type  2   force =     0.00049946   -0.00024140    0.02135081
     atom   23 type  2   force =    -0.00064038    0.00134614   -0.02090636
     atom   24 type  1   force =     0.00000000    0.00000000    0.00000000
     atom   25 type  2   force =     0.00003588   -0.00037182    0.02093085
     atom   26 type  2   force =    -0.00017471    0.00095124   -0.02079057
     atom   27 type  1   force =     0.00000000    0.00000000    0.00000000
     atom   28 type  2   force =     0.00039668    0.00152298    0.02124164
     atom   29 type  2   force =    -0.00043986   -0.00083074   -0.02041663
     atom   30 type  1   force =     0.00000000    0.00000000    0.00000000
     atom   31 type  2   force =     0.00052637   -0.00011847    0.02073043
     atom   32 type  2   force =    -0.00019620    0.00040910   -0.02115237
     atom   33 type  1   force =     0.00000000    0.00000000    0.00000000
     atom   34 type  2   force =     0.00053130    0.00122025    0.02178714
     atom   35 type  2   force =     0.00000874    0.00103973   -0.02102582
     atom   36 type  3   force =    -0.00270975    0.01128610    0.01273744
     The Hubbard contrib.    to forces
     atom    1 type  1   force =     0.00000000    0.00000000    0.00000000
     atom    2 type  2   force =     0.00000000    0.00000000    0.00000000
     atom    3 type  2   force =     0.00000000    0.00000000    0.00000000
     atom    4 type  1   force =     0.00000000    0.00000000    0.00000000
     atom    5 type  2   force =     0.00000000    0.00000000    0.00000000
     atom    6 type  2   force =     0.00000000    0.00000000    0.00000000
     atom    7 type  1   force =     0.00000000    0.00000000    0.00000000
     atom    8 type  2   force =     0.00000000    0.00000000    0.00000000
     atom    9 type  2   force =     0.00000000    0.00000000    0.00000000
     atom   10 type  1   force =     0.00000000    0.00000000    0.00000000
     atom   11 type  2   force =     0.00000000    0.00000000    0.00000000
     atom   12 type  2   force =     0.00000000    0.00000000    0.00000000
     atom   13 type  1   force =     0.00000000    0.00000000    0.00000000
     atom   14 type  2   force =     0.00000000    0.00000000    0.00000000
     atom   15 type  2   force =     0.00000000    0.00000000    0.00000000
     atom   16 type  1   force =     0.00000000    0.00000000    0.00000000
     atom   17 type  2   force =     0.00000000    0.00000000    0.00000000
     atom   18 type  2   force =     0.00000000    0.00000000    0.00000000
     atom   19 type  1   force =     0.00000000    0.00000000    0.00000000
     atom   20 type  2   force =     0.00000000    0.00000000    0.00000000
     atom   21 type  1   force =     0.00000000    0.00000000    0.00000000
     atom   22 type  2   force =     0.00000000    0.00000000    0.00000000
     atom   23 type  2   force =     0.00000000    0.00000000    0.00000000
     atom   24 type  1   force =     0.00000000    0.00000000    0.00000000
     atom   25 type  2   force =     0.00000000    0.00000000    0.00000000
     atom   26 type  2   force =     0.00000000    0.00000000    0.00000000
     atom   27 type  1   force =     0.00000000    0.00000000    0.00000000
     atom   28 type  2   force =     0.00000000    0.00000000    0.00000000
     atom   29 type  2   force =     0.00000000    0.00000000    0.00000000
     atom   30 type  1   force =     0.00000000    0.00000000    0.00000000
     atom   31 type  2   force =     0.00000000    0.00000000    0.00000000
     atom   32 type  2   force =     0.00000000    0.00000000    0.00000000
     atom   33 type  1   force =     0.00000000    0.00000000    0.00000000
     atom   34 type  2   force =     0.00000000    0.00000000    0.00000000
     atom   35 type  2   force =     0.00000000    0.00000000    0.00000000
     atom   36 type  3   force =     0.00000000    0.00000000    0.00000000
     The SCF correction term to forces
     atom    1 type  1   force =     0.00006686    0.00046017    0.00002514
     atom    2 type  2   force =     0.00003893    0.00020941   -0.00011799
     atom    3 type  2   force =     0.00003666    0.00014202    0.00023655
     atom    4 type  1   force =     0.00017327   -0.00014727    0.00016584
     atom    5 type  2   force =     0.00001427    0.00000611   -0.00011087
     atom    6 type  2   force =     0.00002559    0.00001907    0.00039807
     atom    7 type  1   force =     0.00006874   -0.00035499   -0.00011697
     atom    8 type  2   force =     0.00015957   -0.00022776   -0.00013688
     atom    9 type  2   force =     0.00009281   -0.00008728    0.00033153
     atom   10 type  1   force =     0.00020430    0.00007796   -0.00012937
     atom   11 type  2   force =     0.00001928    0.00001570   -0.00011967
     atom   12 type  2   force =     0.00004082   -0.00003040    0.00016600
     atom   13 type  1   force =    -0.00018138    0.00036854    0.00017539
     atom   14 type  2   force =    -0.00001343    0.00018594   -0.00004098
     atom   15 type  2   force =     0.00001789    0.00013240    0.00023268
     atom   16 type  1   force =    -0.00008506   -0.00018475    0.00021775
     atom   17 type  2   force =    -0.00004913    0.00004291   -0.00008418
     atom   18 type  2   force =    -0.00001833    0.00004573    0.00041403
     atom   19 type  1   force =    -0.00035000   -0.00040138    0.00001070
     atom   20 type  2   force =    -0.00007574   -0.00008182    0.00037273
     atom   21 type  1   force =    -0.00008766    0.00011285   -0.00004131
     atom   22 type  2   force =    -0.00016110   -0.00006005   -0.00016506
     atom   23 type  2   force =    -0.00011931   -0.00008194    0.00028470
     atom   24 type  1   force =     0.00014318    0.00041499    0.00003957
     atom   25 type  2   force =    -0.00002277    0.00014923   -0.00009557
     atom   26 type  2   force =    -0.00004791    0.00005590    0.00032677
     atom   27 type  1   force =    -0.00010139    0.00002658    0.00029622
     atom   28 type  2   force =     0.00003738    0.00005578   -0.00009946
     atom   29 type  2   force =    -0.00000793    0.00003649    0.00041059
     atom   30 type  1   force =     0.00027344   -0.00036525    0.00002581
     atom   31 type  2   force =    -0.00004212   -0.00013915   -0.00013668
     atom   32 type  2   force =    -0.00002052   -0.00002270    0.00043379
     atom   33 type  1   force =    -0.00010596   -0.00001307   -0.00006538
     atom   34 type  2   force =     0.00015207   -0.00007031   -0.00015637
     atom   35 type  2   force =     0.00008837   -0.00007366    0.00026543
     atom   36 type  3   force =    -0.00007548    0.00041708    0.00000461

     Total force =     0.379373     Total SCF correction =     0.001916
     Energy error            =      1.4E-01 Ry
     Gradient error          =      2.3E-01 Ry/Bohr

     number of scf cycles    =   2
     number of bfgs steps    =   1

     energy             old  =   -2246.1356089105 Ry
     energy             new  =   -2246.2726891429 Ry

     CASE: energy            _new < energy            _old

     new trust radius        =       0.1576845998 bohr
     new conv_thr            =       0.0000002255 Ry


ATOMIC_POSITIONS (angstrom)
Mo            6.5823046053        1.7692758478        2.8297706232
S             8.1678280273        0.8195136394        4.4347707068
S             8.1844511472        0.8190458657        1.2741282939
Mo            8.0979791161        4.4993904498        2.7192245809
S             6.4987037568        3.7172323396        4.3412550816
S             6.5520878360        3.5206582983        1.1209882388
Mo            6.4809059856        7.1632065693        2.6490453053
S             8.0898155082        6.3353439015        4.2532483577
S             8.0921383066        6.3080246555        1.0884902684
Mo            8.1646012079        9.9089811852        2.8091652754
S             6.5316864204        8.8826914958        4.2168497692
S             6.6174403349        9.0490120347        1.1391479375
Mo            3.4248773553        1.7537408427        2.7693323429
S             4.9780190698        0.8173039447        4.3553044812
S             5.0498348265        0.8508542512        1.2196773110
Mo            4.9812387186        4.5184208737        2.6382724012
S             3.4328678239        3.6709873375        4.2798894722
S             3.4365184853        3.5438021286        1.0674189963
Mo            3.4572307155        7.2127599798        2.6256363450
S             4.9865677401        6.3251157824        1.0349394948
Mo            4.9908869336        9.8989948708        2.7035591422
S             3.4722846398        8.9427105330        4.3265103895
S             3.4073578396        9.0669497282        1.1024944477
Mo            0.2892781361        1.7471245962        2.8340393964
S             1.8615040844        0.8051208413        4.4034678026
S             1.8529923352        0.8533543682        1.2060274891
Mo            1.8604865855        4.4967494584        2.6642198861
S             0.2725867848        3.6520784849        4.3342963612
S             0.2328442942        3.5278974248        1.1713869668
Mo            0.2721711085        7.2233364033        2.7007816540
S             1.9035343818        6.3138297274        4.2331507766
S             1.8559560334        6.3151417229        1.0509141528
Mo            1.8525270647        9.9356965471        2.7659963247
S             0.2965689800        9.0597816979        4.4075363223
S             0.2723486049        9.0482495434        1.1606441922
O             6.2764288846        9.8231468173        5.5947422320



     Writing config-only to output data dir ./MoS2-V-O.save/
     NEW-OLD atomic charge density approx. for the potential

     negative rho (up, down):  1.774E-04 0.000E+00

     total cpu time spent up to now is      247.0 secs

     Self-consistent Calculation

     iteration #  1     ecut=    80.00 Ry     beta= 0.70
     Davidson diagonalization with overlap
     ethr =  1.00E-06,  avg # of iterations = 14.0

     negative rho (up, down):  1.195E-04 0.000E+00

     total cpu time spent up to now is      269.0 secs

     total energy              =   -2246.33221461 Ry
     estimated scf accuracy    <       0.01246639 Ry

     iteration #  2     ecut=    80.00 Ry     beta= 0.70
     Davidson diagonalization with overlap
     ethr =  4.00E-06,  avg # of iterations =  2.0

     negative rho (up, down):  1.067E-04 0.000E+00

     total cpu time spent up to now is      281.4 secs

     total energy              =   -2246.33294417 Ry
     estimated scf accuracy    <       0.00314852 Ry

     iteration #  3     ecut=    80.00 Ry     beta= 0.70
     Davidson diagonalization with overlap
     ethr =  1.01E-06,  avg # of iterations =  2.0

     negative rho (up, down):  9.971E-05 0.000E+00

     total cpu time spent up to now is      294.3 secs

     total energy              =   -2246.33299045 Ry
     estimated scf accuracy    <       0.00073286 Ry

     iteration #  4     ecut=    80.00 Ry     beta= 0.70
     Davidson diagonalization with overlap
     ethr =  2.35E-07,  avg # of iterations =  5.0

     negative rho (up, down):  9.751E-05 0.000E+00

     total cpu time spent up to now is      313.1 secs

     total energy              =   -2246.33309876 Ry
     estimated scf accuracy    <       0.00006198 Ry

     iteration #  5     ecut=    80.00 Ry     beta= 0.70
     Davidson diagonalization with overlap
     ethr =  1.99E-08,  avg # of iterations =  5.0

     negative rho (up, down):  9.079E-05 0.000E+00

     total cpu time spent up to now is      327.4 secs

     total energy              =   -2246.33311069 Ry
     estimated scf accuracy    <       0.00003104 Ry

     iteration #  6     ecut=    80.00 Ry     beta= 0.70
     Davidson diagonalization with overlap
     ethr =  9.95E-09,  avg # of iterations =  2.0

     negative rho (up, down):  8.054E-05 0.000E+00

     total cpu time spent up to now is      340.2 secs

     total energy              =   -2246.33311188 Ry
     estimated scf accuracy    <       0.00000891 Ry

     iteration #  7     ecut=    80.00 Ry     beta= 0.70
     Davidson diagonalization with overlap
     ethr =  2.86E-09,  avg # of iterations =  3.0

     negative rho (up, down):  7.466E-05 0.000E+00

     total cpu time spent up to now is      352.8 secs

     total energy              =   -2246.33311319 Ry
     estimated scf accuracy    <       0.00000167 Ry

     iteration #  8     ecut=    80.00 Ry     beta= 0.70
     Davidson diagonalization with overlap
     ethr =  5.35E-10,  avg # of iterations =  5.0

     negative rho (up, down):  8.376E-05 0.000E+00

     total cpu time spent up to now is      364.2 secs

     total energy              =   -2246.33311383 Ry
     estimated scf accuracy    <       0.00000044 Ry

     iteration #  9     ecut=    80.00 Ry     beta= 0.70
     Davidson diagonalization with overlap
     ethr =  1.42E-10,  avg # of iterations =  4.0

     negative rho (up, down):  1.916E-04 0.000E+00

     total cpu time spent up to now is      367.5 secs

     End of self-consistent calculation

          k = 0.0000 0.0000 0.0000 (105382 PWs)   bands (ev):

   -63.0785 -63.0454 -63.0243 -63.0057 -62.9880 -62.9784 -62.9719 -62.9614
   -62.9530 -62.9179 -62.9173 -62.9031 -37.4213 -37.3706 -37.3297 -37.3213
   -37.2899 -37.2678 -37.2535 -37.2506 -37.2195 -37.2170 -37.2150 -37.2052
   -37.1873 -37.1784 -37.1686 -37.1650 -37.1528 -37.1500 -37.1425 -37.1376
   -37.1289 -37.1256 -37.1124 -37.1051 -37.0992 -37.0926 -37.0664 -37.0619
   -37.0551 -37.0358 -37.0304 -37.0181 -36.9692 -36.9558 -36.9384 -36.9128
   -20.2663 -16.1002 -15.3485 -15.2920 -15.1391 -15.0515 -14.8708 -14.6579
   -14.6335 -14.6122 -14.5885 -14.5575 -14.5041 -14.4270 -14.3741 -14.3046
   -14.2753 -14.2615 -14.1799 -14.1111 -14.0324 -14.0211 -13.9967 -13.9233
    -7.9273  -7.6978  -7.6346  -7.5427  -7.4829  -7.4389  -7.3966  -7.3139
    -7.2178  -7.0349  -6.9788  -6.9592  -6.9046  -6.7907  -6.7645  -6.6925
    -6.6414  -6.5367  -6.4685  -6.4112  -6.1535  -6.1160  -6.0954  -6.0041
    -5.9466  -5.9238  -5.8877  -5.8677  -5.8369  -5.8030  -5.7443  -5.6737
    -5.6474  -5.6069  -5.5179  -5.3665  -5.3195  -5.2789  -5.2006  -5.1768
    -5.1194  -5.0884  -5.0104  -4.8695  -4.7813  -4.7412  -4.5222  -4.5055
    -4.3967  -4.3424  -4.2555  -4.2136  -4.1265  -4.0112  -3.9243  -3.8957
    -3.8622  -3.8292  -3.7584  -3.7261  -3.7175  -3.6921  -3.6384  -3.5894
    -3.5739  -3.5106  -3.3417  -3.3098  -3.1976  -3.1087  -3.0248  -3.0090
    -2.9473  -2.8868  -2.8650  -2.8299  -2.8098  -2.7657  -2.4863  -2.4585
    -2.2619  -2.1542  -2.1356  -2.0054  -1.1653  -0.9367  -0.4716  -0.3342
    -0.2701  -0.2005  -0.1776  -0.0505  -0.0079   0.0285   0.1281   0.1747
     0.1951   0.2386   0.2734   0.2899   0.3607   0.4179   0.4222   0.5083
     0.5392   0.5897   0.6035   0.6509   0.6789   0.7090   0.7354   0.8182
     0.8388   0.9232   1.1725

     the Fermi energy is    -1.5853 ev

!    total energy              =   -2246.33311389 Ry
     estimated scf accuracy    <       0.00000017 Ry
     smearing contrib. (-TS)   =      -0.00000082 Ry
     internal energy E=F+TS    =   -2246.33311307 Ry

     The total energy is F=E-TS. E is the sum of the following terms:
     one-electron contribution =  -18434.61959918 Ry
     hartree contribution      =    9204.67287933 Ry
     xc contribution           =    -392.02972426 Ry
     ewald contribution        =    7385.51010191 Ry
     one-center paw contrib.   =      -9.86677087 Ry

     convergence has been achieved in   9 iterations

     negative rho (up, down):  1.916E-04 0.000E+00

     Forces acting on atoms (cartesian axes, Ry/au):

     atom    1 type  1   force =     0.00143179   -0.01329741    0.00120027
     atom    2 type  2   force =    -0.00613227    0.00521704   -0.00404880
     atom    3 type  2   force =    -0.00987129    0.01064322   -0.01286730
     atom    4 type  1   force =     0.00603396   -0.00040107    0.00071875
     atom    5 type  2   force =     0.00026720   -0.00684165   -0.00525374
     atom    6 type  2   force =    -0.00086005    0.00750498    0.00236512
     atom    7 type  1   force =     0.00212754   -0.02477075    0.00176619
     atom    8 type  2   force =     0.00431669   -0.00878757    0.01041413
     atom    9 type  2   force =     0.01439869    0.00067845   -0.00024371
     atom   10 type  1   force =     0.00688687    0.01200796   -0.01784239
     atom   11 type  2   force =    -0.02852596    0.16052151    0.13933413
     atom   12 type  2   force =    -0.00234687   -0.00741004   -0.00539795
     atom   13 type  1   force =     0.00346434    0.00469477   -0.00429485
     atom   14 type  2   force =     0.00224450   -0.00694891   -0.00062782
     atom   15 type  2   force =    -0.00824542    0.00713854   -0.01192974
     atom   16 type  1   force =     0.00141695    0.00584157    0.00153546
     atom   17 type  2   force =     0.00516183    0.00001491    0.00176588
     atom   18 type  2   force =    -0.00138630   -0.00255510    0.00929861
     atom   19 type  1   force =     0.00257691   -0.00641052    0.00057476
     atom   20 type  2   force =    -0.00448109   -0.01025326   -0.01340600
     atom   21 type  1   force =    -0.01233777    0.00436990   -0.01541127
     atom   22 type  2   force =     0.00437148   -0.00056497   -0.00543141
     atom   23 type  2   force =    -0.00701779   -0.00193486   -0.00413133
     atom   24 type  1   force =    -0.00576190   -0.00068036   -0.00806835
     atom   25 type  2   force =     0.00974877    0.01297563   -0.00042160
     atom   26 type  2   force =    -0.00693288   -0.00087254   -0.00582058
     atom   27 type  1   force =    -0.00032667    0.00080213    0.00573275
     atom   28 type  2   force =     0.00020889   -0.00371375   -0.00454854
     atom   29 type  2   force =     0.00172703    0.00249881   -0.00256103
     atom   30 type  1   force =    -0.00184636    0.00204828    0.00458566
     atom   31 type  2   force =     0.00190200    0.00112531    0.00963490
     atom   32 type  2   force =    -0.00648835    0.00514976    0.00528283
     atom   33 type  1   force =     0.00511445   -0.00425359    0.00286322
     atom   34 type  2   force =    -0.00118290   -0.02752206   -0.01450178
     atom   35 type  2   force =    -0.00093769    0.00538663    0.00290025
     atom   36 type  3   force =     0.03128166   -0.12140099   -0.06316474
     The non-local contrib.  to forces
     atom    1 type  1   force =    -0.00315731    0.02526437   -0.01027413
     atom    2 type  2   force =    -0.00220138    0.00949935   -0.27853213
     atom    3 type  2   force =    -0.01263520   -0.00278387    0.25899491
     atom    4 type  1   force =     0.00611429   -0.00198710    0.00380401
     atom    5 type  2   force =     0.00698459   -0.03429632   -0.25570160
     atom    6 type  2   force =    -0.00066656    0.00901548    0.26660175
     atom    7 type  1   force =    -0.02101832    0.00985341   -0.01193522
     atom    8 type  2   force =    -0.00240502   -0.00389435   -0.26319627
     atom    9 type  2   force =     0.00524387   -0.01367802    0.27266485
     atom   10 type  1   force =    -0.00024035   -0.00367480    0.01097933
     atom   11 type  2   force =    -0.09133784    0.23544129    0.33361133
     atom   12 type  2   force =    -0.01362566   -0.02782261    0.26584761
     atom   13 type  1   force =     0.00788617    0.01740821   -0.00490457
     atom   14 type  2   force =     0.01133915    0.00715205   -0.27286327
     atom   15 type  2   force =    -0.00810613   -0.00539262    0.25761995
     atom   16 type  1   force =    -0.00759773    0.01608555   -0.03522722
     atom   17 type  2   force =     0.00244927   -0.02567993   -0.25185612
[...]
     atom   28 type  2   force =    -0.00211353   -0.01073011   -0.27717750
     atom   29 type  2   force =     0.00023121   -0.00994411    0.26843053
     atom   30 type  1   force =     0.00109770    0.02102293    0.00277869
     atom   31 type  2   force =    -0.00935222    0.00370062   -0.26869425
     atom   32 type  2   force =     0.00724333   -0.01239970    0.26981867
     atom   33 type  1   force =    -0.00281784    0.00741829    0.01009668
     atom   34 type  2   force =     0.00111971   -0.00812373   -0.27818156
     atom   35 type  2   force =    -0.00017507   -0.01200329    0.26301741
     atom   36 type  3   force =     0.02042773   -0.04787943   -2.31581541
     The ionic contribution  to forces
     atom    1 type  1   force =    -0.14396826    1.59499636    0.77251474
     atom    2 type  2   force =     0.35005095    1.12504334   38.15458490
     atom    3 type  2   force =     0.09577247    0.12308576  -38.47432769
     atom    4 type  1   force =     0.20394551   -0.23528063    0.48304358
     atom    5 type  2   force =    -0.85296823    0.99700005   38.10137685
     atom    6 type  2   force =     0.27163813   -0.27727162  -38.43996409
     atom    7 type  1   force =    -2.82900642   -2.78082102   -0.50947465
     atom    8 type  2   force =    -0.53032045   -0.90282347   37.92422334
     atom    9 type  2   force =     0.47541050   -0.08304050  -38.47067256
     atom   10 type  1   force =     0.59896906    0.22834192   -1.68252148
     atom   11 type  2   force =    -0.44082282   -1.60704910   28.42797656
     atom   12 type  2   force =     0.22663972    0.14288244  -38.53877171
     atom   13 type  1   force =    -0.28579575    1.21047322    0.60203528
     atom   14 type  2   force =    -0.58507438    1.04094860   37.82259411
     atom   15 type  2   force =    -0.02122269    0.07457026  -38.52490634
     atom   16 type  1   force =    -0.39406852    2.92280216    0.73796557
     atom   17 type  2   force =     0.67965731    1.05665618   38.09959500
     atom   18 type  2   force =    -0.29162441   -0.22614951  -38.47888335
     atom   19 type  1   force =     2.13065857   -2.51728450    1.61294968
     atom   20 type  2   force =    -0.11412306   -0.08801719  -39.28563938
     atom   21 type  1   force =    -1.02754507    0.24575436   -3.45082091
     atom   22 type  2   force =    -0.59450366   -1.40388199   37.73647433
     atom   23 type  2   force =    -0.23287931    0.19108645  -38.72436920
     atom   24 type  1   force =     0.46111426    1.01088605    0.71706921
     atom   25 type  2   force =     0.19031562    0.40169682   38.35888342
     atom   26 type  2   force =    -0.08505498    0.06339827  -38.12759145
     atom   27 type  1   force =     0.16421749    0.16532160    0.24302445
     atom   28 type  2   force =     0.15807854    0.39738163   38.05396893
     atom   29 type  2   force =     0.03332644    0.01155601  -37.96050389
     atom   30 type  1   force =     0.60331507   -1.29072152    1.60835760
     atom   31 type  2   force =     1.18210192   -0.18392276   38.14380574
     atom   32 type  2   force =    -0.36911684   -0.12594627  -38.15791733
     atom   33 type  1   force =     0.46360268   -0.04824059    1.22066385
     atom   34 type  2   force =     1.03278206   -0.39515059   38.17795476
     atom   35 type  2   force =     0.05237025   -0.02260201  -38.28932085
     atom   36 type  3   force =    -0.57587173   -0.81567826   50.11662297
     The local contribution  to forces
     atom    1 type  1   force =     0.14756849   -1.61388676   -0.76632280
     atom    2 type  2   force =    -0.34809490   -1.11563045  -37.90369182
     atom    3 type  2   force =    -0.09419097   -0.11270607   38.23182947
     atom    4 type  1   force =    -0.21234984    0.23097585   -0.48479541
     atom    5 type  2   force =     0.84783773   -0.97547970  -37.86482947
     atom    6 type  2   force =    -0.27146625    0.28226402   38.19325589
     atom    7 type  1   force =     2.84540390    2.76783215    0.51994495
     atom    8 type  2   force =     0.52853875    0.89642624  -37.67461880
     atom    9 type  2   force =    -0.46824297    0.09627854   38.22271152
     atom   10 type  1   force =    -0.59064479   -0.23315394    1.66365336
     atom   11 type  2   force =     0.45614905    1.58943739  -28.71687983
     atom   12 type  2   force =    -0.21923263   -0.13071137   38.28457413
     atom   13 type  1   force =     0.28252788   -1.23466758   -0.59691969
     atom   14 type  2   force =     0.58446266   -1.03470319  -37.57085254
     atom   15 type  2   force =     0.02080835   -0.06493952   38.28432591
     atom   16 type  1   force =     0.39946099   -2.95072278   -0.70477665
     atom   17 type  2   force =    -0.67588039   -1.03665928  -37.86310623
     atom   18 type  2   force =     0.29201679    0.22962515   38.23395427
     atom   19 type  1   force =    -2.14467657    2.51053292   -1.59005214
     atom   20 type  2   force =     0.11302445    0.10110621   39.04297635
     atom   21 type  1   force =     1.01806311   -0.25610118    3.42703337
     atom   22 type  2   force =     0.59884401    1.39903404  -37.49276780
     atom   23 type  2   force =     0.22555831   -0.17706893   38.48130835
     atom   24 type  1   force =    -0.46095446   -1.02752996   -0.72023631
     atom   25 type  2   force =    -0.19043667   -0.39065162  -38.10903190
     atom   26 type  2   force =     0.08282491   -0.05077702   37.87948909
     atom   27 type  1   force =    -0.15921138   -0.17045837   -0.24463325
     atom   28 type  2   force =    -0.15658078   -0.38688277  -37.79805499
     atom   29 type  2   force =    -0.03366387   -0.00208252   37.71311634
     atom   30 type  1   force =    -0.60487332    1.26925718   -1.61202964
     atom   31 type  2   force =    -1.17386309    0.18073965  -37.89730816
     atom   32 type  2   force =     0.36277161    0.13631936   37.90820034
     atom   33 type  1   force =    -0.46097728    0.04049639   -1.23002104
     atom   34 type  2   force =    -1.03413614    0.40264261  -37.92041802
     atom   35 type  2   force =    -0.05276314    0.03426347   38.04721799
     atom   36 type  3   force =     0.55539448    0.86195263  -47.82534892
     The core correction contribution to forces
     atom    1 type  1   force =     0.00000000    0.00000000    0.00000000
     atom    2 type  2   force =     0.00005458    0.00043353    0.02128822
     atom    3 type  2   force =     0.00001685    0.00051229   -0.02082243
     atom    4 type  1   force =     0.00000000    0.00000000    0.00000000
     atom    5 type  2   force =    -0.00051306    0.00097694    0.02052377
     atom    6 type  2   force =     0.00028288   -0.00013666   -0.02089965
     atom    7 type  1   force =     0.00000000    0.00000000    0.00000000
     atom    8 type  2   force =    -0.00011695    0.00004052    0.02127460
     atom    9 type  2   force =     0.00082678    0.00074358   -0.02098539
     atom   10 type  1   force =     0.00000000    0.00000000    0.00000000
     atom   11 type  2   force =     0.00097091   -0.00115391   -0.00987690
     atom   12 type  2   force =     0.00068761    0.00072383   -0.02126920
     atom   13 type  1   force =     0.00000000    0.00000000    0.00000000
     atom   14 type  2   force =    -0.00005593    0.00006363    0.02132648
     atom   15 type  2   force =     0.00007086    0.00047552   -0.02070208
     atom   16 type  1   force =     0.00000000    0.00000000    0.00000000
     atom   17 type  2   force =     0.00038540    0.00084363    0.02052538
     atom   18 type  2   force =    -0.00021086   -0.00020358   -0.02084926
     atom   19 type  1   force =     0.00000000    0.00000000    0.00000000
     atom   20 type  2   force =    -0.00012233    0.00069287   -0.02118358
     atom   21 type  1   force =     0.00000000    0.00000000    0.00000000
     atom   22 type  2   force =     0.00005993   -0.00037007    0.02104943
     atom   23 type  2   force =    -0.00062986    0.00088179   -0.02083635
     atom   24 type  1   force =     0.00000000    0.00000000    0.00000000
     atom   25 type  2   force =     0.00001169    0.00052020    0.02100513
     atom   26 type  2   force =    -0.00020441    0.00054480   -0.02097121
     atom   27 type  1   force =     0.00000000    0.00000000    0.00000000
     atom   28 type  2   force =     0.00011753    0.00063787    0.02130889
     atom   29 type  2   force =    -0.00005143    0.00039312   -0.02086115
     atom   30 type  1   force =     0.00000000    0.00000000    0.00000000
     atom   31 type  2   force =     0.00048393    0.00007140    0.02101530
     atom   32 type  2   force =    -0.00070213    0.00070131   -0.02101001
     atom   33 type  1   force =     0.00000000    0.00000000    0.00000000
     atom   34 type  2   force =    -0.00008575    0.00040304    0.02162270
     atom   35 type  2   force =     0.00003210    0.00054414   -0.02080229
     atom   36 type  3   force =    -0.00020533    0.00048421    0.02455284
     The Hubbard contrib.    to forces
     atom    1 type  1   force =     0.00000000    0.00000000    0.00000000
     atom    2 type  2   force =     0.00000000    0.00000000    0.00000000
     atom    3 type  2   force =     0.00000000    0.00000000    0.00000000
     atom    4 type  1   force =     0.00000000    0.00000000    0.00000000
     atom    5 type  2   force =     0.00000000    0.00000000    0.00000000
     atom    6 type  2   force =     0.00000000    0.00000000    0.00000000
     atom    7 type  1   force =     0.00000000    0.00000000    0.00000000
     atom    8 type  2   force =     0.00000000    0.00000000    0.00000000
     atom    9 type  2   force =     0.00000000    0.00000000    0.00000000
     atom   10 type  1   force =     0.00000000    0.00000000    0.00000000
     atom   11 type  2   force =     0.00000000    0.00000000    0.00000000
     atom   12 type  2   force =     0.00000000    0.00000000    0.00000000
     atom   13 type  1   force =     0.00000000    0.00000000    0.00000000
     atom   14 type  2   force =     0.00000000    0.00000000    0.00000000
     atom   15 type  2   force =     0.00000000    0.00000000    0.00000000
     atom   16 type  1   force =     0.00000000    0.00000000    0.00000000
     atom   17 type  2   force =     0.00000000    0.00000000    0.00000000
     atom   18 type  2   force =     0.00000000    0.00000000    0.00000000
     atom   19 type  1   force =     0.00000000    0.00000000    0.00000000
     atom   20 type  2   force =     0.00000000    0.00000000    0.00000000
     atom   21 type  1   force =     0.00000000    0.00000000    0.00000000
     atom   22 type  2   force =     0.00000000    0.00000000    0.00000000
     atom   23 type  2   force =     0.00000000    0.00000000    0.00000000
     atom   24 type  1   force =     0.00000000    0.00000000    0.00000000
     atom   25 type  2   force =     0.00000000    0.00000000    0.00000000
     atom   26 type  2   force =     0.00000000    0.00000000    0.00000000
     atom   27 type  1   force =     0.00000000    0.00000000    0.00000000
     atom   28 type  2   force =     0.00000000    0.00000000    0.00000000
     atom   29 type  2   force =     0.00000000    0.00000000    0.00000000
     atom   30 type  1   force =     0.00000000    0.00000000    0.00000000
     atom   31 type  2   force =     0.00000000    0.00000000    0.00000000
     atom   32 type  2   force =     0.00000000    0.00000000    0.00000000
     atom   33 type  1   force =     0.00000000    0.00000000    0.00000000
     atom   34 type  2   force =     0.00000000    0.00000000    0.00000000
     atom   35 type  2   force =     0.00000000    0.00000000    0.00000000
     atom   36 type  3   force =     0.00000000    0.00000000    0.00000000
     The SCF correction term to forces
     atom    1 type  1   force =    -0.00000002   -0.00002427   -0.00000462
     atom    2 type  2   force =    -0.00000416   -0.00000766    0.00000275
     atom    3 type  2   force =     0.00000454   -0.00000475   -0.00000432
     atom    4 type  1   force =    -0.00000469   -0.00001116   -0.00000838
     atom    5 type  2   force =    -0.00000090   -0.00000743   -0.00000015
     atom    6 type  2   force =    -0.00000070   -0.00000566   -0.00000356
     atom    7 type  1   force =    -0.00000832    0.00005100    0.00000638
     atom    8 type  2   force =     0.00000644    0.00000770   -0.00000933
     atom    9 type  2   force =     0.00000906    0.00000505    0.00000202
     atom   10 type  1   force =    -0.00002525   -0.00000261    0.00000398
     atom   11 type  2   force =    -0.00000260    0.00001686   -0.00002174
     atom   12 type  2   force =    -0.00000425   -0.00000093    0.00001141
     atom   13 type  1   force =     0.00001455   -0.00002075   -0.00001454
     atom   14 type  2   force =     0.00000213   -0.00001230    0.00000414
     atom   15 type  2   force =    -0.00000573   -0.00000687   -0.00000439
     atom   16 type  1   force =     0.00000336   -0.00001554   -0.00001121
     atom   17 type  2   force =     0.00000573   -0.00000901   -0.00000109
     atom   18 type  2   force =     0.00000652   -0.00001077   -0.00000370
     atom   19 type  1   force =     0.00000046    0.00003063   -0.00001697
     atom   20 type  2   force =    -0.00000823    0.00000294   -0.00000465
     atom   21 type  1   force =     0.00002413   -0.00000197    0.00000320
     atom   22 type  2   force =     0.00000433    0.00000961   -0.00000691
     atom   23 type  2   force =    -0.00000083    0.00000551   -0.00000367
     atom   24 type  1   force =    -0.00000299   -0.00002537   -0.00001274
     atom   25 type  2   force =     0.00000023   -0.00000827   -0.00000507
     atom   26 type  2   force =    -0.00000186   -0.00000795   -0.00000670
     atom   27 type  1   force =    -0.00000183   -0.00000903   -0.00000165
     atom   28 type  2   force =    -0.00000229   -0.00000944    0.00000160
     atom   29 type  2   force =    -0.00000384   -0.00001017   -0.00000511
     atom   30 type  1   force =    -0.00000781    0.00002417   -0.00000898
     atom   31 type  2   force =    -0.00000368    0.00000509   -0.00000282
     atom   32 type  2   force =    -0.00000265    0.00001217   -0.00000391
     atom   33 type  1   force =     0.00000141    0.00001148   -0.00001459
     atom   34 type  2   force =    -0.00000131    0.00000422   -0.00000756
     atom   35 type  2   force =     0.00000528    0.00000642   -0.00000108
     atom   36 type  3   force =    -0.00001059    0.00005082   -0.00002367

     Total force =     0.007009     Total SCF correction =     0.000125
     Energy error            =      9.1E-05 Ry
     Gradient error          =      2.9E-03 Ry/Bohr

     bfgs converged in  22 scf cycles and  21 bfgs steps
     (criteria: energy <  1.0E-04 Ry, force <  1.0E-02 Ry/Bohr)

     End of BFGS Geometry Optimization

     Final energy             =   -2246.4455897650 Ry

     File ./MoS2-V-O.bfgs deleted, as requested
Begin final coordinates

ATOMIC_POSITIONS (angstrom)
Mo            6.5566234749        1.7732185125        2.7508442578
S             8.1343432085        0.8758957106        4.3603928926
S             8.1347634273        0.8820174566        1.1508595007
Mo            8.1165499457        4.5219962500        2.7316299799
S             6.5091228700        3.6777911183        4.3116710088
S             6.5525410956        3.5924088386        1.1161647316
Mo            6.5074837058        7.1670526843        2.6707228462
S             8.0585222608        6.3298772630        4.3354725068
S             8.1449421501        6.3374918805        1.1258476064
Mo            8.1591639528        9.9785328889        2.7462899758
S             6.5406817779        8.9918984276        4.2366629941
S             6.5893535151        9.0388575746        1.1393380025
Mo            3.4232039044        1.7740428161        2.7397234945
S             4.9842237326        0.8343845024        4.3359877253
S             4.9916505881        0.8709128388        1.1387790096
Mo            4.9873558014        4.5507015509        2.6568992793
S             3.4623529432        3.6717200665        4.3053999835
S             3.4201120638        3.5873368219        1.1100631247
Mo            3.4646768443        7.2041543974        2.6787255043
S             4.9742430963        6.3258955794        1.0454544226
Mo            4.9750242830        9.9429936598        2.7064483545
S             3.4710273899        8.9797904582        4.3203207153
S             3.3819888613        9.0333426814        1.1153800383
Mo            0.2579674382        1.7702423810        2.7542931626
S             1.8512060242        0.8723198464        4.3507996641
S             1.8375665476        0.8595028932        1.1605967209
Mo            1.8609500384        4.5171054575        2.7229010774
S             0.2639598904        3.6230170999        4.3238448648
S             0.2586115592        3.5951247054        1.1549102816
Mo            0.2542493623        7.2380345763        2.7596727553
S             1.9037895585        6.3260249394        4.3204098498
S             1.8369948612        6.3506446298        1.1320987720
Mo            1.8500748369        9.9504661686        2.7593585776
S             0.2615603255        9.0614468062        4.3587922962
S             0.2741896890        9.0552763197        1.1647471108
O             6.5257826546        9.0340043865        5.7348197316
End final coordinates



     Writing all to output data dir ./MoS2-V-O.save/
 
     init_run     :      4.63s CPU      4.93s WALL (       1 calls)
     electrons    :   2028.41s CPU   2227.62s WALL (      22 calls)
     update_pot   :     64.17s CPU     67.14s WALL (      21 calls)
     forces       :     60.16s CPU     64.87s WALL (      22 calls)

     Called by init_run:
     wfcinit      :      0.49s CPU      0.54s WALL (       1 calls)
     potinit      :      2.35s CPU      2.51s WALL (       1 calls)
     hinit0       :      0.47s CPU      0.48s WALL (       1 calls)

     Called by electrons:
     c_bands      :    293.97s CPU    299.15s WALL (     202 calls)
     sum_band     :    123.68s CPU    137.87s WALL (     202 calls)
     v_of_rho     :    188.54s CPU    215.90s WALL (     216 calls)
     newd         :     64.55s CPU     76.35s WALL (     216 calls)
     PAW_pot      :      8.58s CPU      8.62s WALL (     237 calls)
     mix_rho      :   1371.08s CPU   1510.89s WALL (     202 calls)

     Called by c_bands:
     init_us_2    :      4.86s CPU      5.02s WALL (     426 calls)
     init_us_2:cp :      4.85s CPU      5.01s WALL (     426 calls)
     regterg      :    279.39s CPU    284.39s WALL (     202 calls)

     Called by *egterg:
     rdiaghg      :     19.05s CPU     19.19s WALL (    1079 calls)
     h_psi        :    182.88s CPU    184.34s WALL (    1109 calls)
     s_psi        :     16.93s CPU     16.99s WALL (    1109 calls)
     g_psi        :      0.90s CPU      0.91s WALL (     906 calls)

     Called by h_psi:
     h_psi:calbec :     18.69s CPU     18.78s WALL (    1109 calls)
     vloc_psi     :    145.20s CPU    146.49s WALL (    1109 calls)
     add_vuspsi   :     16.68s CPU     16.75s WALL (    1109 calls)

     General routines
     calbec       :     27.25s CPU     27.37s WALL (    1420 calls)
     fft          :    129.85s CPU    149.69s WALL (   14459 calls)
     ffts         :    608.74s CPU    743.51s WALL (  329794 calls)
     fftw         :     88.94s CPU     89.61s WALL (  123240 calls)
     interpolate  :      2.71s CPU      3.10s WALL (     216 calls)
 
     Parallel routines
 
     PWSCF        :  36m 6.70s CPU  39m36.45s WALL

 
   This run was terminated on:  22:48: 3   1Nov2023            

=------------------------------------------------------------------------------=
   JOB DONE.
=------------------------------------------------------------------------------=
