
     Program PWSCF v.7.2 starts on  1Nov2023 at 23:24:54 

     This program is part of the open-source Quantum ESPRESSO suite
     for quantum simulation of materials; please cite
         "P. Giannozzi et al., J. Phys.:Condens. Matter 21 395502 (2009);
         "P. Giannozzi et al., J. Phys.:Condens. Matter 29 465901 (2017);
         "P. Giannozzi et al., J. Chem. Phys. 152 154105 (2020);
          URL http://www.quantum-espresso.org", 
     in publications or presentations arising from this work. More details at
     http://www.quantum-espresso.org/quote

     Parallel version (MPI & OpenMP), running on      48 processor cores
     Number of MPI processes:                48
     Threads/MPI process:                     1

     MPI processes distributed on     1 nodes
     19412 MiB available memory on the printing compute node when the environment starts
 
     Waiting for input...
     Reading input from standard input
Warning: card &CELL ignored
Warning: card CELL_DYNAMICS = 'BFGS', ignored
Warning: card CELL_DOFREE = '2DXY' ignored
Warning: card / ignored

     Current dimensions of program PWSCF are:
     Max number of different atomic species (ntypx) = 10
     Max number of k-points (npk) =  40000
     Max angular momentum in pseudopotentials (lmaxx) =  4
     file O.pbe-n-kjpaw_psl.0.1.UPF: wavefunction(s)  2P renormalized

     IMPORTANT: XC functional enforced from input :
     Exchange-correlation= RVV10
                           (   1   4  13   4  26   0   0)
     Any further DFT definition will be discarded
     Please, verify this is what you really want


     gamma-point specific algorithms are used
     signal trapping enabled: kill the code with -SIGUSR1 to stop cleanly the simulation 
 
     R & G space division:  proc/nbgrp/npool/nimage =      48
     Subspace diagonalization in iterative solution of the eigenvalue problem:
     one sub-group per band group will be used
     scalapack distributed-memory algorithm (size of sub-group:  2*  2 procs)

 
     Parallelization info
     --------------------
     sticks:   dense  smooth     PW     G-vecs:    dense   smooth      PW
     Min         396     194     47               101632    35090    4376
     Max         398     196     50               101674    35128    4410
     Sum       19091    9389   2349              4879585  1685513  210763
 
     Using Slab Decomposition
 


     bravais-lattice index     =            0
     lattice parameter (alat)  =      17.8707  a.u.
     unit-cell volume          =   17436.2743 (a.u.)^3
     number of atoms/cell      =           36
     number of atomic types    =            3
     number of electrons       =       312.00
     number of Kohn-Sham states=          187
     kinetic-energy cutoff     =      80.0000  Ry
     charge density cutoff     =     650.0000  Ry
     scf convergence threshold =      1.0E-06
     mixing beta               =       0.7000
     number of iterations used =            8  local-TF  mixing
     energy convergence thresh.=      1.0E-04
     force convergence thresh. =      1.0E-02
     Exchange-correlation= RVV10
                           (   1   4  13   4  26   0   0)
     nstep                     =          200


     celldm(1)=  17.870686  celldm(2)=   0.000000  celldm(3)=   0.000000
     celldm(4)=   0.000000  celldm(5)=   0.000000  celldm(6)=   0.000000

     crystal axes: (cart. coord. in units of alat)
               a(1) = (   1.000000   0.000000   0.000000 )  
               a(2) = (   0.000000   1.155671   0.000000 )  
               a(3) = (   0.000000   0.000000   2.643601 )  

     reciprocal axes: (cart. coord. in units 2 pi/alat)
               b(1) = (  1.000000  0.000000  0.000000 )  
               b(2) = (  0.000000  0.865298  0.000000 )  
               b(3) = (  0.000000  0.000000  0.378272 )  


     PseudoPot. # 1 for Mo read from file:
     ../pseudo/Mo_ONCV_PBE-1.0.oncvpsp.upf
     MD5 check sum: 1b5d28e075c9ccadda658a603575cd1f
     Pseudo is Norm-conserving, Zval = 14.0
     Generated using ONCVPSP code by D. R. Hamann
     Using radial grid of 1526 points,  6 beta functions with: 
                l(1) =   0
                l(2) =   0
                l(3) =   1
                l(4) =   1
                l(5) =   2
                l(6) =   2

     PseudoPot. # 2 for S  read from file:
     ../pseudo/s_pbe_v1.4.uspp.F.UPF
     MD5 check sum: 88d86576ff6df21479756cfb9bdac1df
     Pseudo is Ultrasoft + core correction, Zval =  6.0
     Generated by new atomic code, or converted to UPF format
     Using radial grid of  907 points,  6 beta functions with: 
                l(1) =   0
                l(2) =   0
                l(3) =   1
                l(4) =   1
                l(5) =   2
                l(6) =   2
     Q(r) pseudized with  8 coefficients,  rinner =    1.300   1.300   1.300
                                                       1.300   1.300

     PseudoPot. # 3 for O  read from file:
     ../pseudo/O.pbe-n-kjpaw_psl.0.1.UPF
     MD5 check sum: 0234752ac141de4415c5fc33072bef88
     Pseudo is Projector augmented-wave + core cor, Zval =  6.0
     Generated using "atomic" code by A. Dal Corso  v.5.0.99 svn rev. 10869
     Shape of augmentation charge: BESSEL
     Using radial grid of 1095 points,  4 beta functions with: 
                l(1) =   0
                l(2) =   0
                l(3) =   1
                l(4) =   1
     Q(r) pseudized with 0 coefficients 


     atomic species   valence    mass     pseudopotential
        Mo            14.00    95.94000     Mo( 1.00)
        S              6.00    32.06500     S ( 1.00)
        O              6.00    15.99940     O ( 1.00)

     No symmetry found



   Cartesian axes

     site n.     atom                  positions (alat units)
         1           Mo  tau(   1) = (   0.6952221   0.1890506   0.2985846  )
         2           S   tau(   2) = (   0.8646417   0.0856217   0.4689279  )
         3           S   tau(   3) = (   0.8663890   0.0857843   0.1351291  )
         4           Mo  tau(   4) = (   0.8560186   0.4753274   0.2873942  )
         5           S   tau(   5) = (   0.6873294   0.3936244   0.4596353  )
         6           S   tau(   6) = (   0.6929804   0.3713468   0.1185692  )
         7           Mo  tau(   7) = (   0.6862796   0.7633098   0.2825370  )
         8           S   tau(   8) = (   0.8545980   0.6708292   0.4486168  )
         9           S   tau(   9) = (   0.8545123   0.6666874   0.1146125  )
        10           Mo  tau(  10) = (   0.8629403   1.0471007   0.3006803  )
        11           S   tau(  11) = (   0.6868280   0.9456650   0.4634891  )
        12           S   tau(  12) = (   0.6998113   0.9568511   0.1205389  )
        13           Mo  tau(  13) = (   0.3618216   0.1847309   0.2935964  )
        14           S   tau(  14) = (   0.5260962   0.0863870   0.4600448  )
        15           S   tau(  15) = (   0.5348379   0.0894875   0.1297123  )
        16           Mo  tau(  16) = (   0.5265817   0.4772436   0.2784130  )
        17           S   tau(  17) = (   0.3624753   0.3882513   0.4525556  )
        18           S   tau(  18) = (   0.3635411   0.3752055   0.1119148  )
        19           Mo  tau(  19) = (   0.3652268   0.7630864   0.2781795  )
        20           S   tau(  20) = (   0.5269494   0.6690381   0.1096838  )
        21           Mo  tau(  21) = (   0.5300192   1.0470394   0.2900995  )
        22           S   tau(  22) = (   0.3670346   0.9457522   0.4574073  )
        23           S   tau(  23) = (   0.3604225   0.9585725   0.1159032  )
        24           Mo  tau(  24) = (   0.0313099   0.1847895   0.3013130  )
        25           S   tau(  25) = (   0.1956761   0.0838230   0.4650863  )
        26           S   tau(  26) = (   0.1967693   0.0903508   0.1278874  )
        27           Mo  tau(  27) = (   0.1967578   0.4753919   0.2813011  )
        28           S   tau(  28) = (   0.0287851   0.3864324   0.4586755  )
        29           S   tau(  29) = (   0.0244514   0.3729871   0.1239344  )
        30           Mo  tau(  30) = (   0.0286728   0.7631204   0.2856894  )
        31           S   tau(  31) = (   0.2011512   0.6675435   0.4465001  )
        32           S   tau(  32) = (   0.1969214   0.6672839   0.1104564  )
        33           Mo  tau(  33) = (   0.1950294   1.0511147   0.2932237  )
        34           S   tau(  34) = (   0.0312912   0.9612169   0.4667423  )
        35           S   tau(  35) = (   0.0292670   0.9563028   0.1216485  )
        36           O   tau(  36) = (   0.5555556   1.1556707   0.5391074  )

     number of k points=     1  Gaussian smearing, width (Ry)=  0.0100
                       cart. coord. in units 2pi/alat
        k(    1) = (   0.0000000   0.0000000   0.0000000), wk =   2.0000000

     Dense  grid:  2439793 G-vectors     FFT dimensions: ( 150, 180, 384)

     Smooth grid:   842757 G-vectors     FFT dimensions: ( 108, 120, 270)

     Estimated max dynamical RAM per process >     269.22 MB

     Estimated total dynamical RAM >      12.62 GB

     Initial potential from superposition of free atoms

     starting charge     311.9873, renormalised to     312.0000

     negative rho (up, down):  2.737E-04 0.000E+00


---------------------------------------------------------------------------------
Carrying out rVV10 run using the following parameters:
Nqs =      20    Nr_points =    1024   r_max =   100.000
b_value =  6.30000    beta =  0.00901
     q_mesh =  0.00010000  0.00030000  0.00058939  0.00100810
               0.00161396  0.00249058  0.00375900  0.00559430
               0.00824984  0.01209221  0.01765183  0.02569619
               0.03733578  0.05417739  0.07854596  0.11380545
               0.16482331  0.23864234  0.34545298  0.50000000

Gradients computed in Reciprocal space

---------------------------------------------------------------------------------


     Starting wfcs are  216 randomized atomic wfcs
     Checking if some PAW data can be deallocated... 

     total cpu time spent up to now is        5.3 secs

     Self-consistent Calculation

     iteration #  1     ecut=    80.00 Ry     beta= 0.70
     Davidson diagonalization with overlap
     ethr =  1.00E-02,  avg # of iterations =  2.0

     Threshold (ethr) on eigenvalues was too large:
     Diagonalizing with lowered threshold

     Davidson diagonalization with overlap
     ethr =  5.36E-04,  avg # of iterations =  3.0

     negative rho (up, down):  3.900E-08 0.000E+00

     total cpu time spent up to now is       20.3 secs

     total energy              =   -2245.70112229 Ry
     estimated scf accuracy    <       1.91757105 Ry

     iteration #  2     ecut=    80.00 Ry     beta= 0.70
     Davidson diagonalization with overlap
     ethr =  6.15E-04,  avg # of iterations =  4.0

     total cpu time spent up to now is       25.3 secs

     total energy              =   -2245.69803857 Ry
     estimated scf accuracy    <       0.60159647 Ry

     iteration #  3     ecut=    80.00 Ry     beta= 0.70
     Davidson diagonalization with overlap
     ethr =  1.93E-04,  avg # of iterations =  2.0

     total cpu time spent up to now is       29.8 secs

     total energy              =   -2245.71875443 Ry
     estimated scf accuracy    <       0.11440603 Ry

     iteration #  4     ecut=    80.00 Ry     beta= 0.70
     Davidson diagonalization with overlap
     ethr =  3.67E-05,  avg # of iterations = 13.0

     total cpu time spent up to now is       35.0 secs

     total energy              =   -2245.73565412 Ry
     estimated scf accuracy    <       0.02541134 Ry

     iteration #  5     ecut=    80.00 Ry     beta= 0.70
     Davidson diagonalization with overlap
     ethr =  8.14E-06,  avg # of iterations =  2.0

     total cpu time spent up to now is       39.2 secs

     total energy              =   -2245.73481097 Ry
     estimated scf accuracy    <       0.01569214 Ry

     iteration #  6     ecut=    80.00 Ry     beta= 0.70
     Davidson diagonalization with overlap
     ethr =  5.03E-06,  avg # of iterations =  2.0

     total cpu time spent up to now is       43.5 secs

     total energy              =   -2245.73352198 Ry
     estimated scf accuracy    <       0.00963168 Ry

     iteration #  7     ecut=    80.00 Ry     beta= 0.70
     Davidson diagonalization with overlap
     ethr =  3.09E-06,  avg # of iterations =  8.0

     negative rho (up, down):  2.202E-04 0.000E+00

     total cpu time spent up to now is       50.2 secs

     total energy              =   -2245.73260631 Ry
     estimated scf accuracy    <       0.00555607 Ry

     iteration #  8     ecut=    80.00 Ry     beta= 0.70
     Davidson diagonalization with overlap
     ethr =  1.78E-06,  avg # of iterations =  2.0

     negative rho (up, down):  2.507E-02 0.000E+00

     total cpu time spent up to now is       56.9 secs

     total energy              =   -2245.73199250 Ry
     estimated scf accuracy    <       0.00337754 Ry

     iteration #  9     ecut=    80.00 Ry     beta= 0.70
     Davidson diagonalization with overlap
     ethr =  1.08E-06,  avg # of iterations =  2.0

     negative rho (up, down):  3.472E-02 0.000E+00

     total cpu time spent up to now is       63.1 secs

     total energy              =   -2245.73186073 Ry
     estimated scf accuracy    <       0.00170373 Ry

     iteration # 10     ecut=    80.00 Ry     beta= 0.70
     Davidson diagonalization with overlap
     ethr =  5.46E-07,  avg # of iterations =  2.0

     negative rho (up, down):  2.299E-02 0.000E+00

     total cpu time spent up to now is       69.9 secs

     total energy              =   -2245.73184247 Ry
     estimated scf accuracy    <       0.00056311 Ry

     iteration # 11     ecut=    80.00 Ry     beta= 0.70
     Davidson diagonalization with overlap
     ethr =  1.80E-07,  avg # of iterations =  2.0

     negative rho (up, down):  9.433E-03 0.000E+00

     total cpu time spent up to now is       78.3 secs

     total energy              =   -2245.73182466 Ry
     estimated scf accuracy    <       0.00008943 Ry

     iteration # 12     ecut=    80.00 Ry     beta= 0.70
     Davidson diagonalization with overlap
     ethr =  2.87E-08,  avg # of iterations =  9.0

     negative rho (up, down):  3.756E-03 0.000E+00

     total cpu time spent up to now is       86.8 secs

     total energy              =   -2245.73187591 Ry
     estimated scf accuracy    <       0.00001781 Ry

     iteration # 13     ecut=    80.00 Ry     beta= 0.70
     Davidson diagonalization with overlap
     ethr =  5.71E-09,  avg # of iterations =  2.0

     negative rho (up, down):  4.784E-04 0.000E+00

     total cpu time spent up to now is       94.2 secs

     total energy              =   -2245.73187896 Ry
     estimated scf accuracy    <       0.00000443 Ry

     iteration # 14     ecut=    80.00 Ry     beta= 0.70
     Davidson diagonalization with overlap
     ethr =  1.42E-09,  avg # of iterations =  2.0

     negative rho (up, down):  3.202E-04 0.000E+00

     total cpu time spent up to now is      106.2 secs

     total energy              =   -2245.73187889 Ry
     estimated scf accuracy    <       0.00000110 Ry

     iteration # 15     ecut=    80.00 Ry     beta= 0.70
     Davidson diagonalization with overlap
     ethr =  3.51E-10,  avg # of iterations =  4.0

     negative rho (up, down):  2.473E-04 0.000E+00

     total cpu time spent up to now is      110.5 secs

     End of self-consistent calculation

          k = 0.0000 0.0000 0.0000 (105382 PWs)   bands (ev):

   -62.8777 -62.8621 -62.8445 -62.8290 -62.7630 -62.7580 -62.7452 -62.7397
   -62.7346 -62.7258 -62.6935 -62.5454 -37.1857 -37.1476 -37.1293 -37.1026
   -37.0974 -37.0829 -37.0601 -37.0480 -37.0316 -37.0225 -37.0113 -37.0040
   -36.9989 -36.9651 -36.9622 -36.9563 -36.9452 -36.9341 -36.9262 -36.9184
   -36.9065 -36.8937 -36.8884 -36.8851 -36.8788 -36.8581 -36.8533 -36.8295
   -36.8249 -36.8018 -36.7918 -36.7647 -36.7273 -36.6921 -36.6754 -36.6256
   -28.8178 -15.8815 -15.1518 -15.0480 -14.9255 -14.8354 -14.6692 -14.4842
   -14.4448 -14.4051 -14.3593 -14.3238 -14.3113 -14.2441 -14.1499 -14.1121
   -14.0761 -14.0543 -14.0301 -13.8686 -13.7925 -13.7651 -13.7490 -13.1092
   -11.1516 -10.8846  -8.9971  -7.5284  -7.3844  -7.2368  -7.1967  -7.1490
    -7.0974  -7.0370  -6.9453  -6.7505  -6.7235  -6.6703  -6.6091  -6.6027
    -6.4262  -6.4158  -6.3258  -6.2138  -6.1691  -5.9796  -5.8961  -5.8030
    -5.7677  -5.7300  -5.7242  -5.6548  -5.6335  -5.6045  -5.5743  -5.5061
    -5.4462  -5.4083  -5.3881  -5.2827  -5.2260  -5.1801  -5.0158  -5.0032
    -4.9356  -4.9219  -4.8859  -4.8064  -4.7462  -4.4672  -4.4415  -4.2747
    -4.2539  -4.1800  -4.1761  -4.1385  -4.0516  -3.9247  -3.8464  -3.7420
    -3.6554  -3.6409  -3.5742  -3.5524  -3.5033  -3.4606  -3.4457  -3.4198
    -3.3916  -3.3432  -3.2798  -3.2345  -3.0154  -2.9940  -2.8516  -2.7713
    -2.7455  -2.7166  -2.6500  -2.6144  -2.5951  -2.5506  -2.5137  -2.2832
    -2.0559  -1.8997  -1.8864  -1.4837  -0.8331  -0.6779  -0.6269  -0.1014
    -0.0888   0.0460   0.0518   0.0726   0.1771   0.2095   0.2794   0.3123
     0.3754   0.4426   0.5088   0.5623   0.6012   0.6297   0.6639   0.7036
     0.7666   0.7848   0.8005   0.8232   0.9288   0.9543   0.9729   0.9849
     1.0950   1.2683   1.3511

     the Fermi energy is    -1.1584 ev

!    total energy              =   -2245.73188008 Ry
     estimated scf accuracy    <       0.00000031 Ry
     smearing contrib. (-TS)   =      -0.00003719 Ry
     internal energy E=F+TS    =   -2245.73184288 Ry

     The total energy is F=E-TS. E is the sum of the following terms:
     one-electron contribution =  -18514.24453663 Ry
     hartree contribution      =    9245.85308135 Ry
     xc contribution           =    -392.83580433 Ry
     ewald contribution        =    7425.32568292 Ry
     one-center paw contrib.   =      -9.83026619 Ry

     convergence has been achieved in  15 iterations

     negative rho (up, down):  2.473E-04 0.000E+00

     Forces acting on atoms (cartesian axes, Ry/au):

     atom    1 type  1   force =     0.01594935   -0.02555420    0.01972049
     atom    2 type  2   force =    -0.01453618    0.01934740    0.00067856
     atom    3 type  2   force =    -0.01088003    0.00573388   -0.00651087
     atom    4 type  1   force =     0.00544496    0.00379531   -0.00163816
     atom    5 type  2   force =     0.00019242    0.00129571   -0.00507137
     atom    6 type  2   force =    -0.00141782    0.01599009   -0.00315381
     atom    7 type  1   force =     0.01040991   -0.02206395   -0.00986916
     atom    8 type  2   force =     0.00111210   -0.00242724    0.01798287
     atom    9 type  2   force =     0.01240877    0.00723948    0.01092778
     atom   10 type  1   force =    -0.01407146    0.00716435   -0.02586392
     atom   11 type  2   force =     0.02711716   -0.03690481   -0.01906338
     atom   12 type  2   force =     0.00021132    0.00021733    0.00968311
     atom   13 type  1   force =    -0.00906758   -0.00906466    0.03509817
     atom   14 type  2   force =    -0.45904252    1.50681051   -1.52590438
     atom   15 type  2   force =    -0.01300760    0.00171904   -0.01050217
     atom   16 type  1   force =     0.00159126    0.01375884    0.00795866
     atom   17 type  2   force =     0.00374495    0.01072555   -0.00047665
     atom   18 type  2   force =    -0.00251495   -0.00406666    0.00908100
     atom   19 type  1   force =    -0.00044793   -0.01571091   -0.00686420
     atom   20 type  2   force =     0.00287625   -0.00459423    0.00102495
     atom   21 type  1   force =    -0.02579013   -0.01521528   -0.13093192
     atom   22 type  2   force =    -0.00902940   -0.00749762   -0.00142305
     atom   23 type  2   force =     0.00063090    0.00059142    0.01229841
     atom   24 type  1   force =    -0.01086971   -0.00297824   -0.01327321
     atom   25 type  2   force =     0.01194105    0.02033770    0.00660520
     atom   26 type  2   force =    -0.01012946   -0.00331873   -0.00923372
     atom   27 type  1   force =    -0.00035431    0.00032532    0.00713210
     atom   28 type  2   force =     0.00072280   -0.00035092   -0.00469516
     atom   29 type  2   force =     0.00284651    0.00024317   -0.00207956
     atom   30 type  1   force =    -0.00327686    0.01089704   -0.00261829
     atom   31 type  2   force =     0.00086278    0.00060428    0.01728829
     atom   32 type  2   force =    -0.00875910    0.00787225    0.00773779
     atom   33 type  1   force =     0.01647803   -0.01074861   -0.01224309
     atom   34 type  2   force =     0.00240044   -0.04295372   -0.00921846
     atom   35 type  2   force =    -0.00738126    0.00855376    0.01255044
     atom   36 type  3   force =     0.48363534   -1.43977265    1.62486670
     The non-local contrib.  to forces
     atom    1 type  1   force =    -0.03734752    0.01246915    0.00583010
     atom    2 type  2   force =    -0.01286885    0.01447474   -0.27144170
     atom    3 type  2   force =    -0.00919572   -0.00082138    0.26394753
     atom    4 type  1   force =     0.00477977    0.00496629    0.00674720
     atom    5 type  2   force =     0.00271386   -0.04095613   -0.25301533
     atom    6 type  2   force =    -0.00300243    0.01850582    0.25740401
     atom    7 type  1   force =    -0.01238545    0.01084303   -0.02482412
     atom    8 type  2   force =     0.00452720   -0.00252156   -0.25179546
     atom    9 type  2   force =     0.00698333   -0.00986330    0.28029937
     atom   10 type  1   force =     0.00402080   -0.00199358   -0.00143972
     atom   11 type  2   force =     0.05962464   -0.04670209   -0.26185684
     atom   12 type  2   force =    -0.00775929   -0.01374444    0.26291826
     atom   13 type  1   force =     0.01844204    0.00270449   -0.00438394
     atom   14 type  2   force =    -0.29704879    0.84191492   -0.83140799
     atom   15 type  2   force =    -0.01306826    0.00039247    0.25924966
     atom   16 type  1   force =    -0.00066270    0.03389835   -0.02689992
     atom   17 type  2   force =     0.00209031   -0.03052078   -0.24755661
     atom   18 type  2   force =    -0.00395847   -0.00014795    0.27161975
     atom   19 type  1   force =     0.01098391    0.00383370   -0.01924015
     atom   20 type  2   force =    -0.00145763   -0.02181603    0.26652043
     atom   21 type  1   force =     0.00414384    0.07819398    0.05107597
     atom   22 type  2   force =    -0.03000826   -0.01203547   -0.25535558
     atom   23 type  2   force =     0.00450638   -0.01224495    0.26978306
     atom   24 type  1   force =     0.00294636    0.02113746   -0.00898717
     atom   25 type  2   force =     0.02515286    0.01468148   -0.26178030
     atom   26 type  2   force =    -0.00465309   -0.00858967    0.26053293
     atom   27 type  1   force =    -0.00746773    0.01105002    0.01056401
     atom   28 type  2   force =    -0.00435267   -0.02470628   -0.27473487
     atom   29 type  2   force =     0.00714496    0.00018305    0.26478687
     atom   30 type  1   force =    -0.00061411    0.02048285    0.00770222
     atom   31 type  2   force =    -0.00905653   -0.00028843   -0.25061448
     atom   32 type  2   force =    -0.00334401   -0.01035205    0.27547244
     atom   33 type  1   force =    -0.00215634    0.00818997    0.00448503
     atom   34 type  2   force =     0.00105538   -0.03649137   -0.26927186
     atom   35 type  2   force =    -0.00229535   -0.01023045    0.27116626
     atom   36 type  3   force =    -0.64274589    1.80470091   -1.05126470
     The ionic contribution  to forces
     atom    1 type  1   force =     2.04341864    2.60741546    2.15588121
     atom    2 type  2   force =     0.92723559    0.92877941   38.80106600
     atom    3 type  2   force =     0.10723668    0.13257114  -36.93162128
     atom    4 type  1   force =     0.44028633    1.01935858   -0.30730078
     atom    5 type  2   force =    -0.65249776    2.37186366   38.47516393
     atom    6 type  2   force =     0.44061945   -0.25096161  -38.69493249
     atom    7 type  1   force =    -2.18497361   -3.96504999    1.08182396
     atom    8 type  2   force =    -0.77982047   -0.21366079   37.22013263
     atom    9 type  2   force =     0.41737161   -0.12065053  -38.50750423
     atom   10 type  1   force =     0.62653772   -1.11268581    3.44952535
     atom   11 type  2   force =     1.01902887   -4.20582131   38.13867705
     atom   12 type  2   force =     0.63452516    0.38806894  -38.82122656
     atom   13 type  1   force =    -1.25390605    2.80558010   -0.08288867
     atom   14 type  2   force =    -3.68221235   11.00156031   28.38018638
     atom   15 type  2   force =     0.10895545    0.16796329  -38.17361867
     atom   16 type  1   force =    -0.09365870    4.65072633   -0.76739576
     atom   17 type  2   force =     0.43220508    2.24234999   37.66572185
     atom   18 type  2   force =    -0.26955937   -0.42949391  -39.19747007
     atom   19 type  1   force =     2.20655464   -3.45562626   -0.72369486
     atom   20 type  2   force =     0.21447250   -0.32132034  -39.05675501
     atom   21 type  1   force =    -0.56886722   -2.62170778   -5.46633267
     atom   22 type  2   force =    -1.03748670   -3.46877039   37.67828861
     atom   23 type  2   force =    -0.30017769    0.40288689  -39.17930570
     atom   24 type  1   force =    -0.37574711    1.76188342    4.55937263
     atom   25 type  2   force =    -0.38868209    0.62810978   38.90978824
     atom   26 type  2   force =    -0.49307367    0.16679750  -38.09569734
     atom   27 type  1   force =    -0.24759966    0.77534912   -3.18899353
     atom   28 type  2   force =     0.10304741    1.31815633   38.06008261
     atom   29 type  2   force =    -0.24381747   -0.28775477  -37.77872006
     atom   30 type  1   force =    -0.26258391   -1.41346571   -0.99066278
     atom   31 type  2   force =     1.06316116   -0.25119956   37.16744139
     atom   32 type  2   force =    -0.54061704   -0.08073055  -39.12237328
     atom   33 type  1   force =    -0.41666085   -1.42682252    0.24627000
     atom   34 type  2   force =     0.35589898   -1.82207977   39.15751701
     atom   35 type  2   force =    -0.26900400    0.33136778  -38.43280403
     atom   36 type  3   force =     2.92039044   -8.25298640   52.37235892
     The local contribution  to forces
     atom    1 type  1   force =    -1.99011754   -2.64553610   -2.14127759
     atom    2 type  2   force =    -0.92957062   -0.92322844  -38.54934872
     atom    3 type  2   force =    -0.10930274   -0.12601335   36.68205285
     atom    4 type  1   force =    -0.43960923   -1.02038214    0.29956088
     atom    5 type  2   force =     0.65038604   -2.33192354  -38.24718874
     atom    6 type  2   force =    -0.43940291    0.24996088   38.45526140
     atom    7 type  1   force =     2.20793423    3.93234972   -1.06625869
     atom    8 type  2   force =     0.77656810    0.21331254  -36.97037896
     atom    9 type  2   force =    -0.41181935    0.13723381   38.25959389
     atom   10 type  1   force =    -0.64466690    1.12168376   -3.47324731
     atom   11 type  2   force =    -1.04857144    4.21352715  -37.91650432
     atom   12 type  2   force =    -0.62735944   -0.37543014   38.58912981
     atom   13 type  1   force =     1.22638770   -2.81745006    0.12305670
     atom   14 type  2   force =     3.50065359  -10.28046386  -29.13504933
     atom   15 type  2   force =    -0.10963438   -0.16672118   37.92465638
     atom   16 type  1   force =     0.09597405   -4.67087128    0.80281842
     atom   17 type  2   force =    -0.43050011   -2.20285729  -37.43839749
     atom   18 type  2   force =     0.27093673    0.42623058   38.95617202
     atom   19 type  1   force =    -2.21807404    3.43628090    0.73667249
     atom   20 type  2   force =    -0.21030223    0.33770282   38.81269757
     atom   21 type  1   force =     0.53898144    2.52817909    5.28499436
     atom   22 type  2   force =     1.05726748    3.47333527  -37.44438109
     atom   23 type  2   force =     0.29664354   -0.39125853   38.94303546
     atom   24 type  1   force =     0.36191645   -1.78604999   -4.56294867
     atom   25 type  2   force =     0.37665301   -0.62156632  -38.66174738
     atom   26 type  2   force =     0.48768442   -0.16202084   37.84695379
     atom   27 type  1   force =     0.25464612   -0.78597748    3.18620830
     atom   28 type  2   force =    -0.09825447   -1.29561949  -37.81075951
     atom   29 type  2   force =     0.24012424    0.28837278   37.53278517
     atom   30 type  1   force =     0.25986536    1.40395494    0.98102170
     atom   31 type  2   force =    -1.05381794    0.25195718  -36.91962576
     atom   32 type  2   force =     0.53528184    0.09835339   38.87603015
     atom   33 type  1   force =     0.43528582    1.40775281   -0.26229041
     atom   34 type  2   force =    -0.35484577    1.81447016  -38.91810335
     atom   35 type  2   force =     0.26400164   -0.31352927   38.19558979
     atom   36 type  3   force =    -1.79692972    5.01611120  -49.69570079
     The core correction contribution to forces
     atom    1 type  1   force =     0.00000000    0.00000000    0.00000000
     atom    2 type  2   force =     0.00064089   -0.00075852    0.02067374
     atom    3 type  2   force =     0.00036243   -0.00006938   -0.02058464
     atom    4 type  1   force =     0.00000000    0.00000000    0.00000000
     atom    5 type  2   force =    -0.00038070    0.00230829    0.02023965
     atom    6 type  2   force =     0.00037687   -0.00148506   -0.02061347
     atom    7 type  1   force =     0.00000000    0.00000000    0.00000000
     atom    8 type  2   force =    -0.00016203    0.00051775    0.02028324
     atom    9 type  2   force =    -0.00013742    0.00057215   -0.02116327
     atom   10 type  1   force =     0.00000000    0.00000000    0.00000000
     atom   11 type  2   force =    -0.00295727    0.00208890    0.02084898
     atom   12 type  2   force =     0.00079102    0.00128361   -0.02079670
     atom   13 type  1   force =     0.00000000    0.00000000    0.00000000
     atom   14 type  2   force =     0.01957862   -0.05625892    0.06065738
     atom   15 type  2   force =     0.00074514   -0.00000545   -0.02049476
     atom   16 type  1   force =     0.00000000    0.00000000    0.00000000
     atom   17 type  2   force =    -0.00006726    0.00174155    0.02002454
     atom   18 type  2   force =     0.00005985   -0.00063527   -0.02096857
     atom   19 type  1   force =     0.00000000    0.00000000    0.00000000
     atom   20 type  2   force =     0.00020323    0.00089512   -0.02121689
     atom   21 type  1   force =     0.00000000    0.00000000    0.00000000
     atom   22 type  2   force =     0.00120964    0.00000724    0.02028378
     atom   23 type  2   force =    -0.00030908    0.00121014   -0.02090822
     atom   24 type  1   force =     0.00000000    0.00000000    0.00000000
     atom   25 type  2   force =    -0.00117037   -0.00096174    0.02061134
     atom   26 type  2   force =    -0.00006912    0.00043645   -0.02073001
     atom   27 type  1   force =     0.00000000    0.00000000    0.00000000
     atom   28 type  2   force =     0.00026952    0.00185250    0.02095184
     atom   29 type  2   force =    -0.00061078   -0.00051494   -0.02064038
     atom   30 type  1   force =     0.00000000    0.00000000    0.00000000
     atom   31 type  2   force =     0.00052578    0.00018997    0.02037130
     atom   32 type  2   force =    -0.00011046    0.00064012   -0.02111866
     atom   33 type  1   force =     0.00000000    0.00000000    0.00000000
     atom   34 type  2   force =     0.00026965    0.00111656    0.02091088
     atom   35 type  2   force =    -0.00009940    0.00090406   -0.02110279
     atom   36 type  3   force =     0.00291234   -0.00759013   -0.00037916
     The Hubbard contrib.    to forces
     atom    1 type  1   force =     0.00000000    0.00000000    0.00000000
     atom    2 type  2   force =     0.00000000    0.00000000    0.00000000
     atom    3 type  2   force =     0.00000000    0.00000000    0.00000000
     atom    4 type  1   force =     0.00000000    0.00000000    0.00000000
     atom    5 type  2   force =     0.00000000    0.00000000    0.00000000
     atom    6 type  2   force =     0.00000000    0.00000000    0.00000000
     atom    7 type  1   force =     0.00000000    0.00000000    0.00000000
     atom    8 type  2   force =     0.00000000    0.00000000    0.00000000
     atom    9 type  2   force =     0.00000000    0.00000000    0.00000000
     atom   10 type  1   force =     0.00000000    0.00000000    0.00000000
     atom   11 type  2   force =     0.00000000    0.00000000    0.00000000
     atom   12 type  2   force =     0.00000000    0.00000000    0.00000000
     atom   13 type  1   force =     0.00000000    0.00000000    0.00000000
     atom   14 type  2   force =     0.00000000    0.00000000    0.00000000
     atom   15 type  2   force =     0.00000000    0.00000000    0.00000000
     atom   16 type  1   force =     0.00000000    0.00000000    0.00000000
     atom   17 type  2   force =     0.00000000    0.00000000    0.00000000
     atom   18 type  2   force =     0.00000000    0.00000000    0.00000000
     atom   19 type  1   force =     0.00000000    0.00000000    0.00000000
     atom   20 type  2   force =     0.00000000    0.00000000    0.00000000
     atom   21 type  1   force =     0.00000000    0.00000000    0.00000000
     atom   22 type  2   force =     0.00000000    0.00000000    0.00000000
     atom   23 type  2   force =     0.00000000    0.00000000    0.00000000
     atom   24 type  1   force =     0.00000000    0.00000000    0.00000000
     atom   25 type  2   force =     0.00000000    0.00000000    0.00000000
     atom   26 type  2   force =     0.00000000    0.00000000    0.00000000
     atom   27 type  1   force =     0.00000000    0.00000000    0.00000000
     atom   28 type  2   force =     0.00000000    0.00000000    0.00000000
     atom   29 type  2   force =     0.00000000    0.00000000    0.00000000
     atom   30 type  1   force =     0.00000000    0.00000000    0.00000000
     atom   31 type  2   force =     0.00000000    0.00000000    0.00000000
     atom   32 type  2   force =     0.00000000    0.00000000    0.00000000
     atom   33 type  1   force =     0.00000000    0.00000000    0.00000000
     atom   34 type  2   force =     0.00000000    0.00000000    0.00000000
     atom   35 type  2   force =     0.00000000    0.00000000    0.00000000
     atom   36 type  3   force =     0.00000000    0.00000000    0.00000000
     The SCF correction term to forces
     atom    1 type  1   force =    -0.00000442    0.00009577   -0.00068818
     atom    2 type  2   force =     0.00002663    0.00007869   -0.00024570
     atom    3 type  2   force =     0.00001913    0.00006533   -0.00028028
     atom    4 type  1   force =    -0.00001210   -0.00014894   -0.00062040
     atom    5 type  2   force =    -0.00002920    0.00000191   -0.00024582
     atom    6 type  2   force =    -0.00000899   -0.00003146   -0.00024819
     atom    7 type  1   force =    -0.00016544   -0.00020822   -0.00058524
     atom    8 type  2   force =    -0.00000089   -0.00007669   -0.00023352
     atom    9 type  2   force =     0.00001041   -0.00005419   -0.00027292
     atom   10 type  1   force =     0.00003673    0.00015846   -0.00067719
     atom   11 type  2   force =    -0.00000781    0.00000102   -0.00020319
     atom   12 type  2   force =     0.00001369    0.00003784   -0.00031665
     atom   13 type  1   force =     0.00000855    0.00009928   -0.00066086
     atom   14 type  2   force =    -0.00001378    0.00005654   -0.00026577
     atom   15 type  2   force =    -0.00000574    0.00008839   -0.00026972
     atom   16 type  1   force =    -0.00006158    0.00000393   -0.00053902
     atom   17 type  2   force =     0.00001674    0.00001056   -0.00024388
     atom   18 type  2   force =     0.00000612   -0.00002163   -0.00024707
     atom   19 type  1   force =     0.00008737   -0.00020077   -0.00057662
     atom   20 type  2   force =    -0.00003980   -0.00005732   -0.00019609
     atom   21 type  1   force =    -0.00004837    0.00011791   -0.00064453
     atom   22 type  2   force =    -0.00001174   -0.00003579   -0.00023372
     atom   23 type  2   force =    -0.00003243   -0.00000365   -0.00028112
     atom   24 type  1   force =     0.00001440    0.00004935   -0.00068495
     atom   25 type  2   force =    -0.00001254    0.00007298   -0.00024166
     atom   26 type  2   force =    -0.00001819    0.00005631   -0.00026802
     atom   27 type  1   force =     0.00006677   -0.00009787   -0.00062161
     atom   28 type  2   force =     0.00001281   -0.00003550   -0.00021018
     atom   29 type  2   force =     0.00000538   -0.00004447   -0.00026612
     atom   30 type  1   force =     0.00005561   -0.00007656   -0.00065437
     atom   31 type  2   force =     0.00005014   -0.00005642   -0.00025910
     atom   32 type  2   force =     0.00003038   -0.00004017   -0.00024780
     atom   33 type  1   force =     0.00000921    0.00012961   -0.00068265
     atom   34 type  2   force =     0.00002202    0.00002918   -0.00024609
     atom   35 type  2   force =     0.00001566    0.00004013   -0.00027374
     atom   36 type  3   force =     0.00000798   -0.00000976   -0.00012252

     Total force =     3.128781     Total SCF correction =     0.002587

     BFGS Geometry Optimization
     Energy error            =      0.0E+00 Ry
     Gradient error          =      1.6E+00 Ry/Bohr

     number of scf cycles    =   1
     number of bfgs steps    =   0

     energy             new  =   -2245.7318800752 Ry

     new trust radius        =       0.5000000000 bohr
     new conv_thr            =       0.0000010000 Ry


ATOMIC_POSITIONS (angstrom)
Mo            6.5764457317        1.7847663192        2.8259889675
S             8.1749801252        0.8120055774        4.4346190731
S             8.1919388050        0.8119238430        1.2771088979
Mo            8.0958102931        4.4955084322        2.7176235188
S             6.4999321470        3.7225656249        4.3460573616
S             6.5531811353        3.5136397254        1.1209050533
Mo            6.4912200524        7.2158125720        2.6707104563
S             8.0818600225        6.3435822504        4.2446007931
S             8.0823937861        6.3055635196        1.0851629598
Mo            8.1589451169        9.9030326795        2.8403850070
S             6.4983934348        8.9385366439        4.3808377674
S             6.6179723380        9.0487370670        1.1410591986
Mo            3.4205809896        1.7458775249        2.7806464169
S             4.9205581114        0.9961903399        4.1690125686
S             5.0562863797        0.8464666043        1.2254091306
Mo            4.9799459763        4.5148147455        2.6338313052
S             3.4282871582        3.6728755896        4.2796528775
S             3.4376214044        3.5477449311        1.0594319514
Mo            3.4538084542        7.2144555794        2.6298603013
S             4.9835763501        6.3263857595        1.0373756587
Mo            5.0091959446        9.8997900518        2.7278253909
S             3.4698839863        8.9428593570        4.3254220269
S             3.4085042174        9.0650603385        1.0975313093
Mo            0.2947974334        1.7471552413        2.8478657370
S             1.8518827121        0.7951133655        4.3989951883
S             1.8595950408        0.8540311246        1.2083024173
Mo            1.8606491606        4.4957054606        2.6610458102
S             0.2722998327        3.6543570810        4.3370255662
S             0.2315698270        3.5272781537        1.1717705004
Mo            0.2707623379        7.2179423988        2.7013849583
S             1.9023408836        6.3128707194        4.2245007248
S             1.8611962380        6.3112802899        1.0454797657
Mo            1.8463068777        9.9388605062        2.7714898227
S             0.2961984539        9.0848880823        4.4127728438
S             0.2758933306        9.0445432644        1.1518937712
O             5.3112884787       10.7576256468        5.2915024516



     Writing config-only to output data dir ./MoS2-V-O.save/
     NEW-OLD atomic charge density approx. for the potential

     negative rho (up, down):  1.943E-04 0.000E+00

     total cpu time spent up to now is      118.9 secs

     Self-consistent Calculation

     iteration #  1     ecut=    80.00 Ry     beta= 0.70
     Davidson diagonalization with overlap
     c_bands:  2 eigenvalues not converged
     ethr =  1.00E-06,  avg # of iterations = 20.0

     negative rho (up, down):  6.504E-03 0.000E+00

     total cpu time spent up to now is      142.5 secs

     total energy              =   -2246.21987216 Ry
     estimated scf accuracy    <       0.26666116 Ry

     iteration #  2     ecut=    80.00 Ry     beta= 0.70
     Davidson diagonalization with overlap
     ethr =  8.55E-05,  avg # of iterations =  4.0

     negative rho (up, down):  1.144E-02 0.000E+00

     total cpu time spent up to now is      156.5 secs

     total energy              =   -2246.22858907 Ry
     estimated scf accuracy    <       0.10829457 Ry

     iteration #  3     ecut=    80.00 Ry     beta= 0.70
     Davidson diagonalization with overlap
     ethr =  3.47E-05,  avg # of iterations =  3.0

     negative rho (up, down):  1.719E-02 0.000E+00

     total cpu time spent up to now is      168.6 secs

     total energy              =   -2246.23359727 Ry
     estimated scf accuracy    <       0.02062675 Ry

     iteration #  4     ecut=    80.00 Ry     beta= 0.70
     Davidson diagonalization with overlap
     ethr =  6.61E-06,  avg # of iterations =  3.0

     negative rho (up, down):  1.840E-02 0.000E+00

     total cpu time spent up to now is      182.7 secs

     total energy              =   -2246.23469778 Ry
     estimated scf accuracy    <       0.00656010 Ry

     iteration #  5     ecut=    80.00 Ry     beta= 0.70
     Davidson diagonalization with overlap
     ethr =  2.10E-06,  avg # of iterations =  2.0

     negative rho (up, down):  1.798E-02 0.000E+00

     total cpu time spent up to now is      195.8 secs

     total energy              =   -2246.23429881 Ry
     estimated scf accuracy    <       0.00272968 Ry

     iteration #  6     ecut=    80.00 Ry     beta= 0.70
     Davidson diagonalization with overlap
     ethr =  8.75E-07,  avg # of iterations =  8.0

     negative rho (up, down):  1.613E-02 0.000E+00

     total cpu time spent up to now is      208.8 secs

     total energy              =   -2246.23461144 Ry
     estimated scf accuracy    <       0.00062146 Ry

     iteration #  7     ecut=    80.00 Ry     beta= 0.70
     Davidson diagonalization with overlap
     ethr =  1.99E-07,  avg # of iterations =  4.0

     negative rho (up, down):  1.237E-02 0.000E+00

     total cpu time spent up to now is      219.7 secs

     total energy              =   -2246.23457215 Ry
     estimated scf accuracy    <       0.00014121 Ry

     iteration #  8     ecut=    80.00 Ry     beta= 0.70
     Davidson diagonalization with overlap
     ethr =  4.53E-08,  avg # of iterations =  5.0

     negative rho (up, down):  9.857E-03 0.000E+00

     total cpu time spent up to now is      231.8 secs

     total energy              =   -2246.23455225 Ry
     estimated scf accuracy    <       0.00005790 Ry

     iteration #  9     ecut=    80.00 Ry     beta= 0.70
     Davidson diagonalization with overlap
     ethr =  1.86E-08,  avg # of iterations =  2.0

     negative rho (up, down):  4.917E-03 0.000E+00

     total cpu time spent up to now is      241.4 secs

     total energy              =   -2246.23448521 Ry
     estimated scf accuracy    <       0.00003839 Ry

     iteration # 10     ecut=    80.00 Ry     beta= 0.70
     Davidson diagonalization with overlap
     ethr =  1.23E-08,  avg # of iterations =  2.0

     negative rho (up, down):  3.298E-03 0.000E+00

     total cpu time spent up to now is      251.5 secs

     total energy              =   -2246.23447252 Ry
     estimated scf accuracy    <       0.00000949 Ry

     iteration # 11     ecut=    80.00 Ry     beta= 0.70
     Davidson diagonalization with overlap
     ethr =  3.04E-09,  avg # of iterations =  5.0

     negative rho (up, down):  1.684E-03 0.000E+00

     total cpu time spent up to now is      260.5 secs

     total energy              =   -2246.23446027 Ry
     estimated scf accuracy    <       0.00000466 Ry

     iteration # 12     ecut=    80.00 Ry     beta= 0.70
     Davidson diagonalization with overlap
     ethr =  1.49E-09,  avg # of iterations =  2.0

     negative rho (up, down):  7.328E-04 0.000E+00

     total cpu time spent up to now is      272.2 secs

     total energy              =   -2246.23445457 Ry
     estimated scf accuracy    <       0.00000179 Ry

     iteration # 13     ecut=    80.00 Ry     beta= 0.70
     Davidson diagonalization with overlap
     ethr =  5.74E-10,  avg # of iterations =  2.0

     negative rho (up, down):  1.956E-04 0.000E+00

     total cpu time spent up to now is      277.1 secs

     End of self-consistent calculation

          k = 0.0000 0.0000 0.0000 (105382 PWs)   bands (ev):

   -63.0193 -62.9954 -62.9869 -62.9752 -62.9450 -62.9359 -62.9171 -62.8972
   -62.8836 -62.8784 -62.8583 -62.8319 -37.4168 -37.3259 -37.2756 -37.2706
   -37.2511 -37.2448 -37.2186 -37.2131 -37.1896 -37.1726 -37.1613 -37.1594
   -37.1557 -37.1464 -37.1391 -37.1264 -37.1165 -37.1089 -37.0900 -37.0847
   -37.0725 -37.0447 -37.0417 -37.0330 -37.0213 -37.0177 -37.0117 -37.0054
   -37.0050 -36.9875 -36.9693 -36.9613 -36.9481 -36.9204 -36.8655 -36.7964
   -20.8799 -16.0455 -15.3680 -15.2312 -15.0726 -15.0159 -14.8058 -14.6987
   -14.5896 -14.5448 -14.5407 -14.4849 -14.4654 -14.3872 -14.3061 -14.2710
   -14.2135 -14.2077 -14.1766 -14.0390 -13.9908 -13.9573 -13.9180 -13.8425
    -8.0590  -8.0094  -7.8011  -7.6060  -7.4828  -7.3930  -7.3402  -7.2542
    -7.1734  -6.9887  -6.9203  -6.8838  -6.8116  -6.7708  -6.7546  -6.6524
    -6.5672  -6.5139  -6.4374  -6.3597  -6.2300  -6.0501  -6.0151  -5.9346
    -5.9087  -5.8846  -5.8256  -5.8009  -5.7684  -5.7586  -5.7102  -5.6156
    -5.5655  -5.5321  -5.4982  -5.3733  -5.2547  -5.2307  -5.1456  -5.1354
    -5.0688  -5.0464  -4.9633  -4.9147  -4.8308  -4.6031  -4.5289  -4.3959
    -4.3506  -4.3139  -4.2183  -4.1761  -4.0887  -4.0365  -3.8941  -3.8665
    -3.7923  -3.7475  -3.7003  -3.6705  -3.6299  -3.6164  -3.6026  -3.5718
    -3.5588  -3.4518  -3.4071  -3.3016  -3.2040  -3.1141  -3.0068  -2.9493
    -2.9156  -2.8508  -2.8055  -2.7711  -2.7610  -2.6662  -2.5216  -2.4151
    -2.1834  -2.0582  -1.9905  -1.4558  -0.9747  -0.8229  -0.7094  -0.2862
    -0.2766  -0.1378  -0.0994  -0.0627   0.0277   0.0561   0.0746   0.1164
     0.2014   0.3004   0.3539   0.4228   0.4367   0.4643   0.4868   0.5392
     0.5966   0.6265   0.6546   0.6706   0.7485   0.7964   0.8307   0.8701
     0.9843   1.1257   1.1806

     the Fermi energy is    -1.2153 ev

!    total energy              =   -2246.23445296 Ry
     estimated scf accuracy    <       0.00000063 Ry
     smearing contrib. (-TS)   =      -0.00049650 Ry
     internal energy E=F+TS    =   -2246.23395646 Ry

     The total energy is F=E-TS. E is the sum of the following terms:
     one-electron contribution =  -18491.31403537 Ry
     hartree contribution      =    9233.48492108 Ry
     xc contribution           =    -392.14966118 Ry
     ewald contribution        =    7413.61099740 Ry
     one-center paw contrib.   =      -9.86617839 Ry

     convergence has been achieved in  13 iterations

     negative rho (up, down):  1.956E-04 0.000E+00

     Forces acting on atoms (cartesian axes, Ry/au):

     atom    1 type  1   force =     0.04597652   -0.00322062   -0.02430919
     atom    2 type  2   force =    -0.01531631    0.01635433   -0.00022576
     atom    3 type  2   force =    -0.00985400    0.00508919   -0.00579836
     atom    4 type  1   force =     0.00425342    0.00350243   -0.00164659
     atom    5 type  2   force =     0.00248616    0.00269828   -0.00263794
     atom    6 type  2   force =     0.00037167    0.01324321   -0.00024181
     atom    7 type  1   force =     0.01182400   -0.02125978   -0.00612532
     atom    8 type  2   force =     0.00002520   -0.00076003    0.01780640
     atom    9 type  2   force =     0.01198117    0.00635995    0.00955288
     atom   10 type  1   force =    -0.01490010    0.01090680   -0.01955583
     atom   11 type  2   force =     0.01104850   -0.01399233   -0.02633867
     atom   12 type  2   force =    -0.00262789   -0.00049899    0.00495061
     atom   13 type  1   force =    -0.07663439    0.03394633   -0.05073879
     atom   14 type  2   force =     0.11246805   -0.14734596    0.15162462
     atom   15 type  2   force =    -0.01114319    0.00196789   -0.02477730
     atom   16 type  1   force =     0.00100475    0.01144008    0.00164133
     atom   17 type  2   force =     0.00117742    0.01645210    0.00376016
     atom   18 type  2   force =    -0.00344517   -0.00344580    0.01052381
     atom   19 type  1   force =    -0.00119964   -0.01076259   -0.00182890
     atom   20 type  2   force =     0.00266548   -0.00524804   -0.00192555
     atom   21 type  1   force =    -0.01301572   -0.01670704   -0.05273667
     atom   22 type  2   force =    -0.00364556   -0.00708756   -0.00833910
     atom   23 type  2   force =     0.00187347    0.00124170    0.00632540
     atom   24 type  1   force =    -0.00908212   -0.00045931   -0.01533756
     atom   25 type  2   force =     0.00938155    0.01770600    0.00818561
     atom   26 type  2   force =    -0.01195875   -0.00703482   -0.01127972
     atom   27 type  1   force =     0.00095159    0.00184213    0.00506071
     atom   28 type  2   force =     0.00027824   -0.00186104   -0.00298428
     atom   29 type  2   force =     0.00313372   -0.00033363   -0.00213206
     atom   30 type  1   force =    -0.00234566    0.00911919   -0.00169553
     atom   31 type  2   force =     0.00127668    0.00150460    0.01728382
     atom   32 type  2   force =    -0.00850725    0.00733488    0.00709823
     atom   33 type  1   force =     0.01475051   -0.01005806   -0.01149545
     atom   34 type  2   force =     0.00189797   -0.04081815   -0.00925398
     atom   35 type  2   force =    -0.00626208    0.00733509    0.01105507
     atom   36 type  3   force =    -0.04888827    0.12284960    0.02653570
     The non-local contrib.  to forces
     atom    1 type  1   force =    -0.01657416    0.02196280   -0.00267822
     atom    2 type  2   force =    -0.00211256    0.01005022   -0.27620795
     atom    3 type  2   force =    -0.00869569   -0.00389420    0.25923147
     atom    4 type  1   force =     0.00350025    0.00603616    0.00576281
     atom    5 type  2   force =     0.00605477   -0.03661911   -0.26069560
     atom    6 type  2   force =    -0.00399120    0.01347295    0.26088803
     atom    7 type  1   force =    -0.01069825    0.02025208   -0.02381905
     atom    8 type  2   force =     0.00309683    0.00256899   -0.25310482
     atom    9 type  2   force =     0.00653662   -0.01018875    0.27961608
     atom   10 type  1   force =     0.00892875   -0.00721363   -0.00088861
     atom   11 type  2   force =     0.02650689    0.00064432   -0.24158614
     atom   12 type  2   force =    -0.01420187   -0.01419470    0.26383847
     atom   13 type  1   force =     0.01751593   -0.00301757   -0.00108401
     atom   14 type  2   force =     0.10903906   -0.37568631    0.29927821
     atom   15 type  2   force =    -0.01052789    0.00270137    0.25270736
     atom   16 type  1   force =    -0.00079177    0.04407036   -0.02042591
     atom   17 type  2   force =    -0.00139618   -0.02607788   -0.25448229
     atom   18 type  2   force =    -0.00143046    0.00098993    0.27083586
     atom   19 type  1   force =     0.00939848    0.00922849   -0.01817921
     atom   20 type  2   force =    -0.00101722   -0.02285442    0.26622035
     atom   21 type  1   force =     0.00214907    0.02101609    0.01733817
     atom   22 type  2   force =    -0.02973489   -0.01157787   -0.26551017
     atom   23 type  2   force =     0.01067637   -0.01334701    0.27077098
     atom   24 type  1   force =     0.00127728    0.01606524   -0.00694914
     atom   25 type  2   force =     0.01591462    0.01244930   -0.26814677
     atom   26 type  2   force =    -0.00773215   -0.01589813    0.25814721
     atom   27 type  1   force =    -0.00636686    0.01241721    0.00988023
     atom   28 type  2   force =    -0.00487245   -0.02605600   -0.27617108
     atom   29 type  2   force =     0.00752075    0.00180366    0.26447481
     atom   30 type  1   force =    -0.00018222    0.02110475    0.00803462
     atom   31 type  2   force =    -0.00820389    0.00456294   -0.25179880
     atom   32 type  2   force =    -0.00305577   -0.01032379    0.27581298
     atom   33 type  1   force =    -0.00458148    0.00507629    0.00555519
     atom   34 type  2   force =     0.00036931   -0.03244468   -0.27213996
     atom   35 type  2   force =    -0.00291475   -0.00952195    0.27014213
     atom   36 type  3   force =    -0.45533078    1.28424219   -1.08807232
     The ionic contribution  to forces
     atom    1 type  1   force =     2.81707028    2.32790273    2.35363910
     atom    2 type  2   force =     0.75620906    0.86453422   38.82394880
     atom    3 type  2   force =     0.11006996    0.12117658  -36.91396460
     atom    4 type  1   force =     0.47013640    0.98280879   -0.28311467
     atom    5 type  2   force =    -0.57821651    2.34618610   38.54829361
     atom    6 type  2   force =     0.46565180   -0.26154709  -38.69496183
     atom    7 type  1   force =    -2.21954725   -3.80731372    1.07485802
     atom    8 type  2   force =    -0.76711311   -0.21050149   37.24699636
     atom    9 type  2   force =     0.42771768   -0.11883319  -38.50448841
     atom   10 type  1   force =     0.49071469   -0.98298565    3.51774870
     atom   11 type  2   force =     0.95262265   -4.03197815   37.76095256
     atom   12 type  2   force =     0.66544188    0.37569374  -38.77086690
     atom   13 type  1   force =    -2.40930542    2.86435003   -0.50749450
     atom   14 type  2   force =    -1.08447690    3.84952103   32.40327992
     atom   15 type  2   force =     0.15592930    0.14296699  -38.27452213
     atom   16 type  1   force =    -0.05868010    4.77512622   -0.75409634
     atom   17 type  2   force =     0.35948679    2.32680245   37.76651835
     atom   18 type  2   force =    -0.28983906   -0.41203800  -39.21099803
     atom   19 type  1   force =     2.21716422   -3.32949784   -0.67961412
     atom   20 type  2   force =     0.21068060   -0.30348834  -39.06792881
     atom   21 type  1   force =    -0.38116969   -2.10865786   -4.79986646
     atom   22 type  2   force =    -0.91396499   -3.18648332   37.58440473
     atom   23 type  2   force =    -0.34588995    0.36607163  -39.16087727
     atom   24 type  1   force =    -0.40706423    1.65675654    4.58461788
     atom   25 type  2   force =    -0.34332088    0.50067246   39.00032317
     atom   26 type  2   force =    -0.51425490    0.15436211  -38.08495709
     atom   27 type  1   force =    -0.31565758    0.81037610   -3.14219895
     atom   28 type  2   force =     0.08581237    1.28247857   38.07404857
     atom   29 type  2   force =    -0.24514441   -0.28711859  -37.77569557
     atom   30 type  1   force =    -0.24360784   -1.38983119   -0.96702989
     atom   31 type  2   force =     1.05498589   -0.22494557   37.19088494
     atom   32 type  2   force =    -0.54762021   -0.08002051  -39.11127020
     atom   33 type  1   force =    -0.38191072   -1.36739216    0.41539449
     atom   34 type  2   force =     0.36070751   -1.73256315   39.12398820
     atom   35 type  2   force =    -0.26555857    0.34381397  -38.39813986
     atom   36 type  3   force =     0.71194123   -2.25640443   47.63218825
     The local contribution  to forces
     atom    1 type  1   force =    -2.75469102   -2.35308459   -2.37609028
     atom    2 type  2   force =    -0.76914840   -0.85758575  -38.56932925
     atom    3 type  2   force =    -0.11163186   -0.11225503   36.66894336
     atom    4 type  1   force =    -0.46952154   -0.98546813    0.27486016
     atom    5 type  2   force =     0.57510290   -2.30901734  -38.31110784
     atom    6 type  2   force =    -0.46171434    0.26247109   38.45422852
     atom    7 type  1   force =     2.24198532    3.76591250   -1.05792989
     atom    8 type  2   force =     0.76407741    0.20691097  -36.99661236
     atom    9 type  2   force =    -0.42216566    0.13477784   38.25509522
     atom   10 type  1   force =    -0.51460785    1.00123069   -3.53714263
     atom   11 type  2   force =    -0.96631386    4.01681508  -37.56603464
     atom   12 type  2   force =    -0.65513177   -0.36314785   38.53246255
     atom   13 type  1   force =     2.31531318   -2.82745601    0.45713960
     atom   14 type  2   force =     1.09378765   -3.64138413  -32.54310000
     atom   15 type  2   force =    -0.15716139   -0.14365038   38.01682345
     atom   16 type  1   force =     0.06046751   -4.80795965    0.77540218
     atom   17 type  2   force =    -0.35693431   -2.28588630  -37.52888343
     atom   18 type  2   force =     0.28789782    0.40824420   38.97122254
     atom   19 type  1   force =    -2.22769411    3.30958775    0.69514896
     atom   20 type  2   force =    -0.20720271    0.32012063   38.82052544
     atom   21 type  1   force =     0.36599313    2.07107627    4.72904428
     atom   22 type  2   force =     0.93844607    3.19047403  -37.34853682
     atom   23 type  2   force =     0.33786476   -0.35260338   38.91703651
     atom   24 type  1   force =     0.39674434   -1.67343040   -4.59379217
     atom   25 type  2   force =     0.33743804   -0.49449847  -38.74525132
     atom   26 type  2   force =     0.50996890   -0.14628577   37.83573242
     atom   27 type  1   force =     0.32312003   -0.82106680    3.13650658
     atom   28 type  2   force =    -0.08095694   -1.26025338  -37.82209619
     atom   29 type  2   force =     0.24137765    0.28554142   37.52927901
     atom   30 type  1   force =     0.24144890    1.37790823    0.95644191
     atom   31 type  2   force =    -1.04595065    0.22192061  -36.94240971
     atom   32 type  2   force =     0.54231621    0.09702741   38.86320881
     atom   33 type  1   force =     0.40131242    1.35242113   -0.43318013
     atom   34 type  2   force =    -0.35948068    1.72331719  -38.88232895
     atom   35 type  2   force =     0.26225955   -0.32777859   38.15967083
     atom   36 type  3   force =    -0.31068817    1.10968954  -46.52877798
     The core correction contribution to forces
     atom    1 type  1   force =     0.00000000    0.00000000    0.00000000
     atom    2 type  2   force =    -0.00029385   -0.00067094    0.02126007
     atom    3 type  2   force =     0.00038758    0.00006705   -0.02041410
     atom    4 type  1   force =     0.00000000    0.00000000    0.00000000
     atom    5 type  2   force =    -0.00053316    0.00207332    0.02072790
     atom    6 type  2   force =     0.00039709   -0.00118449   -0.02078097
     atom    7 type  1   force =     0.00000000    0.00000000    0.00000000
     atom    8 type  2   force =    -0.00007116    0.00025876    0.02037055
     atom    9 type  2   force =    -0.00011332    0.00058281   -0.02114682
     atom   10 type  1   force =     0.00000000    0.00000000    0.00000000
     atom   11 type  2   force =    -0.00180321    0.00059920    0.02025729
     atom   12 type  2   force =     0.00125386    0.00120171   -0.02090879
     atom   13 type  1   force =     0.00000000    0.00000000    0.00000000
     atom   14 type  2   force =    -0.00588294    0.02019860   -0.00788344
     atom   15 type  2   force =     0.00060289   -0.00003149   -0.02014521
     atom   16 type  1   force =     0.00000000    0.00000000    0.00000000
     atom   17 type  2   force =     0.00009928    0.00152547    0.02043789
     atom   18 type  2   force =    -0.00005143   -0.00066356   -0.02093401
     atom   19 type  1   force =     0.00000000    0.00000000    0.00000000
     atom   20 type  2   force =     0.00018884    0.00094588   -0.02121551
     atom   21 type  1   force =     0.00000000    0.00000000    0.00000000
     atom   22 type  2   force =     0.00163949    0.00057377    0.02121761
     atom   23 type  2   force =    -0.00076663    0.00115742   -0.02104801
     atom   24 type  1   force =     0.00000000    0.00000000    0.00000000
     atom   25 type  2   force =    -0.00060252   -0.00092983    0.02113792
     atom   26 type  2   force =     0.00008020    0.00079945   -0.02059956
     atom   27 type  1   force =     0.00000000    0.00000000    0.00000000
     atom   28 type  2   force =     0.00029130    0.00190628    0.02107388
     atom   29 type  2   force =    -0.00061708   -0.00058334   -0.02062879
     atom   30 type  1   force =     0.00000000    0.00000000    0.00000000
     atom   31 type  2   force =     0.00048237   -0.00002913    0.02044800
     atom   32 type  2   force =    -0.00013246    0.00063121   -0.02113905
     atom   33 type  1   force =     0.00000000    0.00000000    0.00000000
     atom   34 type  2   force =     0.00030250    0.00095714    0.02110002
     atom   35 type  2   force =    -0.00005518    0.00086573   -0.02106285
     atom   36 type  3   force =     0.00519375   -0.01460245    0.01146020
     The Hubbard contrib.    to forces
     atom    1 type  1   force =     0.00000000    0.00000000    0.00000000
     atom    2 type  2   force =     0.00000000    0.00000000    0.00000000
     atom    3 type  2   force =     0.00000000    0.00000000    0.00000000
     atom    4 type  1   force =     0.00000000    0.00000000    0.00000000
     atom    5 type  2   force =     0.00000000    0.00000000    0.00000000
     atom    6 type  2   force =     0.00000000    0.00000000    0.00000000
     atom    7 type  1   force =     0.00000000    0.00000000    0.00000000
     atom    8 type  2   force =     0.00000000    0.00000000    0.00000000
     atom    9 type  2   force =     0.00000000    0.00000000    0.00000000
     atom   10 type  1   force =     0.00000000    0.00000000    0.00000000
     atom   11 type  2   force =     0.00000000    0.00000000    0.00000000
     atom   12 type  2   force =     0.00000000    0.00000000    0.00000000
     atom   13 type  1   force =     0.00000000    0.00000000    0.00000000
     atom   14 type  2   force =     0.00000000    0.00000000    0.00000000
     atom   15 type  2   force =     0.00000000    0.00000000    0.00000000
     atom   16 type  1   force =     0.00000000    0.00000000    0.00000000
     atom   17 type  2   force =     0.00000000    0.00000000    0.00000000
     atom   18 type  2   force =     0.00000000    0.00000000    0.00000000
     atom   19 type  1   force =     0.00000000    0.00000000    0.00000000
     atom   20 type  2   force =     0.00000000    0.00000000    0.00000000
     atom   21 type  1   force =     0.00000000    0.00000000    0.00000000
     atom   22 type  2   force =     0.00000000    0.00000000    0.00000000
     atom   23 type  2   force =     0.00000000    0.00000000    0.00000000
     atom   24 type  1   force =     0.00000000    0.00000000    0.00000000
     atom   25 type  2   force =     0.00000000    0.00000000    0.00000000
     atom   26 type  2   force =     0.00000000    0.00000000    0.00000000
     atom   27 type  1   force =     0.00000000    0.00000000    0.00000000
     atom   28 type  2   force =     0.00000000    0.00000000    0.00000000
     atom   29 type  2   force =     0.00000000    0.00000000    0.00000000
     atom   30 type  1   force =     0.00000000    0.00000000    0.00000000
     atom   31 type  2   force =     0.00000000    0.00000000    0.00000000
     atom   32 type  2   force =     0.00000000    0.00000000    0.00000000
     atom   33 type  1   force =     0.00000000    0.00000000    0.00000000
     atom   34 type  2   force =     0.00000000    0.00000000    0.00000000
     atom   35 type  2   force =     0.00000000    0.00000000    0.00000000
     atom   36 type  3   force =     0.00000000    0.00000000    0.00000000
     The SCF correction term to forces
     atom    1 type  1   force =     0.00017027   -0.00000149    0.00080569
     atom    2 type  2   force =     0.00002829    0.00002666    0.00008804
     atom    3 type  2   force =     0.00001487   -0.00000514    0.00039098
     atom    4 type  1   force =     0.00013716    0.00012568    0.00083058
     atom    5 type  2   force =     0.00007701    0.00007539    0.00012947
     atom    6 type  2   force =     0.00002717    0.00003082    0.00036991
     atom    7 type  1   force =     0.00008303   -0.00011056    0.00075108
     atom    8 type  2   force =     0.00003408    0.00000281    0.00014213
     atom    9 type  2   force =     0.00000470    0.00002130    0.00046229
     atom   10 type  1   force =     0.00006315   -0.00012453    0.00071219
     atom   11 type  2   force =     0.00003488   -0.00007271    0.00005774
     atom   12 type  2   force =     0.00000887   -0.00005182    0.00041074
     atom   13 type  1   force =    -0.00015924    0.00006995    0.00068560
     atom   14 type  2   force =     0.00000003    0.00000493    0.00003540
     atom   15 type  2   force =     0.00001274   -0.00001854    0.00034471
     atom   16 type  1   force =     0.00000796    0.00020321    0.00074688
     atom   17 type  2   force =    -0.00007931    0.00008843    0.00015513
     atom   18 type  2   force =    -0.00002319    0.00002170    0.00038292
     atom   19 type  1   force =    -0.00006939   -0.00008092    0.00080094
     atom   20 type  2   force =     0.00001482    0.00002829    0.00045844
     atom   21 type  1   force =     0.00001062   -0.00014147    0.00073283
     atom   22 type  2   force =    -0.00003239   -0.00007409    0.00007103
     atom   23 type  2   force =    -0.00001224   -0.00003687    0.00042867
     atom   24 type  1   force =    -0.00004066    0.00014938    0.00077136
     atom   25 type  2   force =    -0.00004885    0.00001262    0.00010808
     atom   26 type  2   force =    -0.00002196   -0.00001240    0.00038278
     atom   27 type  1   force =    -0.00014516    0.00011570    0.00085832
     atom   28 type  2   force =     0.00000281    0.00006356    0.00014601
     atom   29 type  2   force =    -0.00000434    0.00002331    0.00042396
     atom   30 type  1   force =    -0.00000566   -0.00006252    0.00084331
     atom   31 type  2   force =    -0.00003818   -0.00000417    0.00014488
     atom   32 type  2   force =    -0.00001617    0.00002063    0.00047117
     atom   33 type  1   force =    -0.00007087   -0.00016324    0.00072047
     atom   34 type  2   force =    -0.00000183   -0.00008456    0.00011219
     atom   35 type  2   force =     0.00000572   -0.00004400    0.00043029
     atom   36 type  3   force =    -0.00000546   -0.00007516   -0.00027697

     Total force =     0.317406     Total SCF correction =     0.003137
     Energy error            =      5.0E-01 Ry
     Gradient error          =      1.5E-01 Ry/Bohr

     number of scf cycles    =   2
     number of bfgs steps    =   1

     energy             old  =   -2245.7318800752 Ry
     energy             new  =   -2246.2344529584 Ry

     CASE: energy            _new < energy            _old

     new trust radius        =       0.1195723207 bohr
     new conv_thr            =       0.0000001516 Ry


ATOMIC_POSITIONS (angstrom)
Mo            6.5997184850        1.7824479681        2.8144767125
S             8.1669674917        0.8206689804        4.4345261079
S             8.1867407225        0.8146116756        1.2740471416
Mo            8.0980750979        4.4973539780        2.7167599911
S             6.5011717440        3.7239415873        4.3446050360
S             6.5533257158        3.5206641702        1.1206962053
Mo            6.4973828454        7.2046375129        2.6673918281
S             8.0819038469        6.3431366068        4.2539466111
S             8.0886908887        6.3089245745        1.0902129050
Mo            8.1511521810        9.9086487660        2.8299488193
S             6.5046417092        8.9305513902        4.3672259375
S             6.6166737533        9.0484954783        1.1437894399
Mo            3.3822828502        1.7624738970        2.7564470070
S             4.9634634561        0.9654745979        4.2013146614
S             5.0503884042        0.8474919067        1.2128134690
Mo            4.9804895626        4.5208812521        2.6348701989
S             3.4289771069        3.6813447488        4.2815060748
S             3.4358403371        3.5459198563        1.0649118851
Mo            3.4532003178        7.2086704231        2.6287591152
S             4.9849805396        6.3236511620        1.0364486370
Mo            5.0020084752        9.8910679115        2.6979590194
S             3.4678200063        8.9391298322        4.3212422638
S             3.4094520118        9.0656933963        1.1010176652
Mo            0.2899828161        1.7468433674        2.8398781186
S             1.8568761408        0.8044756506        4.4032446770
S             1.8533732529        0.8504454495        1.2024429365
Mo            1.8611115705        4.4966290895        2.6637588779
S             0.2724583102        3.6534233417        4.3354119009
S             0.2332056200        3.5271193799        1.1706535466
Mo            0.2695056334        7.2227761890        2.7004695379
S             1.9029989494        6.3136346495        4.2335675674
S             1.8567264305        6.3151431410        1.0492213510
Mo            1.8540933156        9.9335648240        2.7654385061
S             0.2972082347        9.0634156404        4.4079194085
S             0.2725768639        9.0484254074        1.1577351267
O             5.3006378804       10.7780686085        5.3504292623



     Writing config-only to output data dir ./MoS2-V-O.save/
     NEW-OLD atomic charge density approx. for the potential

     negative rho (up, down):  1.460E-04 0.000E+00

     total cpu time spent up to now is      285.4 secs

     Self-consistent Calculation

     iteration #  1     ecut=    80.00 Ry     beta= 0.70
     Davidson diagonalization with overlap
     ethr =  1.00E-06,  avg # of iterations = 15.0

     negative rho (up, down):  2.677E-04 0.000E+00

     total cpu time spent up to now is      300.2 secs

     total energy              =   -2246.28194855 Ry
     estimated scf accuracy    <       0.01007783 Ry

     iteration #  2     ecut=    80.00 Ry     beta= 0.70
     Davidson diagonalization with overlap
     ethr =  3.23E-06,  avg # of iterations =  4.0

     negative rho (up, down):  4.094E-04 0.000E+00

     total cpu time spent up to now is      317.0 secs

     total energy              =   -2246.28297835 Ry
     estimated scf accuracy    <       0.00343420 Ry

     iteration #  3     ecut=    80.00 Ry     beta= 0.70
     Davidson diagonalization with overlap
     ethr =  1.10E-06,  avg # of iterations =  3.0

     negative rho (up, down):  5.295E-04 0.000E+00

     total cpu time spent up to now is      335.7 secs

     total energy              =   -2246.28321384 Ry
     estimated scf accuracy    <       0.00038347 Ry

     iteration #  4     ecut=    80.00 Ry     beta= 0.70
     Davidson diagonalization with overlap
     ethr =  1.23E-07,  avg # of iterations =  3.0

     negative rho (up, down):  5.578E-04 0.000E+00

     total cpu time spent up to now is      351.2 secs

     total energy              =   -2246.28326953 Ry
     estimated scf accuracy    <       0.00003143 Ry

     iteration #  5     ecut=    80.00 Ry     beta= 0.70
     Davidson diagonalization with overlap
     ethr =  1.01E-08,  avg # of iterations =  5.0

     negative rho (up, down):  5.487E-04 0.000E+00

     total cpu time spent up to now is      369.2 secs

     total energy              =   -2246.28328133 Ry
     estimated scf accuracy    <       0.00001728 Ry

     iteration #  6     ecut=    80.00 Ry     beta= 0.70
     Davidson diagonalization with overlap
     ethr =  5.54E-09,  avg # of iterations =  2.0

     negative rho (up, down):  5.144E-04 0.000E+00

     total cpu time spent up to now is      382.0 secs

     total energy              =   -2246.28328147 Ry
     estimated scf accuracy    <       0.00000498 Ry

     iteration #  7     ecut=    80.00 Ry     beta= 0.70
     Davidson diagonalization with overlap
     ethr =  1.60E-09,  avg # of iterations =  4.0

     negative rho (up, down):  4.722E-04 0.000E+00

     total cpu time spent up to now is      393.6 secs

     total energy              =   -2246.28328211 Ry
     estimated scf accuracy    <       0.00000053 Ry

     iteration #  8     ecut=    80.00 Ry     beta= 0.70
     Davidson diagonalization with overlap
     ethr =  1.71E-10,  avg # of iterations =  3.0

     negative rho (up, down):  3.819E-04 0.000E+00

     total cpu time spent up to now is      406.8 secs

     total energy              =   -2246.28328224 Ry
     estimated scf accuracy    <       0.00000031 Ry

     iteration #  9     ecut=    80.00 Ry     beta= 0.70
     Davidson diagonalization with overlap
     ethr =  9.98E-11,  avg # of iterations =  2.0

     negative rho (up, down):  1.975E-04 0.000E+00

     total cpu time spent up to now is      411.2 secs

     End of self-consistent calculation

          k = 0.0000 0.0000 0.0000 (105382 PWs)   bands (ev):

   -63.0325 -63.0014 -62.9913 -62.9844 -62.9488 -62.9227 -62.9067 -62.9041
   -62.8925 -62.8861 -62.8702 -62.8570 -37.3714 -37.3258 -37.2895 -37.2786
   -37.2599 -37.2426 -37.2261 -37.2113 -37.1920 -37.1779 -37.1664 -37.1656
   -37.1617 -37.1494 -37.1441 -37.1300 -37.1220 -37.1106 -37.0904 -37.0879
   -37.0604 -37.0513 -37.0466 -37.0406 -37.0295 -37.0266 -37.0209 -37.0151
   -37.0090 -37.0009 -36.9806 -36.9764 -36.9545 -36.9123 -36.8808 -36.8137
   -21.0413 -16.0492 -15.3388 -15.2292 -15.0828 -15.0070 -14.8086 -14.6618
   -14.5908 -14.5495 -14.5480 -14.4972 -14.4703 -14.3998 -14.2982 -14.2752
   -14.2266 -14.2175 -14.1951 -14.0112 -13.9878 -13.9789 -13.9281 -13.8362
    -7.9586  -7.9224  -7.7419  -7.5782  -7.4976  -7.3941  -7.3621  -7.2736
    -7.1794  -6.9829  -6.9246  -6.9008  -6.8170  -6.7794  -6.7650  -6.6647
    -6.5710  -6.5350  -6.4511  -6.3610  -6.2242  -6.0640  -6.0173  -5.9416
    -5.9151  -5.8928  -5.8433  -5.8135  -5.7866  -5.7558  -5.7336  -5.6132
    -5.5611  -5.5346  -5.4944  -5.3683  -5.2493  -5.2260  -5.1561  -5.1430
    -5.0791  -5.0477  -4.9730  -4.9320  -4.8316  -4.6050  -4.5250  -4.4085
    -4.3629  -4.3398  -4.2351  -4.1981  -4.1023  -4.0534  -3.9105  -3.8910
    -3.7917  -3.7645  -3.7018  -3.6609  -3.6357  -3.6243  -3.6026  -3.5870
    -3.5707  -3.4513  -3.4172  -3.3047  -3.1943  -3.0827  -2.9914  -2.9711
    -2.9483  -2.8509  -2.8162  -2.7990  -2.7646  -2.6652  -2.5494  -2.4223
    -2.1792  -2.0592  -2.0251  -1.5705  -0.9652  -0.8447  -0.6653  -0.3057
    -0.2802  -0.1385  -0.1155  -0.0553   0.0151   0.0560   0.0639   0.1474
     0.1934   0.3044   0.3416   0.4193   0.4426   0.4656   0.5063   0.5549
     0.6085   0.6242   0.6442   0.6694   0.7612   0.7911   0.8340   0.8566
     0.9483   1.0598   1.1661

     the Fermi energy is    -1.2679 ev

!    total energy              =   -2246.28328231 Ry
     estimated scf accuracy    <       0.00000011 Ry
     smearing contrib. (-TS)   =      -0.00008048 Ry
     internal energy E=F+TS    =   -2246.28320183 Ry

     The total energy is F=E-TS. E is the sum of the following terms:
     one-electron contribution =  -18476.85108527 Ry
     hartree contribution      =    9226.19190128 Ry
     xc contribution           =    -392.11938055 Ry
     ewald contribution        =    7406.36007929 Ry
     one-center paw contrib.   =      -9.86471658 Ry

     convergence has been achieved in   9 iterations

     negative rho (up, down):  1.975E-04 0.000E+00

     Forces acting on atoms (cartesian axes, Ry/au):

     atom    1 type  1   force =     0.02168028    0.00014827   -0.01319916
     atom    2 type  2   force =    -0.00971532    0.01207857   -0.00227333
     atom    3 type  2   force =    -0.00643360    0.00363270   -0.01363822
     atom    4 type  1   force =     0.00482420    0.00438474    0.00048208
     atom    5 type  2   force =     0.00309024    0.00021361   -0.00510539
     atom    6 type  2   force =     0.00141751    0.01207323   -0.00179685
     atom    7 type  1   force =     0.00832566   -0.01448884   -0.00307593
     atom    8 type  2   force =     0.00188467   -0.00307648    0.01288719
     atom    9 type  2   force =     0.01199117    0.00504205    0.00536514
     atom   10 type  1   force =    -0.00582305    0.00828507   -0.00841963
     atom   11 type  2   force =     0.00227660   -0.00699239   -0.02527979
     atom   12 type  2   force =     0.00154316   -0.00439603   -0.00400501
     atom   13 type  1   force =    -0.00793133    0.01051317   -0.00192586
     atom   14 type  2   force =     0.06331888   -0.13731574    0.09780043
     atom   15 type  2   force =    -0.01233523    0.00657007   -0.01655029
     atom   16 type  1   force =     0.00060436    0.00518500    0.00318673
     atom   17 type  2   force =     0.00062450    0.00920953    0.00217847
     atom   18 type  2   force =    -0.00439007    0.00084206    0.00477586
     atom   19 type  1   force =    -0.00207848   -0.00863117    0.00037371
     atom   20 type  2   force =     0.00226536   -0.00451059   -0.00405214
     atom   21 type  1   force =    -0.00897916   -0.00482242   -0.02926327
     atom   22 type  2   force =     0.00188021   -0.00247278   -0.01006096
     atom   23 type  2   force =    -0.00247397   -0.00480590   -0.00338429
     atom   24 type  1   force =    -0.00733617   -0.00466715   -0.00731380
     atom   25 type  2   force =     0.00550488    0.01396976    0.00006626
     atom   26 type  2   force =    -0.01590181   -0.00717881   -0.01458484
     atom   27 type  1   force =    -0.00138786    0.00435301    0.00591120
     atom   28 type  2   force =     0.00013327   -0.00166157   -0.00378466
     atom   29 type  2   force =     0.00258392    0.00193076   -0.00354457
     atom   30 type  1   force =    -0.00182379    0.00142095    0.00375715
     atom   31 type  2   force =    -0.00009081    0.00093019    0.01165700
     atom   32 type  2   force =    -0.00781002    0.00596698    0.00538256
     atom   33 type  1   force =     0.00753973   -0.00101561    0.00050080
     atom   34 type  2   force =    -0.00026403   -0.02921403   -0.01363845
     atom   35 type  2   force =    -0.00554818    0.00701915    0.00610672
     atom   36 type  3   force =    -0.04116574    0.12148064    0.02446515
     The non-local contrib.  to forces
     atom    1 type  1   force =    -0.01146820    0.02065366   -0.00355580
     atom    2 type  2   force =     0.00138359    0.00777768   -0.27584863
     atom    3 type  2   force =    -0.00600088   -0.00498387    0.25503988
     atom    4 type  1   force =     0.00448785    0.00674419    0.00502123
     atom    5 type  2   force =     0.00645629   -0.03730494   -0.26152123
     atom    6 type  2   force =    -0.00187699    0.01234907    0.26078183
     atom    7 type  1   force =    -0.01037268    0.01707706   -0.02581011
     atom    8 type  2   force =     0.00432657   -0.00083788   -0.25636770
     atom    9 type  2   force =     0.00654098   -0.01108626    0.27665630
     atom   10 type  1   force =     0.00609473   -0.00601833   -0.00297406
     atom   11 type  2   force =     0.02366485   -0.00172114   -0.24969760
[...]
     atom   28 type  2   force =     0.00050024   -0.01427444   -0.27984133
     atom   29 type  2   force =    -0.00073372   -0.00981038    0.27050751
     atom   30 type  1   force =    -0.00013508    0.02047719    0.00499095
     atom   31 type  2   force =    -0.00364508   -0.00129218   -0.26718796
     atom   32 type  2   force =     0.00550190   -0.01274980    0.26882809
     atom   33 type  1   force =    -0.00168264    0.00656457    0.00225181
     atom   34 type  2   force =     0.00068423   -0.00597496   -0.27537435
     atom   35 type  2   force =    -0.00058181   -0.01253348    0.26740638
     atom   36 type  3   force =    -0.00897246    0.06252301   -2.32324297
     The ionic contribution  to forces
     atom    1 type  1   force =     0.71054537    1.33189521   -1.59068629
     atom    2 type  2   force =     0.83811811   -0.00430536   38.14809101
     atom    3 type  2   force =     0.13517143   -0.05685765  -38.33619516
     atom    4 type  1   force =     0.25011273    0.84323004   -0.46416568
     atom    5 type  2   force =    -0.37860482    2.14765438   37.81144311
     atom    6 type  2   force =     0.17063980   -0.16148903  -38.77215887
     atom    7 type  1   force =    -2.56709919   -2.42905135    1.35091463
     atom    8 type  2   force =    -1.07051681    0.14762782   38.04919663
     atom    9 type  2   force =     0.36835651   -0.04539411  -38.45617086
     atom   10 type  1   force =     0.17081575   -0.98090425    1.00788707
     atom   11 type  2   force =     0.11193555   -2.41845628   37.82797615
     atom   12 type  2   force =     0.26823100    0.21524187  -38.78982442
     atom   13 type  1   force =    -0.73755326    1.29010913   -1.30941622
     atom   14 type  2   force =    -0.04935238    0.07621990   28.31982537
     atom   15 type  2   force =    -0.02211984   -0.10308556  -38.13295038
     atom   16 type  1   force =     0.01794477    4.25985849    0.97602291
     atom   17 type  2   force =     0.39648997    2.13162505   37.88393411
     atom   18 type  2   force =    -0.19551670   -0.16920104  -38.73218708
     atom   19 type  1   force =     2.58325630   -2.43563076    1.90053256
     atom   20 type  2   force =    -0.02600247   -0.05963593  -38.92303552
     atom   21 type  1   force =    -0.02707282   -1.35234552   -3.17206373
     atom   22 type  2   force =    -0.09851436   -2.38774749   37.93190511
     atom   23 type  2   force =    -0.29372260    0.20195640  -38.70599823
     atom   24 type  1   force =     0.02801134    0.81642435    1.31218445
     atom   25 type  2   force =    -0.81053546    0.00517791   38.20468776
     atom   26 type  2   force =    -0.11092620   -0.07089991  -38.27082808
     atom   27 type  1   force =    -0.24832192    0.83083608   -0.05020682
     atom   28 type  2   force =    -0.01551612    0.80352957   37.91870853
     atom   29 type  2   force =     0.02108880   -0.00470486  -37.98319101
     atom   30 type  1   force =     0.01187728   -0.79493119    0.96961551
     atom   31 type  2   force =     1.03002991    0.15905039   38.13465441
     atom   32 type  2   force =    -0.34501585   -0.03964898  -38.34105406
     atom   33 type  1   force =    -0.14916248   -0.94982832    1.37827497
     atom   34 type  2   force =    -0.01308221   -0.76398360   38.52547386
     atom   35 type  2   force =     0.02502030    0.05713236  -38.02656283
     atom   36 type  3   force =     0.02099059   -0.08946778   50.40536712
     The local contribution  to forces
     atom    1 type  1   force =    -0.70241221   -1.34622610    1.57786281
     atom    2 type  2   force =    -0.83762749    0.00912514  -37.89633658
     atom    3 type  2   force =    -0.13239428    0.06713459   38.09275819
     atom    4 type  1   force =    -0.25631913   -0.85023650    0.45852411
     atom    5 type  2   force =     0.37574036   -2.12610274  -37.57434339
     atom    6 type  2   force =    -0.17161078    0.16420514   38.52801032
     atom    7 type  1   force =     2.57649311    2.42832411   -1.32766593
     atom    8 type  2   force =     1.06583869   -0.14733094  -37.80278170
     atom    9 type  2   force =    -0.36226277    0.05758542   38.20880155
     atom   10 type  1   force =    -0.17206239    0.97414445   -1.00993447
     atom   11 type  2   force =    -0.11820180    2.41903100  -37.58455910
     atom   12 type  2   force =    -0.25993533   -0.20208681   38.54668628
     atom   13 type  1   force =     0.73052993   -1.30632419    1.29808669
     atom   14 type  2   force =     0.04769363   -0.06415635  -28.60691395
     atom   15 type  2   force =     0.02185504    0.11391442   37.88022660
     atom   16 type  1   force =    -0.01811416   -4.28882210   -0.94247381
     atom   17 type  2   force =    -0.39335603   -2.11050610  -37.64708580
     atom   18 type  2   force =     0.19611358    0.17215694   38.48831495
     atom   19 type  1   force =    -2.59270278    2.43491971   -1.87700778
     atom   20 type  2   force =     0.02546617    0.07238525   38.67873623
     atom   21 type  1   force =     0.02737096    1.31686591    3.15493071
     atom   22 type  2   force =     0.10538925    2.38864243  -37.68905605
     atom   23 type  2   force =     0.28516392   -0.18872849   38.46292203
     atom   24 type  1   force =    -0.02755507   -0.83381657   -1.32100506
     atom   25 type  2   force =     0.80991095   -0.00012084  -37.95332657
     atom   26 type  2   force =     0.10837420    0.08117042   38.02755150
     atom   27 type  1   force =     0.25400795   -0.83786578    0.04447383
     atom   28 type  2   force =     0.01508067   -0.79017690  -37.66142742
     atom   29 type  2   force =    -0.02070813    0.01426671   37.73375014
     atom   30 type  1   force =    -0.01158433    0.77455014   -0.97332284
     atom   31 type  2   force =    -1.02597992   -0.15875216  -37.88840208
     atom   32 type  2   force =     0.33942334    0.05197623   38.09330365
     atom   33 type  1   force =     0.15015699    0.94388034   -1.38040098
     atom   34 type  2   force =     0.01264737    0.77050442  -38.27117982
     atom   35 type  2   force =    -0.02457011   -0.04448874   37.78110676
     atom   36 type  3   force =    -0.01236791    0.02852131  -48.10809619
     The core correction contribution to forces
     atom    1 type  1   force =     0.00000000    0.00000000    0.00000000
     atom    2 type  2   force =    -0.00008689    0.00005717    0.02134524
     atom    3 type  2   force =     0.00015139    0.00043325   -0.02076541
     atom    4 type  1   force =     0.00000000    0.00000000    0.00000000
     atom    5 type  2   force =    -0.00032035    0.00098001    0.02069478
     atom    6 type  2   force =     0.00005358   -0.00024777   -0.02082647
     atom    7 type  1   force =     0.00000000    0.00000000    0.00000000
     atom    8 type  2   force =    -0.00025571    0.00033306    0.02097699
     atom    9 type  2   force =     0.00059564    0.00066034   -0.02100837
     atom   10 type  1   force =     0.00000000    0.00000000    0.00000000
     atom   11 type  2   force =    -0.00010767   -0.00014640    0.02102927
     atom   12 type  2   force =     0.00072232    0.00101033   -0.02084386
     atom   13 type  1   force =     0.00000000    0.00000000    0.00000000
     atom   14 type  2   force =    -0.00002057    0.00044288   -0.00997416
     atom   15 type  2   force =    -0.00003918    0.00058169   -0.02113565
     atom   16 type  1   force =     0.00000000    0.00000000    0.00000000
     atom   17 type  2   force =     0.00039059    0.00098625    0.02069841
     atom   18 type  2   force =    -0.00008999   -0.00020222   -0.02083715
     atom   19 type  1   force =     0.00000000    0.00000000    0.00000000
     atom   20 type  2   force =    -0.00008152    0.00058476   -0.02125770
     atom   21 type  1   force =     0.00000000    0.00000000    0.00000000
     atom   22 type  2   force =     0.00016328   -0.00011643    0.02104283
     atom   23 type  2   force =    -0.00075571    0.00097047   -0.02084295
     atom   24 type  1   force =     0.00000000    0.00000000    0.00000000
     atom   25 type  2   force =     0.00002776    0.00008453    0.02134366
     atom   26 type  2   force =    -0.00012226    0.00039909   -0.02077582
     atom   27 type  1   force =     0.00000000    0.00000000    0.00000000
     atom   28 type  2   force =    -0.00004783    0.00087667    0.02136987
     atom   29 type  2   force =     0.00005774    0.00026348   -0.02088612
     atom   30 type  1   force =     0.00000000    0.00000000    0.00000000
     atom   31 type  2   force =     0.00015793    0.00034765    0.02099285
     atom   32 type  2   force =    -0.00055509    0.00065287   -0.02098974
     atom   33 type  1   force =     0.00000000    0.00000000    0.00000000
     atom   34 type  2   force =    -0.00005351    0.00020547    0.02128349
     atom   35 type  2   force =     0.00004615    0.00074587   -0.02093242
     atom   36 type  3   force =     0.00009619   -0.00068593    0.02465004
     The Hubbard contrib.    to forces
     atom    1 type  1   force =     0.00000000    0.00000000    0.00000000
     atom    2 type  2   force =     0.00000000    0.00000000    0.00000000
     atom    3 type  2   force =     0.00000000    0.00000000    0.00000000
     atom    4 type  1   force =     0.00000000    0.00000000    0.00000000
     atom    5 type  2   force =     0.00000000    0.00000000    0.00000000
     atom    6 type  2   force =     0.00000000    0.00000000    0.00000000
     atom    7 type  1   force =     0.00000000    0.00000000    0.00000000
     atom    8 type  2   force =     0.00000000    0.00000000    0.00000000
     atom    9 type  2   force =     0.00000000    0.00000000    0.00000000
     atom   10 type  1   force =     0.00000000    0.00000000    0.00000000
     atom   11 type  2   force =     0.00000000    0.00000000    0.00000000
     atom   12 type  2   force =     0.00000000    0.00000000    0.00000000
     atom   13 type  1   force =     0.00000000    0.00000000    0.00000000
     atom   14 type  2   force =     0.00000000    0.00000000    0.00000000
     atom   15 type  2   force =     0.00000000    0.00000000    0.00000000
     atom   16 type  1   force =     0.00000000    0.00000000    0.00000000
     atom   17 type  2   force =     0.00000000    0.00000000    0.00000000
     atom   18 type  2   force =     0.00000000    0.00000000    0.00000000
     atom   19 type  1   force =     0.00000000    0.00000000    0.00000000
     atom   20 type  2   force =     0.00000000    0.00000000    0.00000000
     atom   21 type  1   force =     0.00000000    0.00000000    0.00000000
     atom   22 type  2   force =     0.00000000    0.00000000    0.00000000
     atom   23 type  2   force =     0.00000000    0.00000000    0.00000000
     atom   24 type  1   force =     0.00000000    0.00000000    0.00000000
     atom   25 type  2   force =     0.00000000    0.00000000    0.00000000
     atom   26 type  2   force =     0.00000000    0.00000000    0.00000000
     atom   27 type  1   force =     0.00000000    0.00000000    0.00000000
     atom   28 type  2   force =     0.00000000    0.00000000    0.00000000
     atom   29 type  2   force =     0.00000000    0.00000000    0.00000000
     atom   30 type  1   force =     0.00000000    0.00000000    0.00000000
     atom   31 type  2   force =     0.00000000    0.00000000    0.00000000
     atom   32 type  2   force =     0.00000000    0.00000000    0.00000000
     atom   33 type  1   force =     0.00000000    0.00000000    0.00000000
     atom   34 type  2   force =     0.00000000    0.00000000    0.00000000
     atom   35 type  2   force =     0.00000000    0.00000000    0.00000000
     atom   36 type  3   force =     0.00000000    0.00000000    0.00000000
     The SCF correction term to forces
     atom    1 type  1   force =     0.00001430    0.00000484    0.00005592
     atom    2 type  2   force =     0.00000128    0.00000873    0.00001954
     atom    3 type  2   force =     0.00000388   -0.00000696    0.00000842
     atom    4 type  1   force =    -0.00000128    0.00000124    0.00003129
     atom    5 type  2   force =     0.00000260   -0.00000157    0.00001189
     atom    6 type  2   force =     0.00000916    0.00001579    0.00001448
     atom    7 type  1   force =     0.00002266   -0.00000338   -0.00001526
     atom    8 type  2   force =     0.00000112   -0.00001546    0.00000502
     atom    9 type  2   force =    -0.00000093    0.00000482   -0.00000796
     atom   10 type  1   force =    -0.00000077    0.00000067    0.00001268
     atom   11 type  2   force =    -0.00000119    0.00001253    0.00001405
     atom   12 type  2   force =     0.00000234   -0.00000425   -0.00000745
     atom   13 type  1   force =    -0.00000179   -0.00000225    0.00006893
     atom   14 type  2   force =     0.00000445    0.00000143    0.00002066
     atom   15 type  2   force =     0.00000492   -0.00001197    0.00001384
     atom   16 type  1   force =     0.00000990    0.00000129    0.00004251
     atom   17 type  2   force =    -0.00000098   -0.00000294    0.00001191
     atom   18 type  2   force =    -0.00000147    0.00001158    0.00002408
     atom   19 type  1   force =    -0.00000639   -0.00000574   -0.00000144
     atom   20 type  2   force =     0.00000751    0.00000440   -0.00000452
     atom   21 type  1   force =     0.00001459   -0.00000324    0.00001072
     atom   22 type  2   force =     0.00000298    0.00001020    0.00000997
     atom   23 type  2   force =     0.00000089   -0.00000238   -0.00000150
     atom   24 type  1   force =    -0.00001255    0.00000806    0.00005368
     atom   25 type  2   force =    -0.00000296    0.00001221    0.00000944
     atom   26 type  2   force =    -0.00000858   -0.00000801    0.00001882
     atom   27 type  1   force =    -0.00001508   -0.00000023    0.00003798
     atom   28 type  2   force =    -0.00000039   -0.00000573    0.00001052
     atom   29 type  2   force =    -0.00000691    0.00000919    0.00002095
     atom   30 type  1   force =    -0.00000805   -0.00001362   -0.00001191
     atom   31 type  2   force =    -0.00000340   -0.00001675    0.00000752
     atom   32 type  2   force =    -0.00000728    0.00000231   -0.00000291
     atom   33 type  1   force =    -0.00000530    0.00000317    0.00000979
     atom   34 type  2   force =    -0.00000211    0.00001056    0.00000958
     atom   35 type  2   force =    -0.00000558   -0.00000750   -0.00000676
     atom   36 type  3   force =     0.00003946   -0.00002299    0.00001856

     Total force =     0.006967     Total SCF correction =     0.000162
     Energy error            =      9.9E-05 Ry
     Gradient error          =      1.9E-03 Ry/Bohr

     bfgs converged in  24 scf cycles and  23 bfgs steps
     (criteria: energy <  1.0E-04 Ry, force <  1.0E-02 Ry/Bohr)

     End of BFGS Geometry Optimization

     Final energy             =   -2246.4491061495 Ry

     File ./MoS2-V-O.bfgs deleted, as requested
Begin final coordinates

ATOMIC_POSITIONS (angstrom)
Mo            6.5969475198        1.7549465469        2.7371328034
S             8.1345344577        0.8252492148        4.3587605865
S             8.1599927902        0.8171087975        1.1592022944
Mo            8.1298003748        4.4774531515        2.7059899782
S             6.5386690257        3.6442010355        4.3101350370
S             6.5642336648        3.5608967913        1.0976358049
Mo            6.5332898593        7.1656462382        2.6572261771
S             8.0928604435        6.2869034968        4.2924818444
S             8.1501432971        6.3019989268        1.0998309529
Mo            8.1437921632        9.9154480852        2.7531794334
S             6.5288675701        8.9287917519        4.3120745386
S             6.6089223673        9.0022807964        1.1022905531
Mo            3.4076842882        1.7577415150        2.7415425130
S             5.0068722224        0.7962780242        4.2386578768
S             4.9994395164        0.8273233232        1.1715205551
Mo            5.0034832773        4.5163732745        2.6592771821
S             3.4727093260        3.6483161662        4.3155515976
S             3.4404450188        3.5633723753        1.1009196619
Mo            3.4717379113        7.1649911152        2.6674536801
S             4.9985096983        6.2962960626        1.0476083920
Mo            5.0014329838        9.8532463694        2.7036949583
S             3.4783781076        8.9300122020        4.3208532568
S             3.3925836523        8.9980301877        1.1092826223
Mo            0.2738128908        1.7135096988        2.7649943882
S             1.8668491461        0.8274880473        4.3640054303
S             1.8472695265        0.8150883017        1.1629330769
Mo            1.8769838191        4.4780128119        2.7137794046
S             0.2722491270        3.5867362912        4.3158373625
S             0.2783374055        3.5368644161        1.1477490256
Mo            0.2724498177        7.1930149716        2.7267734225
S             1.9052013240        6.2883516631        4.3005459287
S             1.8564750800        6.3009025980        1.1092400944
Mo            1.8611768900        9.9145606342        2.7600104774
S             0.2708359235        9.0042167823        4.3497542215
S             0.2764570650        9.0261956804        1.1597400590
O             5.0126750166       11.6919990657        5.7374223579
End final coordinates



     Writing all to output data dir ./MoS2-V-O.save/
 
     init_run     :      4.64s CPU      5.15s WALL (       1 calls)
     electrons    :   2252.62s CPU   2620.06s WALL (      24 calls)
     update_pot   :     73.86s CPU     80.22s WALL (      23 calls)
     forces       :     73.13s CPU     86.94s WALL (      24 calls)

     Called by init_run:
     wfcinit      :      0.51s CPU      0.57s WALL (       1 calls)
     potinit      :      2.35s CPU      2.60s WALL (       1 calls)
     hinit0       :      0.44s CPU      0.47s WALL (       1 calls)

     Called by electrons:
     c_bands      :    331.25s CPU    339.75s WALL (     222 calls)
     sum_band     :    134.35s CPU    206.18s WALL (     222 calls)
     v_of_rho     :    274.22s CPU    343.67s WALL (     239 calls)
     newd         :     83.60s CPU    143.60s WALL (     239 calls)
     PAW_pot      :      9.47s CPU      9.51s WALL (     262 calls)
     mix_rho      :   1448.42s CPU   1611.17s WALL (     222 calls)

     Called by c_bands:
     init_us_2    :      5.11s CPU      5.51s WALL (     468 calls)
     init_us_2:cp :      5.11s CPU      5.51s WALL (     468 calls)
     regterg      :    314.39s CPU    322.48s WALL (     222 calls)

     Called by *egterg:
     rdiaghg      :     20.93s CPU     21.15s WALL (    1184 calls)
     h_psi        :    200.07s CPU    201.86s WALL (    1215 calls)
     s_psi        :     18.53s CPU     18.59s WALL (    1215 calls)
     g_psi        :      1.36s CPU      1.38s WALL (     992 calls)

     Called by h_psi:
     h_psi:calbec :     22.00s CPU     22.12s WALL (    1215 calls)
     vloc_psi     :    156.83s CPU    158.36s WALL (    1215 calls)
     add_vuspsi   :     18.60s CPU     18.71s WALL (    1215 calls)

     General routines
     calbec       :     31.85s CPU     32.03s WALL (    1556 calls)
     fft          :    180.46s CPU    203.20s WALL (   15977 calls)
     ffts         :    645.71s CPU    802.51s WALL (  354080 calls)
     fftw         :    102.26s CPU    103.20s WALL (  136238 calls)
     interpolate  :      3.03s CPU      3.48s WALL (     239 calls)
 
     Parallel routines
 
     PWSCF        :  40m15.65s CPU  46m51.23s WALL

 
   This run was terminated on:   0:11:45   2Nov2023            

=------------------------------------------------------------------------------=
   JOB DONE.
=------------------------------------------------------------------------------=
