
     Program PWSCF v.7.2 starts on  1Nov2023 at 21:51:22 

     This program is part of the open-source Quantum ESPRESSO suite
     for quantum simulation of materials; please cite
         "P. Giannozzi et al., J. Phys.:Condens. Matter 21 395502 (2009);
         "P. Giannozzi et al., J. Phys.:Condens. Matter 29 465901 (2017);
         "P. Giannozzi et al., J. Chem. Phys. 152 154105 (2020);
          URL http://www.quantum-espresso.org", 
     in publications or presentations arising from this work. More details at
     http://www.quantum-espresso.org/quote

     Parallel version (MPI & OpenMP), running on      48 processor cores
     Number of MPI processes:                48
     Threads/MPI process:                     1

     MPI processes distributed on     1 nodes
     19382 MiB available memory on the printing compute node when the environment starts
 
     Waiting for input...
     Reading input from standard input
Warning: card &CELL ignored
Warning: card CELL_DYNAMICS = 'BFGS', ignored
Warning: card CELL_DOFREE = '2DXY' ignored
Warning: card / ignored

     Current dimensions of program PWSCF are:
     Max number of different atomic species (ntypx) = 10
     Max number of k-points (npk) =  40000
     Max angular momentum in pseudopotentials (lmaxx) =  4
     file O.pbe-n-kjpaw_psl.0.1.UPF: wavefunction(s)  2P renormalized

     IMPORTANT: XC functional enforced from input :
     Exchange-correlation= RVV10
                           (   1   4  13   4  26   0   0)
     Any further DFT definition will be discarded
     Please, verify this is what you really want


     gamma-point specific algorithms are used
     signal trapping enabled: kill the code with -SIGUSR1 to stop cleanly the simulation 
 
     R & G space division:  proc/nbgrp/npool/nimage =      48
     Subspace diagonalization in iterative solution of the eigenvalue problem:
     one sub-group per band group will be used
     scalapack distributed-memory algorithm (size of sub-group:  2*  2 procs)

 
     Parallelization info
     --------------------
     sticks:   dense  smooth     PW     G-vecs:    dense   smooth      PW
     Min         396     194     47               101632    35090    4376
     Max         398     196     50               101674    35128    4410
     Sum       19091    9389   2349              4879585  1685513  210763
 
     Using Slab Decomposition
 


     bravais-lattice index     =            0
     lattice parameter (alat)  =      17.8707  a.u.
     unit-cell volume          =   17436.2743 (a.u.)^3
     number of atoms/cell      =           36
     number of atomic types    =            3
     number of electrons       =       312.00
     number of Kohn-Sham states=          187
     kinetic-energy cutoff     =      80.0000  Ry
     charge density cutoff     =     650.0000  Ry
     scf convergence threshold =      1.0E-06
     mixing beta               =       0.7000
     number of iterations used =            8  local-TF  mixing
     energy convergence thresh.=      1.0E-04
     force convergence thresh. =      1.0E-02
     Exchange-correlation= RVV10
                           (   1   4  13   4  26   0   0)
     nstep                     =          200


     celldm(1)=  17.870686  celldm(2)=   0.000000  celldm(3)=   0.000000
     celldm(4)=   0.000000  celldm(5)=   0.000000  celldm(6)=   0.000000

     crystal axes: (cart. coord. in units of alat)
               a(1) = (   1.000000   0.000000   0.000000 )  
               a(2) = (   0.000000   1.155671   0.000000 )  
               a(3) = (   0.000000   0.000000   2.643601 )  

     reciprocal axes: (cart. coord. in units 2 pi/alat)
               b(1) = (  1.000000  0.000000  0.000000 )  
               b(2) = (  0.000000  0.865298  0.000000 )  
               b(3) = (  0.000000  0.000000  0.378272 )  


     PseudoPot. # 1 for Mo read from file:
     ../pseudo/Mo_ONCV_PBE-1.0.oncvpsp.upf
     MD5 check sum: 1b5d28e075c9ccadda658a603575cd1f
     Pseudo is Norm-conserving, Zval = 14.0
     Generated using ONCVPSP code by D. R. Hamann
     Using radial grid of 1526 points,  6 beta functions with: 
                l(1) =   0
                l(2) =   0
                l(3) =   1
                l(4) =   1
                l(5) =   2
                l(6) =   2

     PseudoPot. # 2 for S  read from file:
     ../pseudo/s_pbe_v1.4.uspp.F.UPF
     MD5 check sum: 88d86576ff6df21479756cfb9bdac1df
     Pseudo is Ultrasoft + core correction, Zval =  6.0
     Generated by new atomic code, or converted to UPF format
     Using radial grid of  907 points,  6 beta functions with: 
                l(1) =   0
                l(2) =   0
                l(3) =   1
                l(4) =   1
                l(5) =   2
                l(6) =   2
     Q(r) pseudized with  8 coefficients,  rinner =    1.300   1.300   1.300
                                                       1.300   1.300

     PseudoPot. # 3 for O  read from file:
     ../pseudo/O.pbe-n-kjpaw_psl.0.1.UPF
     MD5 check sum: 0234752ac141de4415c5fc33072bef88
     Pseudo is Projector augmented-wave + core cor, Zval =  6.0
     Generated using "atomic" code by A. Dal Corso  v.5.0.99 svn rev. 10869
     Shape of augmentation charge: BESSEL
     Using radial grid of 1095 points,  4 beta functions with: 
                l(1) =   0
                l(2) =   0
                l(3) =   1
                l(4) =   1
     Q(r) pseudized with 0 coefficients 


     atomic species   valence    mass     pseudopotential
        Mo            14.00    95.94000     Mo( 1.00)
        S              6.00    32.06500     S ( 1.00)
        O              6.00    15.99940     O ( 1.00)

     No symmetry found



   Cartesian axes

     site n.     atom                  positions (alat units)
         1           Mo  tau(   1) = (   0.6952221   0.1890506   0.2985846  )
         2           S   tau(   2) = (   0.8646417   0.0856217   0.4689279  )
         3           S   tau(   3) = (   0.8663890   0.0857843   0.1351291  )
         4           Mo  tau(   4) = (   0.8560186   0.4753274   0.2873942  )
         5           S   tau(   5) = (   0.6873294   0.3936244   0.4596353  )
         6           S   tau(   6) = (   0.6929804   0.3713468   0.1185692  )
         7           Mo  tau(   7) = (   0.6862796   0.7633098   0.2825370  )
         8           S   tau(   8) = (   0.8545980   0.6708292   0.4486168  )
         9           S   tau(   9) = (   0.8545123   0.6666874   0.1146125  )
        10           Mo  tau(  10) = (   0.8629403   1.0471007   0.3006803  )
        11           S   tau(  11) = (   0.6868280   0.9456650   0.4634891  )
        12           S   tau(  12) = (   0.6998113   0.9568511   0.1205389  )
        13           Mo  tau(  13) = (   0.3618216   0.1847309   0.2935964  )
        14           S   tau(  14) = (   0.5260962   0.0863870   0.4600448  )
        15           S   tau(  15) = (   0.5348379   0.0894875   0.1297123  )
        16           Mo  tau(  16) = (   0.5265817   0.4772436   0.2784130  )
        17           S   tau(  17) = (   0.3624753   0.3882513   0.4525556  )
        18           S   tau(  18) = (   0.3635411   0.3752055   0.1119148  )
        19           Mo  tau(  19) = (   0.3652268   0.7630864   0.2781795  )
        20           S   tau(  20) = (   0.5269494   0.6690381   0.1096838  )
        21           Mo  tau(  21) = (   0.5300192   1.0470394   0.2900995  )
        22           S   tau(  22) = (   0.3670346   0.9457522   0.4574073  )
        23           S   tau(  23) = (   0.3604225   0.9585725   0.1159032  )
        24           Mo  tau(  24) = (   0.0313099   0.1847895   0.3013130  )
        25           S   tau(  25) = (   0.1956761   0.0838230   0.4650863  )
        26           S   tau(  26) = (   0.1967693   0.0903508   0.1278874  )
        27           Mo  tau(  27) = (   0.1967578   0.4753919   0.2813011  )
        28           S   tau(  28) = (   0.0287851   0.3864324   0.4586755  )
        29           S   tau(  29) = (   0.0244514   0.3729871   0.1239344  )
        30           Mo  tau(  30) = (   0.0286728   0.7631204   0.2856894  )
        31           S   tau(  31) = (   0.2011512   0.6675435   0.4465001  )
        32           S   tau(  32) = (   0.1969214   0.6672839   0.1104564  )
        33           Mo  tau(  33) = (   0.1950294   1.0511147   0.2932237  )
        34           S   tau(  34) = (   0.0312912   0.9612169   0.4667423  )
        35           S   tau(  35) = (   0.0292670   0.9563028   0.1216485  )
        36           O   tau(  36) = (   0.4444444   1.0272628   0.5792558  )

     number of k points=     1  Gaussian smearing, width (Ry)=  0.0100
                       cart. coord. in units 2pi/alat
        k(    1) = (   0.0000000   0.0000000   0.0000000), wk =   2.0000000

     Dense  grid:  2439793 G-vectors     FFT dimensions: ( 150, 180, 384)

     Smooth grid:   842757 G-vectors     FFT dimensions: ( 108, 120, 270)

     Estimated max dynamical RAM per process >     269.22 MB

     Estimated total dynamical RAM >      12.62 GB

     Initial potential from superposition of free atoms

     starting charge     311.9873, renormalised to     312.0000

     negative rho (up, down):  2.754E-04 0.000E+00


---------------------------------------------------------------------------------
Carrying out rVV10 run using the following parameters:
Nqs =      20    Nr_points =    1024   r_max =   100.000
b_value =  6.30000    beta =  0.00901
     q_mesh =  0.00010000  0.00030000  0.00058939  0.00100810
               0.00161396  0.00249058  0.00375900  0.00559430
               0.00824984  0.01209221  0.01765183  0.02569619
               0.03733578  0.05417739  0.07854596  0.11380545
               0.16482331  0.23864234  0.34545298  0.50000000

Gradients computed in Reciprocal space

---------------------------------------------------------------------------------


     Starting wfcs are  216 randomized atomic wfcs
     Checking if some PAW data can be deallocated... 

     total cpu time spent up to now is        5.4 secs

     Self-consistent Calculation

     iteration #  1     ecut=    80.00 Ry     beta= 0.70
     Davidson diagonalization with overlap
     ethr =  1.00E-02,  avg # of iterations =  2.0

     Threshold (ethr) on eigenvalues was too large:
     Diagonalizing with lowered threshold

     Davidson diagonalization with overlap
     ethr =  4.40E-04,  avg # of iterations =  4.0

     negative rho (up, down):  4.023E-08 0.000E+00

     total cpu time spent up to now is       23.3 secs

     total energy              =   -2246.28257052 Ry
     estimated scf accuracy    <       1.62418307 Ry

     iteration #  2     ecut=    80.00 Ry     beta= 0.70
     Davidson diagonalization with overlap
     ethr =  5.21E-04,  avg # of iterations =  4.0

     total cpu time spent up to now is       28.6 secs

     total energy              =   -2246.28816292 Ry
     estimated scf accuracy    <       0.58042716 Ry

     iteration #  3     ecut=    80.00 Ry     beta= 0.70
     Davidson diagonalization with overlap
     ethr =  1.86E-04,  avg # of iterations =  2.0

     total cpu time spent up to now is       33.0 secs

     total energy              =   -2246.28261644 Ry
     estimated scf accuracy    <       0.16081512 Ry

     iteration #  4     ecut=    80.00 Ry     beta= 0.70
     Davidson diagonalization with overlap
     ethr =  5.15E-05,  avg # of iterations = 20.0

     total cpu time spent up to now is       38.7 secs

     total energy              =   -2246.31205357 Ry
     estimated scf accuracy    <       0.02484045 Ry

     iteration #  5     ecut=    80.00 Ry     beta= 0.70
     Davidson diagonalization with overlap
     ethr =  7.96E-06,  avg # of iterations = 16.0

     total cpu time spent up to now is       43.7 secs

     total energy              =   -2246.31248227 Ry
     estimated scf accuracy    <       0.01441599 Ry

     iteration #  6     ecut=    80.00 Ry     beta= 0.70
     Davidson diagonalization with overlap
     ethr =  4.62E-06,  avg # of iterations =  2.0

     total cpu time spent up to now is       47.9 secs

     total energy              =   -2246.31171732 Ry
     estimated scf accuracy    <       0.00893389 Ry

     iteration #  7     ecut=    80.00 Ry     beta= 0.70
     Davidson diagonalization with overlap
     ethr =  2.86E-06,  avg # of iterations =  2.0

     negative rho (up, down):  1.024E-04 0.000E+00

     total cpu time spent up to now is       57.2 secs

     total energy              =   -2246.31051580 Ry
     estimated scf accuracy    <       0.00548218 Ry

     iteration #  8     ecut=    80.00 Ry     beta= 0.70
     Davidson diagonalization with overlap
     ethr =  1.76E-06,  avg # of iterations = 12.0

     negative rho (up, down):  1.259E-02 0.000E+00

     total cpu time spent up to now is       64.5 secs

     total energy              =   -2246.31033074 Ry
     estimated scf accuracy    <       0.00305154 Ry

     iteration #  9     ecut=    80.00 Ry     beta= 0.70
     Davidson diagonalization with overlap
     ethr =  9.78E-07,  avg # of iterations =  2.0

     negative rho (up, down):  2.034E-02 0.000E+00

     total cpu time spent up to now is       71.8 secs

     total energy              =   -2246.31009029 Ry
     estimated scf accuracy    <       0.00166083 Ry

     iteration # 10     ecut=    80.00 Ry     beta= 0.70
     Davidson diagonalization with overlap
     ethr =  5.32E-07,  avg # of iterations =  2.0

     negative rho (up, down):  2.209E-02 0.000E+00

     total cpu time spent up to now is       78.7 secs

     total energy              =   -2246.31017385 Ry
     estimated scf accuracy    <       0.00075547 Ry

     iteration # 11     ecut=    80.00 Ry     beta= 0.70
     Davidson diagonalization with overlap
     ethr =  2.42E-07,  avg # of iterations =  2.0

     negative rho (up, down):  1.197E-02 0.000E+00

     total cpu time spent up to now is       85.6 secs

     total energy              =   -2246.31015261 Ry
     estimated scf accuracy    <       0.00014011 Ry

     iteration # 12     ecut=    80.00 Ry     beta= 0.70
     Davidson diagonalization with overlap
     ethr =  4.49E-08,  avg # of iterations =  7.0

     negative rho (up, down):  4.120E-03 0.000E+00

     total cpu time spent up to now is       94.3 secs

     total energy              =   -2246.31021015 Ry
     estimated scf accuracy    <       0.00004073 Ry

     iteration # 13     ecut=    80.00 Ry     beta= 0.70
     Davidson diagonalization with overlap
     ethr =  1.31E-08,  avg # of iterations =  2.0

     negative rho (up, down):  1.035E-03 0.000E+00

     total cpu time spent up to now is      102.7 secs

     total energy              =   -2246.31022642 Ry
     estimated scf accuracy    <       0.00000948 Ry

     iteration # 14     ecut=    80.00 Ry     beta= 0.70
     Davidson diagonalization with overlap
     ethr =  3.04E-09,  avg # of iterations =  4.0

     negative rho (up, down):  5.200E-04 0.000E+00

     total cpu time spent up to now is      111.1 secs

     total energy              =   -2246.31022670 Ry
     estimated scf accuracy    <       0.00000297 Ry

     iteration # 15     ecut=    80.00 Ry     beta= 0.70
     Davidson diagonalization with overlap
     ethr =  9.53E-10,  avg # of iterations =  4.0

     negative rho (up, down):  2.780E-04 0.000E+00

     total cpu time spent up to now is      120.2 secs

     total energy              =   -2246.31022980 Ry
     estimated scf accuracy    <       0.00000112 Ry

     iteration # 16     ecut=    80.00 Ry     beta= 0.70
     Davidson diagonalization with overlap
     ethr =  3.60E-10,  avg # of iterations =  2.0

     negative rho (up, down):  2.003E-04 0.000E+00

     total cpu time spent up to now is      124.5 secs

     End of self-consistent calculation

          k = 0.0000 0.0000 0.0000 (105382 PWs)   bands (ev):

   -63.0079 -62.9723 -62.9539 -62.9345 -62.9310 -62.9268 -62.9134 -62.9086
   -62.9041 -62.8975 -62.8623 -62.8354 -37.3464 -37.2898 -37.2616 -37.2551
   -37.2176 -37.2106 -37.1885 -37.1828 -37.1618 -37.1540 -37.1442 -37.1419
   -37.1309 -37.1289 -37.1125 -37.1049 -37.1007 -37.0949 -37.0934 -37.0763
   -37.0732 -37.0666 -37.0573 -37.0463 -37.0375 -37.0185 -37.0143 -36.9989
   -36.9887 -36.9853 -36.9671 -36.9582 -36.9160 -36.8859 -36.8770 -36.8541
   -21.7919 -16.0212 -15.2426 -15.2282 -15.0641 -14.9829 -14.8091 -14.5947
   -14.5699 -14.5369 -14.4950 -14.4656 -14.4465 -14.3977 -14.2924 -14.2298
   -14.2148 -14.1778 -14.1235 -14.0158 -13.9596 -13.9552 -13.9070 -13.7764
    -8.0109  -7.7716  -7.7088  -7.5414  -7.4660  -7.3831  -7.3180  -7.2691
    -7.1874  -7.0136  -6.9754  -6.8811  -6.8336  -6.7764  -6.7038  -6.6545
    -6.5809  -6.5088  -6.4018  -6.3522  -6.1273  -6.0740  -6.0278  -5.9507
    -5.8928  -5.8497  -5.8333  -5.8112  -5.7706  -5.7249  -5.6667  -5.6215
    -5.5905  -5.5618  -5.4704  -5.3173  -5.3064  -5.1967  -5.1485  -5.1180
    -5.0861  -5.0244  -4.9569  -4.9134  -4.7166  -4.6830  -4.4951  -4.4088
    -4.3641  -4.3261  -4.2809  -4.1848  -4.0249  -4.0109  -3.9385  -3.8537
    -3.8259  -3.7780  -3.7165  -3.6573  -3.6422  -3.6105  -3.5613  -3.5451
    -3.4826  -3.4644  -3.3361  -3.2921  -3.1535  -3.1184  -3.0482  -2.9057
    -2.9007  -2.8315  -2.8218  -2.7777  -2.7239  -2.7204  -2.4840  -2.3906
    -2.1184  -2.0687  -1.9989  -1.8509  -1.1357  -0.8100  -0.5434  -0.2448
    -0.2337  -0.1655  -0.1245  -0.0167   0.0409   0.0726   0.1584   0.1892
     0.2683   0.2906   0.3217   0.3632   0.4154   0.4501   0.4886   0.5660
     0.5924   0.6416   0.6542   0.6983   0.7393   0.7743   0.8174   0.8582
     0.9253   1.0318   1.2164

     the Fermi energy is    -1.4933 ev

!    total energy              =   -2246.31023012 Ry
     estimated scf accuracy    <       0.00000056 Ry
     smearing contrib. (-TS)   =      -0.00001129 Ry
     internal energy E=F+TS    =   -2246.31021883 Ry

     The total energy is F=E-TS. E is the sum of the following terms:
     one-electron contribution =  -18435.97046246 Ry
     hartree contribution      =    9205.83628707 Ry
     xc contribution           =    -392.06807715 Ry
     ewald contribution        =    7385.75355549 Ry
     one-center paw contrib.   =      -9.86152176 Ry

     convergence has been achieved in  16 iterations

     negative rho (up, down):  2.003E-04 0.000E+00

     Forces acting on atoms (cartesian axes, Ry/au):

     atom    1 type  1   force =     0.01118360   -0.01775447    0.00076785
     atom    2 type  2   force =    -0.01386210    0.01692952    0.00272999
     atom    3 type  2   force =    -0.01027261    0.00877613   -0.00425428
     atom    4 type  1   force =     0.00499970    0.00448210   -0.00187302
     atom    5 type  2   force =    -0.00180147   -0.00686116   -0.00763627
     atom    6 type  2   force =     0.00010936    0.00902373    0.00012739
     atom    7 type  1   force =     0.00296040   -0.00760413   -0.01178726
     atom    8 type  2   force =     0.00048420   -0.00263405    0.01795660
     atom    9 type  2   force =     0.01251307    0.00569242    0.01213372
     atom   10 type  1   force =    -0.01185376    0.00579574   -0.02919154
     atom   11 type  2   force =     0.01557515   -0.00516195   -0.01340682
     atom   12 type  2   force =    -0.00361103    0.00392389    0.00851380
     atom   13 type  1   force =     0.00572137   -0.00313205   -0.00350473
     atom   14 type  2   force =     0.01782391    0.01740050   -0.00073980
     atom   15 type  2   force =    -0.01167901    0.00411651   -0.00817553
     atom   16 type  1   force =    -0.00269793    0.00987816    0.00604685
     atom   17 type  2   force =     0.00669159   -0.00056043    0.00126922
     atom   18 type  2   force =    -0.00125852   -0.00302514    0.01211673
     atom   19 type  1   force =     0.02738382   -0.02863855    0.00614624
     atom   20 type  2   force =    -0.00147318   -0.00224628    0.00036486
     atom   21 type  1   force =     0.02202527   -0.00109447   -0.07612346
     atom   22 type  2   force =     0.02689244    0.05816084    0.01010581
     atom   23 type  2   force =    -0.00173361    0.00211646    0.01157457
     atom   24 type  1   force =    -0.00990144   -0.00157134   -0.02374063
     atom   25 type  2   force =     0.01494882    0.01753717    0.00973992
     atom   26 type  2   force =    -0.01190132   -0.00214616   -0.00536284
     atom   27 type  1   force =    -0.00022664    0.00178409    0.01011079
     atom   28 type  2   force =     0.00075453   -0.00220764   -0.00496615
     atom   29 type  2   force =     0.00308489   -0.00058927   -0.00039373
     atom   30 type  1   force =    -0.00458003    0.01071547   -0.00015594
     atom   31 type  2   force =    -0.00459433   -0.00480033    0.01198751
     atom   32 type  2   force =    -0.01100453    0.00619255    0.00442995
     atom   33 type  1   force =     0.01951870    0.01343685    0.00194167
     atom   34 type  2   force =    -0.00113760   -0.04626349   -0.00942263
     atom   35 type  2   force =    -0.01048312    0.00509975    0.01357242
     atom   36 type  3   force =    -0.07859862   -0.06477097    0.05909877
     The non-local contrib.  to forces
     atom    1 type  1   force =    -0.00895476    0.02719589   -0.01036350
     atom    2 type  2   force =    -0.00711060    0.00269873   -0.27042415
     atom    3 type  2   force =    -0.01279241   -0.00735571    0.26946242
     atom    4 type  1   force =     0.00405835    0.00094136    0.00581715
     atom    5 type  2   force =     0.00480052   -0.03150152   -0.25481217
     atom    6 type  2   force =    -0.00296611    0.01378250    0.26102767
     atom    7 type  1   force =    -0.01608781    0.00825265   -0.01802619
     atom    8 type  2   force =     0.00640777    0.00286666   -0.25487632
     atom    9 type  2   force =     0.00762278   -0.00698342    0.27845288
     atom   10 type  1   force =     0.00217643    0.00233145    0.00752552
     atom   11 type  2   force =     0.04179787   -0.00282946   -0.26308843
     atom   12 type  2   force =    -0.01387884   -0.01741425    0.26493969
     atom   13 type  1   force =     0.00646461    0.02120467   -0.00417730
     atom   14 type  2   force =     0.00467304    0.02356342   -0.26326297
     atom   15 type  2   force =    -0.01661655   -0.00319486    0.25999920
     atom   16 type  1   force =     0.00594659    0.01862204   -0.02932968
     atom   17 type  2   force =     0.00320822   -0.02917208   -0.25260324
     atom   18 type  2   force =    -0.00469705   -0.00224921    0.27377072
     atom   19 type  1   force =     0.00233261    0.00893314   -0.00558079
     atom   20 type  2   force =    -0.00973098   -0.02123738    0.26895217
     atom   21 type  1   force =    -0.01231870    0.02070035    0.02689332
     atom   22 type  2   force =     0.20051238    0.21766085    0.21277157
     atom   23 type  2   force =     0.00243039   -0.01799983    0.27100394
     atom   24 type  1   force =     0.00348322    0.01509384   -0.00683580
     atom   25 type  2   force =     0.00807171    0.00752786   -0.26320481
     atom   26 type  2   force =    -0.00443269   -0.01488038    0.26149355
     atom   27 type  1   force =    -0.00651745    0.00091389    0.00978805
     atom   28 type  2   force =    -0.00224701   -0.02361871   -0.27825049
     atom   29 type  2   force =     0.00792098    0.00442069    0.25991078
     atom   30 type  1   force =    -0.00998681    0.01260402    0.01004394
     atom   31 type  2   force =    -0.00766963   -0.00148956   -0.25553225
     atom   32 type  2   force =    -0.00194770   -0.01197412    0.27389869
     atom   33 type  1   force =    -0.00451519   -0.00413942    0.01170741
     atom   34 type  2   force =     0.00278578   -0.03809307   -0.27690575
     atom   35 type  2   force =    -0.00370671   -0.01305702    0.26918434
     atom   36 type  3   force =    -1.04085623   -1.04916425   -1.35434274
     The ionic contribution  to forces
     atom    1 type  1   force =     1.08886649    1.26995722    4.10848254
     atom    2 type  2   force =    -0.32562475    0.83080360   38.95489073
     atom    3 type  2   force =    -0.08778376    0.15852114  -36.70697187
     atom    4 type  1   force =     0.23209640    0.50438570   -0.27406934
     atom    5 type  2   force =    -0.77744266    1.66317798   38.50830694
     atom    6 type  2   force =     0.41242324   -0.42967545  -38.54400387
     atom    7 type  1   force =    -1.76878749   -3.87981191    0.66966482
     atom    8 type  2   force =    -0.80149649   -0.33274636   37.10763110
     atom    9 type  2   force =     0.39144922   -0.16055505  -38.53610871
     atom   10 type  1   force =    -0.44091268   -0.23020144    3.95768760
     atom   11 type  2   force =     1.63679313   -2.40439039   37.89912261
     atom   12 type  2   force =     0.65935786    0.60904597  -38.71981668
     atom   13 type  1   force =     0.06521060    2.59070484    0.68676005
     atom   14 type  2   force =     1.04790175    2.64941294   36.91922016
     atom   15 type  2   force =     0.26027828    0.21476004  -37.72353896
     atom   16 type  1   force =     0.11674849    3.79272489   -0.71910125
     atom   17 type  2   force =     0.71094845    1.75905530   37.63566793
     atom   18 type  2   force =    -0.19317521   -0.56377655  -39.12344393
     atom   19 type  1   force =     2.23525052   -4.13464690   -1.96285361
     atom   20 type  2   force =     0.27962738   -0.40893795  -39.15413482
     atom   21 type  1   force =     1.49731297    0.40642203   -4.57931850
     atom   22 type  2   force =    -3.29409955   -5.70129883   32.35647444
     atom   23 type  2   force =    -0.20842436    0.55119024  -39.39076507
     atom   24 type  1   force =    -0.87236181    1.78543141    4.63295119
     atom   25 type  2   force =    -0.44769348    1.33756089   38.58662996
     atom   26 type  2   force =    -0.45809272    0.26775300  -38.08899749
     atom   27 type  1   force =    -0.24767341    0.29680475   -3.32441160
     atom   28 type  2   force =    -0.03947788    1.12267319   38.00323293
     atom   29 type  2   force =    -0.29765260   -0.37389362  -37.74238650
     atom   30 type  1   force =    -0.69805499   -1.53571667   -1.36987938
     atom   31 type  2   force =     0.81481237   -0.70800567   36.92459112
     atom   32 type  2   force =    -0.57689760   -0.17027488  -39.23492182
     atom   33 type  1   force =    -1.04795532   -0.64441366   -0.98790842
     atom   34 type  2   force =    -0.33196311   -1.63346644   38.92551985
     atom   35 type  2   force =    -0.39893565    0.42025543  -38.50139012
     atom   36 type  3   force =     1.86542838    1.08117120   48.80718797
     The local contribution  to forces
     atom    1 type  1   force =    -1.06876641   -1.31491031   -4.09810635
     atom    2 type  2   force =     0.31883653   -0.81644333  -38.70255290
     atom    3 type  2   force =     0.08977469   -0.14270137   36.45350463
     atom    4 type  1   force =    -0.23110265   -0.50075271    0.26561229
     atom    5 type  2   force =     0.77134724   -1.64022821  -38.28168465
     atom    6 type  2   force =    -0.40976612    0.42619185   38.30329545
     atom    7 type  1   force =     1.78799599    3.86393478   -0.66432136
     atom    8 type  2   force =     0.79585685    0.32704547  -36.85534913
     atom    9 type  2   force =    -0.38639739    0.17285462   38.29030483
     atom   10 type  1   force =     0.42700098    0.23357504   -3.99516405
     atom   11 type  2   force =    -1.66054328    2.40188991  -37.67076234
     atom   12 type  2   force =    -0.65022660   -0.58915143   38.48370577
     atom   13 type  1   force =    -0.06594880   -2.61493903   -0.68694596
     atom   14 type  2   force =    -1.03416967   -2.65324050  -36.67801253
     atom   15 type  2   force =    -0.25625681   -0.20761435   37.47523539
     atom   16 type  1   force =    -0.12543654   -3.80147991    0.75364072
     atom   17 type  2   force =    -0.70741980   -1.73190658  -37.40228932
     atom   18 type  2   force =     0.19654509    0.56360843   38.88229324
     atom   19 type  1   force =    -2.21031640    4.09690217    1.97353698
     atom   20 type  2   force =    -0.27199460    0.42709850   38.90626569
     atom   21 type  1   force =    -1.46282556   -0.42810992    4.47525273
     atom   22 type  2   force =     3.13239957    5.55456451  -32.55376801
     atom   23 type  2   force =     0.20454246   -0.53249654   39.15177628
     atom   24 type  1   force =     0.85900238   -1.80215203   -4.65055089
     atom   25 type  2   force =     0.45444574   -1.32696645  -38.33472191
     atom   26 type  2   force =     0.45069591   -0.25582279   37.84229650
     atom   27 type  1   force =     0.25396771   -0.29588149    3.32392340
     atom   28 type  2   force =     0.04233972   -1.10298366  -37.75116074
     atom   29 type  2   force =     0.29349394    0.36964280   37.50190566
     atom   30 type  1   force =     0.70339235    1.53385207    1.35883976
     atom   31 type  2   force =    -0.81220095    0.70457058  -36.67777845
     atom   32 type  2   force =     0.56798751    0.18774538   38.98593971
     atom   33 type  1   force =     1.07170528    0.66200573    0.97718479
     atom   34 type  2   force =     0.32789928    1.62398801  -38.67943268
     atom   35 type  2   force =     0.39219125   -0.40319454   38.26626335
     atom   36 type  3   force =    -0.91478231   -0.10839987  -47.40798783
     The core correction contribution to forces
     atom    1 type  1   force =     0.00000000    0.00000000    0.00000000
     atom    2 type  2   force =     0.00006720   -0.00015344    0.02077977
     atom    3 type  2   force =     0.00054080    0.00026947   -0.02084032
     atom    4 type  1   force =     0.00000000    0.00000000    0.00000000
     atom    5 type  2   force =    -0.00053741    0.00170639    0.02050420
     atom    6 type  2   force =     0.00037228   -0.00127262   -0.02078073
     atom    7 type  1   force =     0.00000000    0.00000000    0.00000000
     atom    8 type  2   force =    -0.00025931    0.00022788    0.02047108
     atom    9 type  2   force =    -0.00014406    0.00042161   -0.02107770
     atom   10 type  1   force =     0.00000000    0.00000000    0.00000000
     atom   11 type  2   force =    -0.00235276    0.00014457    0.02122761
     atom   12 type  2   force =     0.00115438    0.00143859   -0.02090821
     atom   13 type  1   force =     0.00000000    0.00000000    0.00000000
     atom   14 type  2   force =    -0.00054201   -0.00226244    0.02122575
     atom   15 type  2   force =     0.00090290    0.00015231   -0.02049663
     atom   16 type  1   force =     0.00000000    0.00000000    0.00000000
     atom   17 type  2   force =    -0.00004749    0.00148574    0.02041753
     atom   18 type  2   force =     0.00007591   -0.00060856   -0.02107458
     atom   19 type  1   force =     0.00000000    0.00000000    0.00000000
     atom   20 type  2   force =     0.00063972    0.00080152   -0.02133002
     atom   21 type  1   force =     0.00000000    0.00000000    0.00000000
     atom   22 type  2   force =    -0.01201213   -0.01281959   -0.00546963
     atom   23 type  2   force =    -0.00029960    0.00145343   -0.02110448
     atom   24 type  1   force =     0.00000000    0.00000000    0.00000000
     atom   25 type  2   force =     0.00004795   -0.00054643    0.02097539
     atom   26 type  2   force =    -0.00008177    0.00077997   -0.02076566
     atom   27 type  1   force =     0.00000000    0.00000000    0.00000000
     atom   28 type  2   force =     0.00016278    0.00173534    0.02115939
     atom   29 type  2   force =    -0.00065119   -0.00075041   -0.02041645
     atom   30 type  1   force =     0.00000000    0.00000000    0.00000000
     atom   31 type  2   force =     0.00040093    0.00007595    0.02064115
     atom   32 type  2   force =    -0.00017985    0.00069188   -0.02105750
     atom   33 type  1   force =     0.00000000    0.00000000    0.00000000
     atom   34 type  2   force =     0.00008867    0.00129191    0.02132727
     atom   35 type  2   force =    -0.00004150    0.00108782   -0.02104113
     atom   36 type  3   force =     0.01159135    0.01162897    0.01415058
     The Hubbard contrib.    to forces
     atom    1 type  1   force =     0.00000000    0.00000000    0.00000000
     atom    2 type  2   force =     0.00000000    0.00000000    0.00000000
     atom    3 type  2   force =     0.00000000    0.00000000    0.00000000
     atom    4 type  1   force =     0.00000000    0.00000000    0.00000000
     atom    5 type  2   force =     0.00000000    0.00000000    0.00000000
     atom    6 type  2   force =     0.00000000    0.00000000    0.00000000
     atom    7 type  1   force =     0.00000000    0.00000000    0.00000000
     atom    8 type  2   force =     0.00000000    0.00000000    0.00000000
     atom    9 type  2   force =     0.00000000    0.00000000    0.00000000
     atom   10 type  1   force =     0.00000000    0.00000000    0.00000000
     atom   11 type  2   force =     0.00000000    0.00000000    0.00000000
     atom   12 type  2   force =     0.00000000    0.00000000    0.00000000
     atom   13 type  1   force =     0.00000000    0.00000000    0.00000000
     atom   14 type  2   force =     0.00000000    0.00000000    0.00000000
     atom   15 type  2   force =     0.00000000    0.00000000    0.00000000
     atom   16 type  1   force =     0.00000000    0.00000000    0.00000000
     atom   17 type  2   force =     0.00000000    0.00000000    0.00000000
     atom   18 type  2   force =     0.00000000    0.00000000    0.00000000
     atom   19 type  1   force =     0.00000000    0.00000000    0.00000000
     atom   20 type  2   force =     0.00000000    0.00000000    0.00000000
     atom   21 type  1   force =     0.00000000    0.00000000    0.00000000
     atom   22 type  2   force =     0.00000000    0.00000000    0.00000000
     atom   23 type  2   force =     0.00000000    0.00000000    0.00000000
     atom   24 type  1   force =     0.00000000    0.00000000    0.00000000
     atom   25 type  2   force =     0.00000000    0.00000000    0.00000000
     atom   26 type  2   force =     0.00000000    0.00000000    0.00000000
     atom   27 type  1   force =     0.00000000    0.00000000    0.00000000
     atom   28 type  2   force =     0.00000000    0.00000000    0.00000000
     atom   29 type  2   force =     0.00000000    0.00000000    0.00000000
     atom   30 type  1   force =     0.00000000    0.00000000    0.00000000
     atom   31 type  2   force =     0.00000000    0.00000000    0.00000000
     atom   32 type  2   force =     0.00000000    0.00000000    0.00000000
     atom   33 type  1   force =     0.00000000    0.00000000    0.00000000
     atom   34 type  2   force =     0.00000000    0.00000000    0.00000000
     atom   35 type  2   force =     0.00000000    0.00000000    0.00000000
     atom   36 type  3   force =     0.00000000    0.00000000    0.00000000
     The SCF correction term to forces
     atom    1 type  1   force =     0.00003646    0.00000200    0.00072821
     atom    2 type  2   force =    -0.00003230    0.00002324    0.00000958
     atom    3 type  2   force =    -0.00001375    0.00004187    0.00056390
     atom    4 type  1   force =    -0.00005421   -0.00009297    0.00073994
     atom    5 type  2   force =     0.00002903   -0.00001653    0.00002245
     atom    6 type  2   force =     0.00004425   -0.00000327    0.00056192
     atom    7 type  1   force =    -0.00016210    0.00001963    0.00086852
     atom    8 type  2   force =    -0.00002644   -0.00002842    0.00005291
     atom    9 type  2   force =    -0.00001930   -0.00004607    0.00053547
     atom   10 type  1   force =    -0.00012032    0.00008996    0.00073244
     atom   11 type  2   force =    -0.00012162    0.00002269    0.00006677
     atom   12 type  2   force =    -0.00001964    0.00000428    0.00056627
     atom   13 type  1   force =    -0.00000686   -0.00010325    0.00083153
     atom   14 type  2   force =    -0.00004102   -0.00007364    0.00006282
     atom   15 type  2   force =     0.00001135    0.00001265    0.00059852
     atom   16 type  1   force =     0.00004171    0.00001042    0.00081010
     atom   17 type  2   force =     0.00000038   -0.00002355    0.00004937
     atom   18 type  2   force =    -0.00000908    0.00000003    0.00054434
     atom   19 type  1   force =     0.00011527    0.00017232    0.00101670
     atom   20 type  2   force =    -0.00001651    0.00002829    0.00058489
     atom   21 type  1   force =    -0.00014526   -0.00010765    0.00102203
     atom   22 type  2   force =     0.00009035    0.00005317    0.00007048
     atom   23 type  2   force =     0.00001569   -0.00003156    0.00063695
     atom   24 type  1   force =    -0.00002705    0.00005472    0.00066790
     atom   25 type  2   force =     0.00007508   -0.00003942    0.00003435
     atom   26 type  2   force =     0.00000812    0.00002331    0.00058329
     atom   27 type  1   force =    -0.00000532   -0.00005378    0.00078399
     atom   28 type  2   force =    -0.00002490   -0.00001453    0.00002581
     atom   29 type  2   force =    -0.00002805   -0.00000945    0.00056583
     atom   30 type  1   force =     0.00006760   -0.00002468    0.00081278
     atom   31 type  2   force =     0.00006114    0.00004764    0.00003899
     atom   32 type  2   force =     0.00003128    0.00000356    0.00054392
     atom   33 type  1   force =     0.00028212   -0.00001654    0.00093093
     atom   34 type  2   force =     0.00004996    0.00001538    0.00004174
     atom   35 type  2   force =     0.00000768    0.00000734    0.00052902
     atom   36 type  3   force =     0.00001837   -0.00000775    0.00006383

     Total force =     0.190778     Total SCF correction =     0.003550

     BFGS Geometry Optimization
     Energy error            =      0.0E+00 Ry
     Gradient error          =      7.9E-02 Ry/Bohr

     number of scf cycles    =   1
     number of bfgs steps    =   0

     energy             new  =   -2246.3102301188 Ry

     new trust radius        =       0.1177526488 bohr
     new conv_thr            =       0.0000010000 Ry


ATOMIC_POSITIONS (angstrom)
Mo            6.5804665172        1.7784109680        2.8240493591
S             8.1693738336        0.8186627432        4.4359830017
S             8.1877970567        0.8158858722        1.2756321586
Mo            8.0978082947        4.4974287705        2.7168272342
S             6.4989559598        3.7187807177        4.3426197061
S             6.5534076680        3.5165127104        1.1213476378
Mo            6.4915482733        7.2144133516        2.6656469353
S             8.0819839542        6.3424771150        4.2519637868
S             8.0875392782        6.3077146140        1.0902838847
Mo            8.1543463112        9.9052473873        2.8280142639
S             6.5034096113        8.9401952269        4.3760109475
S             6.6160363263        9.0507876457        1.1444126102
Mo            3.4246872815        1.7452984414        2.7746165409
S             4.9845975001        0.8261491585        4.3501416060
S             5.0516534881        0.8484404696        1.2223321541
Mo            4.9783289986        4.5184053013        2.6360844019
S             3.4313826993        3.6713031183        4.2803812234
S             3.4372546004        3.5466278639        1.0647635795
Mo            3.4683526313        7.2011696708        2.6339293111
S             4.9824546194        6.3257436034        1.0374468063
Mo            5.0239191926        9.9010208839        2.7031181619
S             3.4851889835        8.9745286623        4.3309390742
S             3.4075117812        9.0661099682        1.1021932978
Mo            0.2908508703        1.7466780147        2.8368817060
S             1.8583727868        0.8019742786        4.4033635836
S             1.8545021281        0.8532902193        1.2065629589
Mo            1.8605713746        4.4966108602        2.6655477811
S             0.2726131311        3.6532305926        4.3349561287
S             0.2328636593        3.5269373961        1.1718095335
Mo            0.2687285049        7.2223164768        2.7016139093
S             1.8998070339        6.3102586072        4.2287876385
S             1.8564148684        6.3136207680        1.0469035100
Mo            1.8546755155        9.9472496266        2.7739737386
S             0.2953109065        9.0655162437        4.4088832261
S             0.2712239710        9.0462243860        1.1575829935
O             4.1614118458        9.6803024544        5.5091571461



     Writing config-only to output data dir ./MoS2-V-O.save/
     NEW-OLD atomic charge density approx. for the potential

     negative rho (up, down):  1.524E-04 0.000E+00

     total cpu time spent up to now is      132.8 secs

     Self-consistent Calculation

     iteration #  1     ecut=    80.00 Ry     beta= 0.70
     Davidson diagonalization with overlap
     ethr =  1.00E-06,  avg # of iterations = 16.0

     negative rho (up, down):  1.486E-04 0.000E+00

     total cpu time spent up to now is      149.0 secs

     total energy              =   -2246.33983351 Ry
     estimated scf accuracy    <       0.00393690 Ry

     iteration #  2     ecut=    80.00 Ry     beta= 0.70
     Davidson diagonalization with overlap
     ethr =  1.26E-06,  avg # of iterations =  4.0

     negative rho (up, down):  1.699E-04 0.000E+00

     total cpu time spent up to now is      162.9 secs

     total energy              =   -2246.34035645 Ry
     estimated scf accuracy    <       0.00167779 Ry

     iteration #  3     ecut=    80.00 Ry     beta= 0.70
     Davidson diagonalization with overlap
     ethr =  5.38E-07,  avg # of iterations =  3.0

     negative rho (up, down):  1.677E-04 0.000E+00

     total cpu time spent up to now is      177.0 secs

     total energy              =   -2246.34042123 Ry
     estimated scf accuracy    <       0.00025499 Ry

     iteration #  4     ecut=    80.00 Ry     beta= 0.70
     Davidson diagonalization with overlap
     ethr =  8.17E-08,  avg # of iterations =  4.0

     negative rho (up, down):  1.712E-04 0.000E+00

     total cpu time spent up to now is      192.5 secs

     total energy              =   -2246.34046493 Ry
     estimated scf accuracy    <       0.00002098 Ry

     iteration #  5     ecut=    80.00 Ry     beta= 0.70
     Davidson diagonalization with overlap
     ethr =  6.72E-09,  avg # of iterations =  5.0

     negative rho (up, down):  1.772E-04 0.000E+00

     total cpu time spent up to now is      207.4 secs

     total energy              =   -2246.34047225 Ry
     estimated scf accuracy    <       0.00000435 Ry

     iteration #  6     ecut=    80.00 Ry     beta= 0.70
     Davidson diagonalization with overlap
     ethr =  1.40E-09,  avg # of iterations =  2.0

     negative rho (up, down):  1.991E-04 0.000E+00

     total cpu time spent up to now is      212.0 secs

     End of self-consistent calculation

          k = 0.0000 0.0000 0.0000 (105382 PWs)   bands (ev):

   -63.0104 -62.9774 -62.9505 -62.9340 -62.9321 -62.9273 -62.9135 -62.9092
   -62.9004 -62.8965 -62.8732 -62.8106 -37.3413 -37.2906 -37.2611 -37.2568
   -37.2127 -37.2071 -37.1914 -37.1856 -37.1619 -37.1523 -37.1476 -37.1343
   -37.1309 -37.1279 -37.1107 -37.1052 -37.1020 -37.0945 -37.0932 -37.0782
   -37.0749 -37.0697 -37.0555 -37.0502 -37.0437 -37.0222 -37.0136 -37.0033
   -36.9844 -36.9668 -36.9659 -36.9456 -36.9107 -36.8860 -36.8800 -36.8506
   -22.1986 -16.0266 -15.2511 -15.2249 -15.0568 -14.9843 -14.8149 -14.5942
   -14.5544 -14.5350 -14.5028 -14.4748 -14.4344 -14.4027 -14.2939 -14.2341
   -14.2127 -14.1839 -14.1216 -13.9892 -13.9644 -13.9604 -13.9216 -13.7087
    -8.0328  -7.7748  -7.7247  -7.5393  -7.4878  -7.3787  -7.3403  -7.2830
    -7.2049  -7.0349  -6.9918  -6.8888  -6.8486  -6.7793  -6.7119  -6.6677
    -6.5842  -6.5036  -6.4063  -6.3560  -6.1373  -6.0794  -6.0285  -5.9520
    -5.8904  -5.8554  -5.8426  -5.8116  -5.7778  -5.7346  -5.6824  -5.6320
    -5.5925  -5.5551  -5.4503  -5.3158  -5.3040  -5.2005  -5.1532  -5.1112
    -5.0958  -5.0351  -4.9570  -4.9248  -4.7249  -4.6786  -4.4976  -4.4219
    -4.3600  -4.3324  -4.2885  -4.1925  -4.0357  -4.0024  -3.9529  -3.8693
    -3.8241  -3.7811  -3.7183  -3.6648  -3.6527  -3.6191  -3.5535  -3.5466
    -3.4966  -3.4589  -3.3363  -3.2987  -3.1592  -3.1245  -3.0396  -2.9173
    -2.8958  -2.8246  -2.8155  -2.7886  -2.7324  -2.7187  -2.5209  -2.3974
    -2.1621  -2.0860  -2.0572  -1.9483  -1.0934  -0.8143  -0.4993  -0.2485
    -0.2303  -0.1488  -0.1053  -0.0018   0.0415   0.0729   0.1757   0.1942
     0.2746   0.2894   0.3254   0.3594   0.4238   0.4542   0.4931   0.5666
     0.6156   0.6255   0.6618   0.7078   0.7326   0.7835   0.8379   0.8582
     0.9163   1.0244   1.2364

     the Fermi energy is    -1.5208 ev

!    total energy              =   -2246.34047238 Ry
     estimated scf accuracy    <       0.00000085 Ry
     smearing contrib. (-TS)   =      -0.00000058 Ry
     internal energy E=F+TS    =   -2246.34047179 Ry

     The total energy is F=E-TS. E is the sum of the following terms:
     one-electron contribution =  -18432.71979997 Ry
     hartree contribution      =    9204.18059974 Ry
     xc contribution           =    -392.09804519 Ry
     ewald contribution        =    7384.15613990 Ry
     one-center paw contrib.   =      -9.85936627 Ry

     convergence has been achieved in   6 iterations

     negative rho (up, down):  1.991E-04 0.000E+00

     Forces acting on atoms (cartesian axes, Ry/au):

     atom    1 type  1   force =     0.00448030   -0.00841312   -0.00285837
     atom    2 type  2   force =    -0.00912763    0.01095597   -0.00113253
     atom    3 type  2   force =    -0.00961661    0.00741908   -0.01035196
     atom    4 type  1   force =     0.00407494    0.00275041    0.00088232
     atom    5 type  2   force =    -0.00002803   -0.00608935   -0.00719115
     atom    6 type  2   force =    -0.00002451    0.00737636    0.00196360
     atom    7 type  1   force =     0.00423070   -0.00748200   -0.00328300
     atom    8 type  2   force =    -0.00006511   -0.00274920    0.01217217
     atom    9 type  2   force =     0.01141273    0.00528080    0.00731313
     atom   10 type  1   force =    -0.00382629    0.00498374   -0.01046238
     atom   11 type  2   force =     0.00757098   -0.00143336   -0.01867476
     atom   12 type  2   force =     0.00447181   -0.00187970   -0.00722015
     atom   13 type  1   force =     0.00304082    0.00051213   -0.00203134
     atom   14 type  2   force =     0.01484289    0.00587913   -0.00475053
     atom   15 type  2   force =    -0.00805135    0.00858832   -0.01461811
     atom   16 type  1   force =    -0.00000588    0.00709293    0.00383458
     atom   17 type  2   force =     0.00559198   -0.00068496    0.00197389
     atom   18 type  2   force =    -0.00096451   -0.00187202    0.01071332
     atom   19 type  1   force =     0.01433698   -0.01278777    0.01314121
     atom   20 type  2   force =     0.00096996   -0.00418500   -0.00426308
     atom   21 type  1   force =     0.00865340    0.00290673   -0.02749831
     atom   22 type  2   force =     0.01965511    0.03405336   -0.02536917
     atom   23 type  2   force =    -0.00253084   -0.00348326    0.00634823
     atom   24 type  1   force =    -0.00480620   -0.00210125   -0.00959896
     atom   25 type  2   force =     0.00963514    0.01609957    0.00409458
     atom   26 type  2   force =    -0.00746538   -0.00106964   -0.00611112
     atom   27 type  1   force =    -0.00109783    0.00040399    0.00661892
     atom   28 type  2   force =    -0.00009620   -0.00335000   -0.00530825
     atom   29 type  2   force =     0.00305792    0.00185950   -0.00195951
     atom   30 type  1   force =    -0.00149519    0.00274080    0.00453829
     atom   31 type  2   force =    -0.00165823   -0.00162733    0.00964768
     atom   32 type  2   force =    -0.00700381    0.00559144    0.00652270
     atom   33 type  1   force =     0.00873963    0.00801755    0.00832244
     atom   34 type  2   force =    -0.00104655   -0.03276956   -0.01453789
     atom   35 type  2   force =    -0.00580315    0.00639995    0.00851394
     atom   36 type  3   force =    -0.06005202   -0.04693426    0.07061955
     The non-local contrib.  to forces
     atom    1 type  1   force =    -0.00669390    0.02530412   -0.01205007
     atom    2 type  2   force =    -0.00461035   -0.00120614   -0.27174380
     atom    3 type  2   force =    -0.01132825   -0.00978778    0.26539725
     atom    4 type  1   force =     0.00432737    0.00255012    0.00494054
     atom    5 type  2   force =     0.00584466   -0.03138254   -0.25577288
     atom    6 type  2   force =    -0.00298644    0.01228965    0.26313718
     atom    7 type  1   force =    -0.01727907    0.00751198   -0.02149258
     atom    8 type  2   force =     0.00569619    0.00257603   -0.25875229
     atom    9 type  2   force =     0.00632707   -0.00746234    0.27550157
     atom   10 type  1   force =     0.00038262    0.00239185    0.00564318
     atom   11 type  2   force =     0.03582467   -0.00045235   -0.26761950
     atom   12 type  2   force =    -0.00779252   -0.02204423    0.25568810
     atom   13 type  1   force =     0.00696062    0.01976638   -0.00540833
     atom   14 type  2   force =     0.00608812    0.01934836   -0.27205027
     atom   15 type  2   force =    -0.01268985   -0.00311467    0.25656300
     atom   16 type  1   force =     0.00566704    0.02012554   -0.03145300
     atom   17 type  2   force =     0.00221673   -0.02888772   -0.25237186
     atom   18 type  2   force =    -0.00393269   -0.00174749    0.27329747
     atom   19 type  1   force =     0.00588587    0.00806956   -0.00968424
     atom   20 type  2   force =    -0.00644823   -0.02251080    0.26468553
     atom   21 type  1   force =    -0.01259596    0.01729195    0.03289999
     atom   22 type  2   force =     0.17969024    0.18815391    0.20352211
     atom   23 type  2   force =     0.00545219   -0.02154018    0.26980950
     atom   24 type  1   force =     0.00210759    0.01555574   -0.00601007
     atom   25 type  2   force =     0.00442603    0.00557963   -0.26686303
     atom   26 type  2   force =    -0.00154531   -0.01324000    0.26109705
     atom   27 type  1   force =    -0.00664390    0.00103087    0.00916843
     atom   28 type  2   force =    -0.00264772   -0.02342181   -0.27882986
     atom   29 type  2   force =     0.00743570    0.00426145    0.26047286
     atom   30 type  1   force =    -0.00961377    0.01408613    0.00876615
     atom   31 type  2   force =    -0.00387806    0.00166283   -0.25783926
     atom   32 type  2   force =     0.00147820   -0.01276755    0.27572455
     atom   33 type  1   force =     0.00022332   -0.00396929    0.01142634
     atom   34 type  2   force =     0.00349763   -0.02721338   -0.28117467
     atom   35 type  2   force =    -0.00110065   -0.01174576    0.26646111
     atom   36 type  3   force =    -1.03985251   -1.03854433   -1.51866595
     The ionic contribution  to forces
     atom    1 type  1   force =     0.90824521    1.53967175    4.21946735
     atom    2 type  2   force =    -0.17354100    0.68476149   39.04367839
     atom    3 type  2   force =    -0.03411459    0.19293970  -36.80604923
     atom    4 type  1   force =     0.20079671    0.45486524   -0.22443212
     atom    5 type  2   force =    -0.75636406    1.63770009   38.44428734
     atom    6 type  2   force =     0.37256239   -0.44068560  -38.46153964
     atom    7 type  1   force =    -1.69409397   -3.85143299    0.61714922
     atom    8 type  2   force =    -0.81793215   -0.32257243   37.23300509
     atom    9 type  2   force =     0.42514581   -0.20319980  -38.50406610
     atom   10 type  1   force =    -0.03330969   -0.18192431    3.71674717
     atom   11 type  2   force =     1.42642369   -2.25102727   37.87650528
     atom   12 type  2   force =     0.78068024    0.44209126  -38.82516120
     atom   13 type  1   force =     0.00488611    2.55865316    0.78303700
     atom   14 type  2   force =     0.95080729    2.28832658   36.98947997
     atom   15 type  2   force =     0.22753236    0.43316439  -37.79182543
     atom   16 type  1   force =     0.21303194    3.53607169   -0.50371743
     atom   17 type  2   force =     0.69355767    1.68995978   37.66236333
     atom   18 type  2   force =    -0.20665671   -0.53791188  -39.03365909
     atom   19 type  1   force =     1.85363534   -3.68131992   -1.40513500
     atom   20 type  2   force =     0.26493511   -0.44995917  -39.26682597
     atom   21 type  1   force =     1.11754360    0.41354851   -5.67275658
     atom   22 type  2   force =    -3.23411464   -5.67851092   31.69003363
     atom   23 type  2   force =    -0.42870207    0.37218585  -39.26300558
     atom   24 type  1   force =    -0.66372738    1.65303406    4.31062560
     atom   25 type  2   force =    -0.55953493    1.32936367   38.61126337
     atom   26 type  2   force =    -0.42648211    0.26961548  -38.08087452
     atom   27 type  1   force =    -0.27954360    0.30574981   -3.03736718
     atom   28 type  2   force =    -0.04254148    1.03795970   37.98941996
     atom   29 type  2   force =    -0.25371673   -0.29802350  -37.74416585
     atom   30 type  1   force =    -0.40925791   -1.54452245   -1.28096381
     atom   31 type  2   force =     0.81703474   -0.57898937   36.94832969
     atom   32 type  2   force =    -0.55230198   -0.12881054  -39.13790773
     atom   33 type  1   force =    -1.18727454   -0.82782818   -0.61847109
     atom   34 type  2   force =    -0.33625572   -1.42827467   38.79680512
     atom   35 type  2   force =    -0.22731658    0.41367420  -38.37072302
     atom   36 type  3   force =     2.05996362    1.15165660   49.09644904
     The local contribution  to forces
     atom    1 type  1   force =    -0.89680347   -1.57253231   -4.21043321
     atom    2 type  2   force =     0.16924532   -0.67259137  -38.79390995
     atom    3 type  2   force =     0.03537313   -0.17603158   36.55090398
     atom    4 type  1   force =    -0.20118759   -0.45447671    0.22031915
     atom    5 type  2   force =     0.75114537   -1.61403193  -38.21651397
     atom    6 type  2   force =    -0.36998385    0.43706515   38.22130412
     atom    7 type  1   force =     1.71605671    3.83602018   -0.59894613
     atom    8 type  2   force =     0.81250955    0.31697344  -36.98273419
     atom    9 type  2   force =    -0.41983647    0.21545568   38.25686916
     atom   10 type  1   force =     0.02981877    0.18434977   -3.73235176
     atom   11 type  2   force =    -1.45231430    2.24981029  -37.64901053
     atom   12 type  2   force =    -0.76921833   -0.42372909   38.58266067
     atom   13 type  1   force =    -0.00874754   -2.57712920   -0.77967968
     atom   14 type  2   force =    -0.94134923   -2.29940640  -36.74388736
     atom   15 type  2   force =    -0.22354353   -0.42140096   37.54083401
     atom   16 type  1   force =    -0.21841983   -3.54952268    0.53888160
     atom   17 type  2   force =    -0.69018914   -1.66317240  -37.42849910
     atom   18 type  2   force =     0.20963766    0.53849857   38.79218519
     atom   19 type  1   force =    -1.84587946    3.66042772    1.42784281
     atom   20 type  2   force =    -0.25804126    0.46736353   39.01893574
     atom   21 type  1   force =    -1.09646512   -0.42843651    5.61264502
     atom   22 type  2   force =     3.08417158    5.53493762  -31.91425824
     atom   23 type  2   force =     0.42101702   -0.35600286   39.02063442
     atom   24 type  1   force =     0.65660092   -1.67059331   -4.31384302
     atom   25 type  2   force =     0.56425057   -1.31830784  -38.36143479
     atom   26 type  2   force =     0.42065082   -0.25810243   37.83431532
     atom   27 type  1   force =     0.28488430   -0.30601672    3.03468103
     atom   28 type  2   force =     0.04487599   -1.01955689  -37.73719394
     atom   29 type  2   force =     0.24993361    0.29653251   37.50219167
     atom   30 type  1   force =     0.41777031    1.53305938    1.27665985
     atom   31 type  2   force =    -0.81513676    0.57585850  -36.70170512
     atom   32 type  2   force =     0.54401992    0.14653222   38.88994147
     atom   33 type  1   force =     1.19537394    0.83897308    0.61545453
     atom   34 type  2   force =     0.33165338    1.42186272  -38.55183415
     atom   35 type  2   force =     0.22283467   -0.39680602   38.13378637
     atom   36 type  3   force =    -1.09212203   -0.17199300  -47.52239079
     The core correction contribution to forces
     atom    1 type  1   force =     0.00000000    0.00000000    0.00000000
     atom    2 type  2   force =     0.00006163   -0.00006119    0.02085966
     atom    3 type  2   force =     0.00046854    0.00040749   -0.02077817
     atom    4 type  1   force =     0.00000000    0.00000000    0.00000000
     atom    5 type  2   force =    -0.00057493    0.00167212    0.02050850
     atom    6 type  2   force =     0.00033190   -0.00122858   -0.02080526
     atom    7 type  1   force =     0.00000000    0.00000000    0.00000000
     atom    8 type  2   force =    -0.00023926    0.00024790    0.02060721
     atom    9 type  2   force =    -0.00006253    0.00042506   -0.02101800
     atom   10 type  1   force =     0.00000000    0.00000000    0.00000000
     atom   11 type  2   force =    -0.00209475    0.00005960    0.02134080
     atom   12 type  2   force =     0.00099776    0.00150526   -0.02068311
     atom   13 type  1   force =     0.00000000    0.00000000    0.00000000
     atom   14 type  2   force =    -0.00062133   -0.00215084    0.02152671
     atom   15 type  2   force =     0.00072066    0.00035677   -0.02039537
     atom   16 type  1   force =     0.00000000    0.00000000    0.00000000
     atom   17 type  2   force =    -0.00000320    0.00143139    0.02040127
     atom   18 type  2   force =     0.00003316   -0.00061484   -0.02106768
     atom   19 type  1   force =     0.00000000    0.00000000    0.00000000
     atom   20 type  2   force =     0.00050197    0.00084046   -0.02124517
     atom   21 type  1   force =     0.00000000    0.00000000    0.00000000
     atom   22 type  2   force =    -0.01051964   -0.01104844   -0.00514557
     atom   23 type  2   force =    -0.00063243    0.00145191   -0.02108314
     atom   24 type  1   force =     0.00000000    0.00000000    0.00000000
     atom   25 type  2   force =     0.00011183   -0.00038243    0.02108930
     atom   26 type  2   force =    -0.00018805    0.00070940   -0.02076541
     atom   27 type  1   force =     0.00000000    0.00000000    0.00000000
     atom   28 type  2   force =     0.00017078    0.00164881    0.02119679
     atom   29 type  2   force =    -0.00059211   -0.00067555   -0.02046541
     atom   30 type  1   force =     0.00000000    0.00000000    0.00000000
     atom   31 type  2   force =     0.00019584    0.00001518    0.02069079
     atom   32 type  2   force =    -0.00033554    0.00075365   -0.02110021
     atom   33 type  1   force =     0.00000000    0.00000000    0.00000000
     atom   34 type  2   force =     0.00000014    0.00089545    0.02145683
     atom   35 type  2   force =    -0.00005975    0.00104585   -0.02092281
     atom   36 type  3   force =     0.01142179    0.01135003    0.01579530
     The Hubbard contrib.    to forces
     atom    1 type  1   force =     0.00000000    0.00000000    0.00000000
     atom    2 type  2   force =     0.00000000    0.00000000    0.00000000
     atom    3 type  2   force =     0.00000000    0.00000000    0.00000000
     atom    4 type  1   force =     0.00000000    0.00000000    0.00000000
     atom    5 type  2   force =     0.00000000    0.00000000    0.00000000
     atom    6 type  2   force =     0.00000000    0.00000000    0.00000000
     atom    7 type  1   force =     0.00000000    0.00000000    0.00000000
     atom    8 type  2   force =     0.00000000    0.00000000    0.00000000
     atom    9 type  2   force =     0.00000000    0.00000000    0.00000000
     atom   10 type  1   force =     0.00000000    0.00000000    0.00000000
     atom   11 type  2   force =     0.00000000    0.00000000    0.00000000
     atom   12 type  2   force =     0.00000000    0.00000000    0.00000000
     atom   13 type  1   force =     0.00000000    0.00000000    0.00000000
     atom   14 type  2   force =     0.00000000    0.00000000    0.00000000
     atom   15 type  2   force =     0.00000000    0.00000000    0.00000000
     atom   16 type  1   force =     0.00000000    0.00000000    0.00000000
     atom   17 type  2   force =     0.00000000    0.00000000    0.00000000
     atom   18 type  2   force =     0.00000000    0.00000000    0.00000000
     atom   19 type  1   force =     0.00000000    0.00000000    0.00000000
     atom   20 type  2   force =     0.00000000    0.00000000    0.00000000
     atom   21 type  1   force =     0.00000000    0.00000000    0.00000000
     atom   22 type  2   force =     0.00000000    0.00000000    0.00000000
     atom   23 type  2   force =     0.00000000    0.00000000    0.00000000
     atom   24 type  1   force =     0.00000000    0.00000000    0.00000000
     atom   25 type  2   force =     0.00000000    0.00000000    0.00000000
     atom   26 type  2   force =     0.00000000    0.00000000    0.00000000
     atom   27 type  1   force =     0.00000000    0.00000000    0.00000000
     atom   28 type  2   force =     0.00000000    0.00000000    0.00000000
     atom   29 type  2   force =     0.00000000    0.00000000    0.00000000
     atom   30 type  1   force =     0.00000000    0.00000000    0.00000000
     atom   31 type  2   force =     0.00000000    0.00000000    0.00000000
     atom   32 type  2   force =     0.00000000    0.00000000    0.00000000
     atom   33 type  1   force =     0.00000000    0.00000000    0.00000000
     atom   34 type  2   force =     0.00000000    0.00000000    0.00000000
     atom   35 type  2   force =     0.00000000    0.00000000    0.00000000
     atom   36 type  3   force =     0.00000000    0.00000000    0.00000000
     The SCF correction term to forces
     atom    1 type  1   force =    -0.00027208   -0.00085988    0.00015011
     atom    2 type  2   force =    -0.00028778    0.00004997   -0.00002430
     atom    3 type  2   force =    -0.00001999   -0.00011195    0.00016674
     atom    4 type  1   force =     0.00013391   -0.00019145    0.00004728
     atom    5 type  2   force =    -0.00008361   -0.00005029    0.00029239
     atom    6 type  2   force =     0.00004694   -0.00006746   -0.00014026
     atom    7 type  1   force =    -0.00045752    0.00041563   -0.00000097
     atom    8 type  2   force =    -0.00010400    0.00002267    0.00003888
     atom    9 type  2   force =    -0.00016569    0.00005900    0.00001904
     atom   10 type  1   force =    -0.00072255    0.00016323   -0.00050843
     atom   11 type  2   force =    -0.00027287    0.00017318    0.00010172
     atom   12 type  2   force =    -0.00019990    0.00029390    0.00026793
     atom   13 type  1   force =    -0.00006293   -0.00078142    0.00001220
     atom   14 type  2   force =    -0.00008651   -0.00024176    0.00017296
     atom   15 type  2   force =    -0.00007554   -0.00042041    0.00019821
     atom   16 type  1   force =    -0.00028958    0.00041519    0.00011595
     atom   17 type  2   force =     0.00000536   -0.00001921    0.00007278
     atom   18 type  2   force =    -0.00005047   -0.00009959   -0.00005003
     atom   19 type  1   force =     0.00069067    0.00003166    0.00011017
     atom   20 type  2   force =     0.00001781    0.00007777    0.00017933
     atom   21 type  1   force =     0.00016633    0.00049957   -0.00029420
     atom   22 type  2   force =     0.00042301    0.00051799    0.00047144
     atom   23 type  2   force =     0.00032990    0.00041883   -0.00001443
     atom   24 type  1   force =     0.00020812   -0.00010095   -0.00037893
     atom   25 type  2   force =     0.00037708   -0.00015666    0.00003227
     atom   26 type  2   force =     0.00009471   -0.00005530    0.00010898
     atom   27 type  1   force =     0.00020082   -0.00036318    0.00012918
     atom   28 type  2   force =     0.00004168    0.00001699    0.00009134
     atom   29 type  2   force =    -0.00000711   -0.00023862   -0.00000023
     atom   30 type  1   force =    -0.00039837    0.00011454    0.00006864
     atom   31 type  2   force =     0.00012146   -0.00017767    0.00016412
     atom   32 type  2   force =     0.00013103   -0.00011954   -0.00014285
     atom   33 type  1   force =     0.00041237    0.00083874   -0.00009481
     atom   34 type  2   force =     0.00005347   -0.00004289    0.00020151
     atom   35 type  2   force =    -0.00016539    0.00022847   -0.00009519
     atom   36 type  3   force =     0.00053257    0.00059324   -0.00057552

     Total force =     0.140427     Total SCF correction =     0.002947
     Energy error            =      3.0E-02 Ry
     Gradient error          =      7.1E-02 Ry/Bohr

     number of scf cycles    =   2
     number of bfgs steps    =   1

     energy             old  =   -2246.3102301188 Ry
     energy             new  =   -2246.3404723779 Ry

     CASE: energy            _new < energy            _old

     new trust radius        =       0.1295279137 bohr
     new conv_thr            =       0.0000000706 Ry


ATOMIC_POSITIONS (angstrom)
Mo            6.5843889884        1.7715517453        2.8227797455
S             8.1627745237        0.8266293051        4.4358583888
S             8.1815200337        0.8208612608        1.2699365766
Mo            8.1005690211        4.4994649178        2.7169639164
S             6.4986613021        3.7147504311        4.3379329332
S             6.5534128155        3.5215059607        1.1223219791
Mo            6.4940665749        7.2095902160        2.6622122766
S             8.0820278393        6.3407298598        4.2606817483
S             8.0950388831        6.3111695517        1.0957315655
Mo            8.1506371966        9.9085740490        2.8183747127
S             6.5095195036        8.9386932162        4.3648419709
S             6.6176466608        9.0504860973        1.1422312065
Mo            3.4270579218        1.7450587669        2.7730823925
S             4.9945929524        0.8317214339        4.3477170486
S             5.0459179090        0.8532572852        1.2139511419
Mo            4.9779052545        4.5233940747        2.6388916507
S             3.4351447696        3.6708827429        4.2815386999
S             3.4365894384        3.5452459757        1.0718613826
Mo            3.4795935418        7.1904860590        2.6412758500
S             4.9826962771        6.3233589230        1.0354315191
Mo            5.0315614678        9.9022630521        2.6778762230
S             3.4989382889        9.0001546711        4.3201841123
S             3.4060111373        9.0647469934        1.1070847289
Mo            0.2869700078        1.7454114992        2.8285122094
S             1.8653883201        0.8125358481        4.4068733466
S             1.8490166974        0.8524354795        1.2027558340
Mo            1.8600023813        4.4970855546        2.6703424375
S             0.2726840790        3.6512578197        4.3316011499
S             0.2348313139        3.5277493377        1.1707956303
Mo            0.2672872229        7.2253203781        2.7037955659
S             1.8982842688        6.3087187248        4.2353472936
S             1.8512936984        6.3173047228        1.0507651626
Mo            1.8619686749        9.9532430044        2.7783220331
S             0.2946247286        9.0423702968        4.4003466557
S             0.2667677637        9.0501308630        1.1638388059
O             4.1199599982        9.6473840710        5.5527036430



     Writing config-only to output data dir ./MoS2-V-O.save/
     NEW-OLD atomic charge density approx. for the potential

     negative rho (up, down):  1.400E-04 0.000E+00

     total cpu time spent up to now is      220.3 secs

     Self-consistent Calculation

     iteration #  1     ecut=    80.00 Ry     beta= 0.70
     Davidson diagonalization with overlap
     ethr =  1.00E-06,  avg # of iterations =  8.0

     negative rho (up, down):  2.720E-04 0.000E+00

     total cpu time spent up to now is      237.3 secs

     total energy              =   -2246.36204442 Ry
     estimated scf accuracy    <       0.00283352 Ry

     iteration #  2     ecut=    80.00 Ry     beta= 0.70
     Davidson diagonalization with overlap
     ethr =  9.08E-07,  avg # of iterations =  5.0

     negative rho (up, down):  3.926E-04 0.000E+00

     total cpu time spent up to now is      250.2 secs

     total energy              =   -2246.36252807 Ry
     estimated scf accuracy    <       0.00139612 Ry

     iteration #  3     ecut=    80.00 Ry     beta= 0.70
     Davidson diagonalization with overlap
     ethr =  4.47E-07,  avg # of iterations =  2.0

     negative rho (up, down):  5.901E-04 0.000E+00

     total cpu time spent up to now is      263.5 secs

     total energy              =   -2246.36254005 Ry
     estimated scf accuracy    <       0.00023537 Ry

     iteration #  4     ecut=    80.00 Ry     beta= 0.70
     Davidson diagonalization with overlap
     ethr =  7.54E-08,  avg # of iterations =  5.0

     negative rho (up, down):  6.116E-04 0.000E+00

     total cpu time spent up to now is      276.7 secs

     total energy              =   -2246.36258666 Ry
     estimated scf accuracy    <       0.00007936 Ry

     iteration #  5     ecut=    80.00 Ry     beta= 0.70
     Davidson diagonalization with overlap
     ethr =  2.54E-08,  avg # of iterations =  2.0

     negative rho (up, down):  6.141E-04 0.000E+00

     total cpu time spent up to now is      294.7 secs

     total energy              =   -2246.36258835 Ry
     estimated scf accuracy    <       0.00001905 Ry

     iteration #  6     ecut=    80.00 Ry     beta= 0.70
     Davidson diagonalization with overlap
     ethr =  6.10E-09,  avg # of iterations = 10.0

     negative rho (up, down):  5.771E-04 0.000E+00

     total cpu time spent up to now is      306.8 secs

     total energy              =   -2246.36259237 Ry
     estimated scf accuracy    <       0.00000245 Ry

     iteration #  7     ecut=    80.00 Ry     beta= 0.70
     Davidson diagonalization with overlap
     ethr =  7.85E-10,  avg # of iterations =  4.0

     negative rho (up, down):  4.830E-04 0.000E+00

     total cpu time spent up to now is      321.9 secs

     total energy              =   -2246.36259284 Ry
     estimated scf accuracy    <       0.00000075 Ry

     iteration #  8     ecut=    80.00 Ry     beta= 0.70
     Davidson diagonalization with overlap
     ethr =  2.42E-10,  avg # of iterations =  3.0

     negative rho (up, down):  4.039E-04 0.000E+00

     total cpu time spent up to now is      332.9 secs

     total energy              =   -2246.36259289 Ry
     estimated scf accuracy    <       0.00000039 Ry

     iteration #  9     ecut=    80.00 Ry     beta= 0.70
     Davidson diagonalization with overlap
     ethr =  1.26E-10,  avg # of iterations =  2.0

     negative rho (up, down):  2.988E-04 0.000E+00

     total cpu time spent up to now is      343.7 secs

     total energy              =   -2246.36259288 Ry
     estimated scf accuracy    <       0.00000012 Ry

     iteration # 10     ecut=    80.00 Ry     beta= 0.70
     Davidson diagonalization with overlap
     ethr =  3.86E-11,  avg # of iterations =  5.0

     negative rho (up, down):  1.975E-04 0.000E+00

     total cpu time spent up to now is      348.6 secs

     End of self-consistent calculation

          k = 0.0000 0.0000 0.0000 (105382 PWs)   bands (ev):

   -63.0190 -62.9875 -62.9535 -62.9436 -62.9382 -62.9318 -62.9209 -62.9180
   -62.9070 -62.9036 -62.8874 -62.8117 -37.3461 -37.2992 -37.2681 -37.2654
   -37.2180 -37.2128 -37.2008 -37.1948 -37.1709 -37.1603 -37.1568 -37.1401
   -37.1376 -37.1307 -37.1175 -37.1135 -37.1099 -37.1024 -37.1002 -37.0871
   -37.0808 -37.0780 -37.0679 -37.0611 -37.0517 -37.0324 -37.0222 -37.0136
   -36.9902 -36.9742 -36.9724 -36.9490 -36.9197 -36.8933 -36.8885 -36.8551
   -22.2355 -16.0387 -15.2682 -15.2292 -15.0594 -14.9919 -14.8269 -14.6008
   -14.5589 -14.5374 -14.5172 -14.4883 -14.4306 -14.4138 -14.3032 -14.2434
   -14.2198 -14.1958 -14.1273 -13.9902 -13.9767 -13.9682 -13.9376 -13.7076
    -8.0089  -7.7666  -7.7111  -7.5402  -7.4987  -7.3826  -7.3609  -7.2972
    -7.2173  -7.0531  -7.0018  -6.8977  -6.8644  -6.7860  -6.7189  -6.6758
    -6.5967  -6.5051  -6.4174  -6.3676  -6.1456  -6.0863  -6.0347  -5.9612
    -5.8988  -5.8683  -5.8551  -5.8160  -5.7830  -5.7482  -5.6985  -5.6448
    -5.5977  -5.5602  -5.4473  -5.3210  -5.3029  -5.2161  -5.1620  -5.1124
    -5.1060  -5.0507  -4.9645  -4.9333  -4.7362  -4.6791  -4.5068  -4.4376
    -4.3675  -4.3385  -4.2820  -4.2013  -4.0525  -3.9953  -3.9625  -3.8834
    -3.8316  -3.7902  -3.7287  -3.6886  -3.6583  -3.6246  -3.5629  -3.5572
    -3.5101  -3.4627  -3.3374  -3.3131  -3.1776  -3.1419  -3.0391  -2.9301
    -2.9028  -2.8330  -2.8187  -2.7994  -2.7473  -2.7224  -2.5496  -2.4184
    -2.2432  -2.1012  -2.0911  -1.9880  -1.0671  -0.8277  -0.4564  -0.2682
    -0.2273  -0.1435  -0.0975  -0.0025   0.0332   0.0702   0.1824   0.1858
     0.2735   0.2756   0.3200   0.3496   0.4214   0.4485   0.4856   0.5608
     0.6029   0.6149   0.6639   0.7087   0.7264   0.7798   0.8291   0.8581
     0.9052   1.0108   1.2370

     the Fermi energy is    -1.5275 ev

!    total energy              =   -2246.36259293 Ry
     estimated scf accuracy    <       0.00000002 Ry
     smearing contrib. (-TS)   =      -0.00000012 Ry
     internal energy E=F+TS    =   -2246.36259281 Ry

     The total energy is F=E-TS. E is the sum of the following terms:
     one-electron contribution =  -18428.52723796 Ry
     hartree contribution      =    9201.97466018 Ry
     xc contribution           =    -392.10551384 Ry
     ewald contribution        =    7382.15441367 Ry
     one-center paw contrib.   =      -9.85891486 Ry

     convergence has been achieved in  10 iterations

     negative rho (up, down):  1.975E-04 0.000E+00

     Forces acting on atoms (cartesian axes, Ry/au):

     atom    1 type  1   force =    -0.00015384   -0.00113785   -0.00726270
     atom    2 type  2   force =    -0.00537661    0.00623381   -0.00276051
     atom    3 type  2   force =    -0.00793081    0.00562955   -0.01251603
     atom    4 type  1   force =     0.00339168    0.00148249    0.00171758
     atom    5 type  2   force =     0.00118647   -0.00523266   -0.00575971
     atom    6 type  2   force =     0.00018638    0.00627284    0.00272611
     atom    7 type  1   force =     0.00480354   -0.00667242   -0.00027320
     atom    8 type  2   force =    -0.00037141   -0.00314987    0.00846143
     atom    9 type  2   force =     0.00988229    0.00436353    0.00403915
     atom   10 type  1   force =     0.00083439    0.00469727   -0.00176270
     atom   11 type  2   force =     0.00183613    0.00102781   -0.01846548
     atom   12 type  2   force =     0.00910637   -0.00593645   -0.01463280
     atom   13 type  1   force =     0.00149787    0.00261670   -0.00198997
     atom   14 type  2   force =     0.01081232   -0.00241835   -0.00499325
     atom   15 type  2   force =    -0.00535459    0.00968101   -0.01646301
     atom   16 type  1   force =     0.00155180    0.00458239    0.00208232
     atom   17 type  2   force =     0.00455728   -0.00046468    0.00262102
     atom   18 type  2   force =    -0.00075537   -0.00057591    0.00894026
     atom   19 type  1   force =     0.00473617   -0.00362931    0.01213374
     atom   20 type  2   force =     0.00233673   -0.00447766   -0.00523362
     atom   21 type  1   force =     0.00105111    0.00788418    0.00114495
     atom   22 type  2   force =     0.02246254    0.02544489   -0.02505309
     atom   23 type  2   force =    -0.00293821   -0.00669753    0.00387650
     atom   24 type  1   force =    -0.00187240   -0.00163081   -0.00257060
     atom   25 type  2   force =     0.00565685    0.01378628    0.00120664
     atom   26 type  2   force =    -0.00376282   -0.00039092   -0.00482502
     atom   27 type  1   force =    -0.00089793    0.00021532    0.00401155
     atom   28 type  2   force =    -0.00063061   -0.00385253   -0.00437849
     atom   29 type  2   force =     0.00277344    0.00302212   -0.00243842
     atom   30 type  1   force =     0.00039354   -0.00257514    0.00525070
     atom   31 type  2   force =     0.00074034    0.00009558    0.00922087
     atom   32 type  2   force =    -0.00313563    0.00478031    0.00871000
     atom   33 type  1   force =     0.00022910    0.00438073    0.00731021
     atom   34 type  2   force =    -0.00067349   -0.02089229   -0.01383089
     atom   35 type  2   force =    -0.00179850    0.00650192    0.00565390
     atom   36 type  3   force =    -0.05437412   -0.04296435    0.05610255
     The non-local contrib.  to forces
     atom    1 type  1   force =    -0.00502996    0.02393420   -0.01270336
     atom    2 type  2   force =    -0.00195735   -0.00476700   -0.27207322
     atom    3 type  2   force =    -0.00940396   -0.01187805    0.26296878
     atom    4 type  1   force =     0.00458430    0.00372593    0.00441035
     atom    5 type  2   force =     0.00662756   -0.03106676   -0.25627240
     atom    6 type  2   force =    -0.00299738    0.01097911    0.26463881
     atom    7 type  1   force =    -0.01775473    0.00692251   -0.02329349
     atom    8 type  2   force =     0.00529726    0.00199021   -0.26123553
     atom    9 type  2   force =     0.00475268   -0.00816495    0.27329345
     atom   10 type  1   force =    -0.00066139    0.00255570    0.00496911
     atom   11 type  2   force =     0.02986117    0.00175109   -0.26938528
     atom   12 type  2   force =    -0.00410996   -0.02542315    0.25095688
     atom   13 type  1   force =     0.00701956    0.01893632   -0.00612882
     atom   14 type  2   force =     0.00502166    0.01465246   -0.27613245
     atom   15 type  2   force =    -0.00965299   -0.00427308    0.25525977
     atom   16 type  1   force =     0.00559040    0.02126743   -0.03295517
     atom   17 type  2   force =     0.00124757   -0.02850191   -0.25241738
     atom   18 type  2   force =    -0.00320599   -0.00111407    0.27275906
     atom   19 type  1   force =     0.00871745    0.00817334   -0.01227215
     atom   20 type  2   force =    -0.00413027   -0.02239066    0.26229207
     atom   21 type  1   force =    -0.01143441    0.01473263    0.03618344
     atom   22 type  2   force =     0.16174376    0.16435572    0.22020550
     atom   23 type  2   force =     0.00749727   -0.02306152    0.27000873
     atom   24 type  1   force =     0.00116766    0.01583755   -0.00490565
     atom   25 type  2   force =     0.00150268    0.00317138   -0.26921800
     atom   26 type  2   force =     0.00112718   -0.01191070    0.26145072
     atom   27 type  1   force =    -0.00711116    0.00086504    0.00883056
     atom   28 type  2   force =    -0.00293562   -0.02327830   -0.27881722
     atom   29 type  2   force =     0.00689207    0.00356368    0.26145629
     atom   30 type  1   force =    -0.00928166    0.01556446    0.00814715
     atom   31 type  2   force =    -0.00056388    0.00399846   -0.25913234
     atom   32 type  2   force =     0.00452451   -0.01367902    0.27734652
     atom   33 type  1   force =     0.00344137   -0.00274525    0.01187376
     atom   34 type  2   force =     0.00393239   -0.01676855   -0.28216590
     atom   35 type  2   force =     0.00132684   -0.01179373    0.26511620
     atom   36 type  3   force =    -0.97816543   -0.97411622   -1.65144756
     The ionic contribution  to forces
[...]
     atom   28 type  2   force =     0.00220608   -0.01173763   -0.27732834
     atom   29 type  2   force =    -0.00041407   -0.00942406    0.26814162
     atom   30 type  1   force =    -0.00092877    0.02091892    0.00341166
     atom   31 type  2   force =    -0.00251180    0.00544431   -0.27151347
     atom   32 type  2   force =     0.00803138   -0.01294324    0.26855412
     atom   33 type  1   force =     0.00781640    0.00566728    0.01927222
     atom   34 type  2   force =    -0.00178670   -0.00766282   -0.27832979
     atom   35 type  2   force =     0.00068883   -0.01337437    0.26283224
     atom   36 type  3   force =    -0.04296524   -0.03976179   -2.31432931
     The ionic contribution  to forces
     atom    1 type  1   force =     0.28022508    1.26063113    0.98331526
     atom    2 type  2   force =    -0.18356130    0.39803907   38.45713544
     atom    3 type  2   force =     0.10051005    0.06506764  -38.04054088
     atom    4 type  1   force =    -0.14366520    0.15180978    0.02531154
     atom    5 type  2   force =    -0.67891472    1.09630308   38.08082085
     atom    6 type  2   force =     0.29742678   -0.29138288  -38.49232818
     atom    7 type  1   force =    -2.08452594   -2.50745267    1.32382334
     atom    8 type  2   force =    -1.16819888   -0.16956409   38.04926343
     atom    9 type  2   force =     0.38855087   -0.11159007  -38.26421696
     atom   10 type  1   force =    -0.43466514   -0.08514008    1.47430687
     atom   11 type  2   force =     0.61671768   -1.45792212   37.73946064
     atom   12 type  2   force =     0.25918192    0.22825818  -38.72834518
     atom   13 type  1   force =     0.11484652    1.59878863    1.10337343
     atom   14 type  2   force =     0.58495441    1.04790213   37.89133059
     atom   15 type  2   force =     0.02750871    0.09281957  -38.45909805
     atom   16 type  1   force =     0.38461322    2.91587815    0.50297628
     atom   17 type  2   force =     0.85158465    1.04018153   38.10982759
     atom   18 type  2   force =    -0.28058994   -0.31127917  -38.44388047
     atom   19 type  1   force =     2.78144628   -2.78102240   -0.74044101
     atom   20 type  2   force =     0.10168977   -0.08890961  -39.36831137
     atom   21 type  1   force =     1.02696591    0.25148285   -3.49389219
     atom   22 type  2   force =     0.35017630   -1.62873543   28.41822666
     atom   23 type  2   force =    -0.24881207    0.17337212  -38.54788456
     atom   24 type  1   force =    -0.45234261    1.02502701    1.03697665
     atom   25 type  2   force =    -0.34963476    1.13153362   38.21209765
     atom   26 type  2   force =    -0.09746526    0.13610567  -38.36951910
     atom   27 type  1   force =    -0.22207072   -0.21593568    0.42883368
     atom   28 type  2   force =    -0.15814827    0.44166935   38.05355404
     atom   29 type  2   force =    -0.02357949   -0.03442029  -37.93956963
     atom   30 type  1   force =    -0.57857774   -1.28224183    1.19673431
     atom   31 type  2   force =     0.51333026   -0.88238032   37.84233488
     atom   32 type  2   force =    -0.48866127   -0.08373002  -38.53349476
     atom   33 type  1   force =    -0.62369564    0.19313435   -1.51542426
     atom   34 type  2   force =    -1.02728129   -0.45896771   38.17028676
     atom   35 type  2   force =    -0.04976609    0.01715280  -38.26567497
     atom   36 type  3   force =     0.61442792   -0.87448227   50.10263168
     The local contribution  to forces
     atom    1 type  1   force =    -0.27775433   -1.28350415   -0.97857521
     atom    2 type  2   force =     0.18365304   -0.38681490  -38.20746425
     atom    3 type  2   force =    -0.09828553   -0.05248114   37.79228721
     atom    4 type  1   force =     0.13867592   -0.15770901   -0.02692327
     atom    5 type  2   force =     0.67500033   -1.07539444  -37.84441982
     atom    6 type  2   force =    -0.29775191    0.29381671   38.24782484
     atom    7 type  1   force =     2.09850663    2.50114876   -1.30102085
     atom    8 type  2   force =     1.16006731    0.16630005  -37.80266391
     atom    9 type  2   force =    -0.38228278    0.12229820   38.01515833
     atom   10 type  1   force =     0.43305045    0.07764454   -1.48333095
     atom   11 type  2   force =    -0.62137048    1.45235439  -37.49606679
     atom   12 type  2   force =    -0.25140826   -0.21349694   38.48535471
     atom   13 type  1   force =    -0.11936610   -1.61848603   -1.09668523
     atom   14 type  2   force =    -0.58449200   -1.04186985  -37.63974005
     atom   15 type  2   force =    -0.02679913   -0.08308131   38.21842429
     atom   16 type  1   force =    -0.38982896   -2.94374470   -0.46930711
     atom   17 type  2   force =    -0.84631754   -1.01789077  -37.87352978
     atom   18 type  2   force =     0.28017777    0.31567064   38.19741638
     atom   19 type  1   force =    -2.79831887    2.76731306    0.75007349
     atom   20 type  2   force =    -0.10063369    0.10221235   39.12607383
     atom   21 type  1   force =    -1.01745399   -0.26229946    3.47082320
     atom   22 type  2   force =    -0.36700712    1.61195495  -28.70676937
     atom   23 type  2   force =     0.24119327   -0.16084460   38.29387491
     atom   24 type  1   force =     0.45335456   -1.04179240   -1.03962043
     atom   25 type  2   force =     0.34775412   -1.12181877  -37.96080652
     atom   26 type  2   force =     0.09600672   -0.12580275   38.12629045
     atom   27 type  1   force =     0.22991963    0.21252647   -0.43081243
     atom   28 type  2   force =     0.15649969   -0.43043573  -37.79771789
     atom   29 type  2   force =     0.02405742    0.04300921   37.69212658
     atom   30 type  1   force =     0.57986068    1.26069546   -1.20047465
     atom   31 type  2   force =    -0.51191295    0.87615958  -37.59261131
     atom   32 type  2   force =     0.48155020    0.09716268   38.28581118
     atom   33 type  1   force =     0.61573201   -0.19907203    1.49650594
     atom   34 type  2   force =     1.02845387    0.46528017  -37.91269170
     atom   35 type  2   force =     0.05021313   -0.00490000   38.02334579
     atom   36 type  3   force =    -0.57270165    0.91278199  -47.81417516
     The core correction contribution to forces
     atom    1 type  1   force =     0.00000000    0.00000000    0.00000000
     atom    2 type  2   force =     0.00002709    0.00049788    0.02101697
     atom    3 type  2   force =     0.00018675    0.00054348   -0.02096269
     atom    4 type  1   force =     0.00000000    0.00000000    0.00000000
     atom    5 type  2   force =    -0.00037526    0.00094334    0.02052616
     atom    6 type  2   force =     0.00021574   -0.00027825   -0.02086094
     atom    7 type  1   force =     0.00000000    0.00000000    0.00000000
     atom    8 type  2   force =    -0.00046903    0.00007449    0.02101721
     atom    9 type  2   force =     0.00065386    0.00068696   -0.02102710
     atom   10 type  1   force =     0.00000000    0.00000000    0.00000000
     atom   11 type  2   force =    -0.00012558   -0.00044834    0.02108695
     atom   12 type  2   force =     0.00062131    0.00094986   -0.02082557
     atom   13 type  1   force =     0.00000000    0.00000000    0.00000000
     atom   14 type  2   force =     0.00004432   -0.00001691    0.02133260
     atom   15 type  2   force =    -0.00007479    0.00050665   -0.02069180
     atom   16 type  1   force =     0.00000000    0.00000000    0.00000000
     atom   17 type  2   force =     0.00055357    0.00105430    0.02052969
     atom   18 type  2   force =    -0.00030314   -0.00024171   -0.02089916
     atom   19 type  1   force =     0.00000000    0.00000000    0.00000000
     atom   20 type  2   force =     0.00011153    0.00069014   -0.02119873
     atom   21 type  1   force =     0.00000000    0.00000000    0.00000000
     atom   22 type  2   force =    -0.00109242   -0.00109205   -0.00995551
     atom   23 type  2   force =    -0.00073950    0.00078353   -0.02125778
     atom   24 type  1   force =     0.00000000    0.00000000    0.00000000
     atom   25 type  2   force =    -0.00004033    0.00040075    0.02127785
     atom   26 type  2   force =    -0.00003186    0.00051657   -0.02079615
     atom   27 type  1   force =     0.00000000    0.00000000    0.00000000
     atom   28 type  2   force =    -0.00013431    0.00072463    0.02130685
     atom   29 type  2   force =     0.00007222    0.00033825   -0.02084704
     atom   30 type  1   force =     0.00000000    0.00000000    0.00000000
     atom   31 type  2   force =     0.00009873    0.00004267    0.02127712
     atom   32 type  2   force =    -0.00077791    0.00069905   -0.02100249
     atom   33 type  1   force =     0.00000000    0.00000000    0.00000000
     atom   34 type  2   force =     0.00010886    0.00033528    0.02162057
     atom   35 type  2   force =    -0.00006990    0.00065162   -0.02079001
     atom   36 type  3   force =     0.00045035    0.00039773    0.02454797
     The Hubbard contrib.    to forces
     atom    1 type  1   force =     0.00000000    0.00000000    0.00000000
     atom    2 type  2   force =     0.00000000    0.00000000    0.00000000
     atom    3 type  2   force =     0.00000000    0.00000000    0.00000000
     atom    4 type  1   force =     0.00000000    0.00000000    0.00000000
     atom    5 type  2   force =     0.00000000    0.00000000    0.00000000
     atom    6 type  2   force =     0.00000000    0.00000000    0.00000000
     atom    7 type  1   force =     0.00000000    0.00000000    0.00000000
     atom    8 type  2   force =     0.00000000    0.00000000    0.00000000
     atom    9 type  2   force =     0.00000000    0.00000000    0.00000000
     atom   10 type  1   force =     0.00000000    0.00000000    0.00000000
     atom   11 type  2   force =     0.00000000    0.00000000    0.00000000
     atom   12 type  2   force =     0.00000000    0.00000000    0.00000000
     atom   13 type  1   force =     0.00000000    0.00000000    0.00000000
     atom   14 type  2   force =     0.00000000    0.00000000    0.00000000
     atom   15 type  2   force =     0.00000000    0.00000000    0.00000000
     atom   16 type  1   force =     0.00000000    0.00000000    0.00000000
     atom   17 type  2   force =     0.00000000    0.00000000    0.00000000
     atom   18 type  2   force =     0.00000000    0.00000000    0.00000000
     atom   19 type  1   force =     0.00000000    0.00000000    0.00000000
     atom   20 type  2   force =     0.00000000    0.00000000    0.00000000
     atom   21 type  1   force =     0.00000000    0.00000000    0.00000000
     atom   22 type  2   force =     0.00000000    0.00000000    0.00000000
     atom   23 type  2   force =     0.00000000    0.00000000    0.00000000
     atom   24 type  1   force =     0.00000000    0.00000000    0.00000000
     atom   25 type  2   force =     0.00000000    0.00000000    0.00000000
     atom   26 type  2   force =     0.00000000    0.00000000    0.00000000
     atom   27 type  1   force =     0.00000000    0.00000000    0.00000000
     atom   28 type  2   force =     0.00000000    0.00000000    0.00000000
     atom   29 type  2   force =     0.00000000    0.00000000    0.00000000
     atom   30 type  1   force =     0.00000000    0.00000000    0.00000000
     atom   31 type  2   force =     0.00000000    0.00000000    0.00000000
     atom   32 type  2   force =     0.00000000    0.00000000    0.00000000
     atom   33 type  1   force =     0.00000000    0.00000000    0.00000000
     atom   34 type  2   force =     0.00000000    0.00000000    0.00000000
     atom   35 type  2   force =     0.00000000    0.00000000    0.00000000
     atom   36 type  3   force =     0.00000000    0.00000000    0.00000000
     The SCF correction term to forces
     atom    1 type  1   force =    -0.00000492   -0.00002326   -0.00001794
     atom    2 type  2   force =     0.00000438   -0.00000887    0.00000292
     atom    3 type  2   force =    -0.00000158   -0.00000562   -0.00001125
     atom    4 type  1   force =     0.00001057   -0.00000368    0.00000058
     atom    5 type  2   force =    -0.00000217   -0.00000083    0.00000610
     atom    6 type  2   force =     0.00000349   -0.00000756   -0.00001179
     atom    7 type  1   force =    -0.00001319    0.00002422   -0.00000210
     atom    8 type  2   force =     0.00000248    0.00000315    0.00000799
     atom    9 type  2   force =    -0.00000590    0.00000260   -0.00000496
     atom   10 type  1   force =    -0.00001031    0.00000556   -0.00000630
     atom   11 type  2   force =    -0.00000844    0.00000749    0.00000543
     atom   12 type  2   force =    -0.00000059    0.00000544   -0.00000561
     atom   13 type  1   force =     0.00000468   -0.00002524    0.00001516
     atom   14 type  2   force =    -0.00001067   -0.00001669    0.00001376
     atom   15 type  2   force =     0.00000190   -0.00000941   -0.00000838
     atom   16 type  1   force =    -0.00000671    0.00000105    0.00000290
     atom   17 type  2   force =    -0.00000680   -0.00000308    0.00001230
     atom   18 type  2   force =    -0.00000004   -0.00000583   -0.00000256
     atom   19 type  1   force =     0.00001746    0.00003133    0.00002424
     atom   20 type  2   force =     0.00000327    0.00000975   -0.00000038
     atom   21 type  1   force =    -0.00001017    0.00000104    0.00001150
     atom   22 type  2   force =     0.00000803    0.00001357   -0.00000572
     atom   23 type  2   force =     0.00000539    0.00000325    0.00000952
     atom   24 type  1   force =     0.00000203   -0.00001414   -0.00000685
     atom   25 type  2   force =     0.00000761   -0.00000693    0.00001032
     atom   26 type  2   force =    -0.00000232   -0.00000654   -0.00000258
     atom   27 type  1   force =     0.00000151   -0.00001106    0.00002012
     atom   28 type  2   force =     0.00000608   -0.00000145    0.00000507
     atom   29 type  2   force =    -0.00000493   -0.00000857    0.00000001
     atom   30 type  1   force =    -0.00000108    0.00001775    0.00001553
     atom   31 type  2   force =     0.00000440    0.00000176    0.00000498
     atom   32 type  2   force =     0.00000552    0.00000272    0.00000831
     atom   33 type  1   force =     0.00001981   -0.00000106    0.00001782
     atom   34 type  2   force =     0.00000671    0.00000514    0.00000353
     atom   35 type  2   force =    -0.00000305    0.00001256   -0.00000062
     atom   36 type  3   force =     0.00002148    0.00005336   -0.00000727

     Total force =     0.006301     Total SCF correction =     0.000117
     Energy error            =      7.8E-05 Ry
     Gradient error          =      2.2E-03 Ry/Bohr

     bfgs converged in  21 scf cycles and  20 bfgs steps
     (criteria: energy <  1.0E-04 Ry, force <  1.0E-02 Ry/Bohr)

     End of BFGS Geometry Optimization

     Final energy             =   -2246.4457544604 Ry

     File ./MoS2-V-O.bfgs deleted, as requested
Begin final coordinates

ATOMIC_POSITIONS (angstrom)
Mo            6.5827427090        1.7735679508        2.7509513139
S             8.1549715433        0.8700524541        4.3627631696
S             8.1652710731        0.8596380378        1.1721037853
Mo            8.1448348315        4.5189014438        2.7217309498
S             6.5443919254        3.6777241255        4.3079421661
S             6.5860705717        3.5844127658        1.1111400259
Mo            6.5397060219        7.2034831255        2.6759057665
S             8.1037703219        6.3277763084        4.3158694201
S             8.1663699189        6.3496470935        1.1255084817
Mo            8.1516652972        9.9495882845        2.7677740098
S             6.5289765374        8.9737237969        4.3260013614
S             6.6195820291        9.0366797432        1.1190575370
Mo            3.4498044208        1.7740139704        2.7609040941
S             5.0210020105        0.8306933038        4.3458361620
S             5.0128979584        0.8733061334        1.1487372649
Mo            5.0190332856        4.5508962284        2.6555988710
S             3.5002835340        3.6817495666        4.3157212480
S             3.4530858258        3.5860319569        1.1193215501
Mo            3.4984846818        7.1684104117        2.6690749083
S             5.0298665829        6.3251459939        1.0411677825
Mo            5.0288614265        9.9435376975        2.7100192568
S             3.4654484219        8.9913103350        4.2388080843
S             3.4121568890        9.0438375843        1.1422224092
Mo            0.2882982542        1.7710267619        2.7645661962
S             1.8704700563        0.8741822872        4.3687756722
S             1.8680106470        0.8837863736        1.1635949170
Mo            1.8909089323        4.5207032011        2.7333998164
S             0.2842709975        3.6280469085        4.3278841940
S             0.2909142645        3.5927175976        1.1596776585
Mo            0.2951141556        7.2379793239        2.7551242439
S             1.9477267739        6.3303950203        4.3325878540
S             1.8640991266        6.3341520507        1.1221156092
Mo            1.8444745409        9.9799659760        2.7533933893
S             0.2876347911        9.0583408814        4.3622026708
S             0.2706607236        9.0615310116        1.1695677972
O             3.4934903754        9.0285684829        5.7377118999
End final coordinates



     Writing all to output data dir ./MoS2-V-O.save/
 
     init_run     :      4.71s CPU      5.22s WALL (       1 calls)
     electrons    :   1959.33s CPU   2279.19s WALL (      21 calls)
     update_pot   :     65.19s CPU     70.90s WALL (      20 calls)
     forces       :     65.90s CPU     78.48s WALL (      21 calls)

     Called by init_run:
     wfcinit      :      0.48s CPU      0.54s WALL (       1 calls)
     potinit      :      2.47s CPU      2.71s WALL (       1 calls)
     hinit0       :      0.45s CPU      0.47s WALL (       1 calls)

     Called by electrons:
     c_bands      :    293.64s CPU    301.86s WALL (     194 calls)
     sum_band     :    122.06s CPU    187.48s WALL (     194 calls)
     v_of_rho     :    246.45s CPU    308.23s WALL (     205 calls)
     newd         :     72.81s CPU    124.61s WALL (     205 calls)
     PAW_pot      :      8.11s CPU      8.17s WALL (     225 calls)
     mix_rho      :   1242.74s CPU   1380.79s WALL (     194 calls)

     Called by c_bands:
     init_us_2    :      4.46s CPU      4.81s WALL (     409 calls)
     init_us_2:cp :      4.46s CPU      4.81s WALL (     409 calls)
     regterg      :    279.05s CPU    286.92s WALL (     194 calls)

     Called by *egterg:
     rdiaghg      :     18.32s CPU     18.52s WALL (    1007 calls)
     h_psi        :    175.78s CPU    177.34s WALL (    1038 calls)
     s_psi        :     15.95s CPU     16.01s WALL (    1038 calls)
     g_psi        :      1.74s CPU      1.75s WALL (     843 calls)

     Called by h_psi:
     h_psi:calbec :     18.78s CPU     18.88s WALL (    1038 calls)
     vloc_psi     :    138.38s CPU    139.72s WALL (    1038 calls)
     add_vuspsi   :     16.14s CPU     16.24s WALL (    1038 calls)

     General routines
     calbec       :     27.37s CPU     27.52s WALL (    1336 calls)
     fft          :    168.76s CPU    188.92s WALL (   13732 calls)
     ffts         :    554.25s CPU    687.18s WALL (  303886 calls)
     fftw         :     91.07s CPU     91.89s WALL (  119004 calls)
     interpolate  :      2.54s CPU      2.94s WALL (     205 calls)
 
     Parallel routines
 
     PWSCF        :  35m 5.30s CPU  40m50.63s WALL

 
   This run was terminated on:  22:32:13   1Nov2023            

=------------------------------------------------------------------------------=
   JOB DONE.
=------------------------------------------------------------------------------=
