
     Program PWSCF v.7.2 starts on  1Nov2023 at 18:47:41 

     This program is part of the open-source Quantum ESPRESSO suite
     for quantum simulation of materials; please cite
         "P. Giannozzi et al., J. Phys.:Condens. Matter 21 395502 (2009);
         "P. Giannozzi et al., J. Phys.:Condens. Matter 29 465901 (2017);
         "P. Giannozzi et al., J. Chem. Phys. 152 154105 (2020);
          URL http://www.quantum-espresso.org", 
     in publications or presentations arising from this work. More details at
     http://www.quantum-espresso.org/quote

     Parallel version (MPI & OpenMP), running on      48 processor cores
     Number of MPI processes:                48
     Threads/MPI process:                     1

     MPI processes distributed on     1 nodes
     19278 MiB available memory on the printing compute node when the environment starts
 
     Waiting for input...
     Reading input from standard input
Warning: card &CELL ignored
Warning: card CELL_DYNAMICS = 'BFGS', ignored
Warning: card CELL_DOFREE = '2DXY' ignored
Warning: card / ignored

     Current dimensions of program PWSCF are:
     Max number of different atomic species (ntypx) = 10
     Max number of k-points (npk) =  40000
     Max angular momentum in pseudopotentials (lmaxx) =  4
     file O.pbe-n-kjpaw_psl.0.1.UPF: wavefunction(s)  2P renormalized

     IMPORTANT: XC functional enforced from input :
     Exchange-correlation= RVV10
                           (   1   4  13   4  26   0   0)
     Any further DFT definition will be discarded
     Please, verify this is what you really want


     gamma-point specific algorithms are used
     signal trapping enabled: kill the code with -SIGUSR1 to stop cleanly the simulation 
 
     R & G space division:  proc/nbgrp/npool/nimage =      48
     Subspace diagonalization in iterative solution of the eigenvalue problem:
     one sub-group per band group will be used
     scalapack distributed-memory algorithm (size of sub-group:  2*  2 procs)

 
     Parallelization info
     --------------------
     sticks:   dense  smooth     PW     G-vecs:    dense   smooth      PW
     Min         396     194     47               101632    35090    4376
     Max         398     196     50               101674    35128    4410
     Sum       19091    9389   2349              4879585  1685513  210763
 
     Using Slab Decomposition
 


     bravais-lattice index     =            0
     lattice parameter (alat)  =      17.8707  a.u.
     unit-cell volume          =   17436.2743 (a.u.)^3
     number of atoms/cell      =           36
     number of atomic types    =            3
     number of electrons       =       312.00
     number of Kohn-Sham states=          187
     kinetic-energy cutoff     =      80.0000  Ry
     charge density cutoff     =     650.0000  Ry
     scf convergence threshold =      1.0E-06
     mixing beta               =       0.7000
     number of iterations used =            8  local-TF  mixing
     energy convergence thresh.=      1.0E-04
     force convergence thresh. =      1.0E-02
     Exchange-correlation= RVV10
                           (   1   4  13   4  26   0   0)
     nstep                     =          200


     celldm(1)=  17.870686  celldm(2)=   0.000000  celldm(3)=   0.000000
     celldm(4)=   0.000000  celldm(5)=   0.000000  celldm(6)=   0.000000

     crystal axes: (cart. coord. in units of alat)
               a(1) = (   1.000000   0.000000   0.000000 )  
               a(2) = (   0.000000   1.155671   0.000000 )  
               a(3) = (   0.000000   0.000000   2.643601 )  

     reciprocal axes: (cart. coord. in units 2 pi/alat)
               b(1) = (  1.000000  0.000000  0.000000 )  
               b(2) = (  0.000000  0.865298  0.000000 )  
               b(3) = (  0.000000  0.000000  0.378272 )  


     PseudoPot. # 1 for Mo read from file:
     ../pseudo/Mo_ONCV_PBE-1.0.oncvpsp.upf
     MD5 check sum: 1b5d28e075c9ccadda658a603575cd1f
     Pseudo is Norm-conserving, Zval = 14.0
     Generated using ONCVPSP code by D. R. Hamann
     Using radial grid of 1526 points,  6 beta functions with: 
                l(1) =   0
                l(2) =   0
                l(3) =   1
                l(4) =   1
                l(5) =   2
                l(6) =   2

     PseudoPot. # 2 for S  read from file:
     ../pseudo/s_pbe_v1.4.uspp.F.UPF
     MD5 check sum: 88d86576ff6df21479756cfb9bdac1df
     Pseudo is Ultrasoft + core correction, Zval =  6.0
     Generated by new atomic code, or converted to UPF format
     Using radial grid of  907 points,  6 beta functions with: 
                l(1) =   0
                l(2) =   0
                l(3) =   1
                l(4) =   1
                l(5) =   2
                l(6) =   2
     Q(r) pseudized with  8 coefficients,  rinner =    1.300   1.300   1.300
                                                       1.300   1.300

     PseudoPot. # 3 for O  read from file:
     ../pseudo/O.pbe-n-kjpaw_psl.0.1.UPF
     MD5 check sum: 0234752ac141de4415c5fc33072bef88
     Pseudo is Projector augmented-wave + core cor, Zval =  6.0
     Generated using "atomic" code by A. Dal Corso  v.5.0.99 svn rev. 10869
     Shape of augmentation charge: BESSEL
     Using radial grid of 1095 points,  4 beta functions with: 
                l(1) =   0
                l(2) =   0
                l(3) =   1
                l(4) =   1
     Q(r) pseudized with 0 coefficients 


     atomic species   valence    mass     pseudopotential
        Mo            14.00    95.94000     Mo( 1.00)
        S              6.00    32.06500     S ( 1.00)
        O              6.00    15.99940     O ( 1.00)

     No symmetry found



   Cartesian axes

     site n.     atom                  positions (alat units)
         1           Mo  tau(   1) = (   0.6952221   0.1890506   0.2985846  )
         2           S   tau(   2) = (   0.8646417   0.0856217   0.4689279  )
         3           S   tau(   3) = (   0.8663890   0.0857843   0.1351291  )
         4           Mo  tau(   4) = (   0.8560186   0.4753274   0.2873942  )
         5           S   tau(   5) = (   0.6873294   0.3936244   0.4596353  )
         6           S   tau(   6) = (   0.6929804   0.3713468   0.1185692  )
         7           Mo  tau(   7) = (   0.6862796   0.7633098   0.2825370  )
         8           S   tau(   8) = (   0.8545980   0.6708292   0.4486168  )
         9           S   tau(   9) = (   0.8545123   0.6666874   0.1146125  )
        10           Mo  tau(  10) = (   0.8629403   1.0471007   0.3006803  )
        11           S   tau(  11) = (   0.6868280   0.9456650   0.4634891  )
        12           S   tau(  12) = (   0.6998113   0.9568511   0.1205389  )
        13           Mo  tau(  13) = (   0.3618216   0.1847309   0.2935964  )
        14           S   tau(  14) = (   0.5260962   0.0863870   0.4600448  )
        15           S   tau(  15) = (   0.5348379   0.0894875   0.1297123  )
        16           Mo  tau(  16) = (   0.5265817   0.4772436   0.2784130  )
        17           S   tau(  17) = (   0.3624753   0.3882513   0.4525556  )
        18           S   tau(  18) = (   0.3635411   0.3752055   0.1119148  )
        19           Mo  tau(  19) = (   0.3652268   0.7630864   0.2781795  )
        20           S   tau(  20) = (   0.5269494   0.6690381   0.1096838  )
        21           Mo  tau(  21) = (   0.5300192   1.0470394   0.2900995  )
        22           S   tau(  22) = (   0.3670346   0.9457522   0.4574073  )
        23           S   tau(  23) = (   0.3604225   0.9585725   0.1159032  )
        24           Mo  tau(  24) = (   0.0313099   0.1847895   0.3013130  )
        25           S   tau(  25) = (   0.1956761   0.0838230   0.4650863  )
        26           S   tau(  26) = (   0.1967693   0.0903508   0.1278874  )
        27           Mo  tau(  27) = (   0.1967578   0.4753919   0.2813011  )
        28           S   tau(  28) = (   0.0287851   0.3864324   0.4586755  )
        29           S   tau(  29) = (   0.0244514   0.3729871   0.1239344  )
        30           Mo  tau(  30) = (   0.0286728   0.7631204   0.2856894  )
        31           S   tau(  31) = (   0.2011512   0.6675435   0.4465001  )
        32           S   tau(  32) = (   0.1969214   0.6672839   0.1104564  )
        33           Mo  tau(  33) = (   0.1950294   1.0511147   0.2932237  )
        34           S   tau(  34) = (   0.0312912   0.9612169   0.4667423  )
        35           S   tau(  35) = (   0.0292670   0.9563028   0.1216485  )
        36           O   tau(  36) = (   0.0000000   0.7704471   0.5792558  )

     number of k points=     1  Gaussian smearing, width (Ry)=  0.0100
                       cart. coord. in units 2pi/alat
        k(    1) = (   0.0000000   0.0000000   0.0000000), wk =   2.0000000

     Dense  grid:  2439793 G-vectors     FFT dimensions: ( 150, 180, 384)

     Smooth grid:   842757 G-vectors     FFT dimensions: ( 108, 120, 270)

     Estimated max dynamical RAM per process >     269.22 MB

     Estimated total dynamical RAM >      12.62 GB

     Initial potential from superposition of free atoms

     starting charge     311.9873, renormalised to     312.0000

     negative rho (up, down):  2.750E-04 0.000E+00


---------------------------------------------------------------------------------
Carrying out rVV10 run using the following parameters:
Nqs =      20    Nr_points =    1024   r_max =   100.000
b_value =  6.30000    beta =  0.00901
     q_mesh =  0.00010000  0.00030000  0.00058939  0.00100810
               0.00161396  0.00249058  0.00375900  0.00559430
               0.00824984  0.01209221  0.01765183  0.02569619
               0.03733578  0.05417739  0.07854596  0.11380545
               0.16482331  0.23864234  0.34545298  0.50000000

Gradients computed in Reciprocal space

---------------------------------------------------------------------------------


     Starting wfcs are  216 randomized atomic wfcs
     Checking if some PAW data can be deallocated... 

     total cpu time spent up to now is        5.4 secs

     Self-consistent Calculation

     iteration #  1     ecut=    80.00 Ry     beta= 0.70
     Davidson diagonalization with overlap
     ethr =  1.00E-02,  avg # of iterations =  2.0

     Threshold (ethr) on eigenvalues was too large:
     Diagonalizing with lowered threshold

     Davidson diagonalization with overlap
     ethr =  4.61E-04,  avg # of iterations =  3.0

     negative rho (up, down):  3.609E-08 0.000E+00

     total cpu time spent up to now is       22.9 secs

     total energy              =   -2246.10331130 Ry
     estimated scf accuracy    <       1.66969487 Ry

     iteration #  2     ecut=    80.00 Ry     beta= 0.70
     Davidson diagonalization with overlap
     ethr =  5.35E-04,  avg # of iterations =  5.0

     negative rho (up, down):  7.603E-08 0.000E+00

     total cpu time spent up to now is       31.0 secs

     total energy              =   -2246.06649835 Ry
     estimated scf accuracy    <       2.91280515 Ry

     iteration #  3     ecut=    80.00 Ry     beta= 0.70
     Davidson diagonalization with overlap
     ethr =  5.35E-04,  avg # of iterations =  2.0

     total cpu time spent up to now is       36.0 secs

     total energy              =   -2246.12823374 Ry
     estimated scf accuracy    <       0.39199609 Ry

     iteration #  4     ecut=    80.00 Ry     beta= 0.70
     Davidson diagonalization with overlap
     ethr =  1.26E-04,  avg # of iterations =  4.0

     total cpu time spent up to now is       40.8 secs

     total energy              =   -2246.17966281 Ry
     estimated scf accuracy    <       0.09010014 Ry

     iteration #  5     ecut=    80.00 Ry     beta= 0.70
     Davidson diagonalization with overlap
     ethr =  2.89E-05,  avg # of iterations = 11.0

     total cpu time spent up to now is       45.7 secs

     total energy              =   -2246.18381111 Ry
     estimated scf accuracy    <       0.02992869 Ry

     iteration #  6     ecut=    80.00 Ry     beta= 0.70
     Davidson diagonalization with overlap
     ethr =  9.59E-06,  avg # of iterations = 18.0

     total cpu time spent up to now is       50.7 secs

     total energy              =   -2246.18370212 Ry
     estimated scf accuracy    <       0.01402518 Ry

     iteration #  7     ecut=    80.00 Ry     beta= 0.70
     Davidson diagonalization with overlap
     ethr =  4.50E-06,  avg # of iterations =  5.0

     total cpu time spent up to now is       55.1 secs

     total energy              =   -2246.18327077 Ry
     estimated scf accuracy    <       0.01124590 Ry

     iteration #  8     ecut=    80.00 Ry     beta= 0.70
     Davidson diagonalization with overlap
     ethr =  3.60E-06,  avg # of iterations =  2.0

     negative rho (up, down):  1.703E-05 0.000E+00

     total cpu time spent up to now is       60.9 secs

     total energy              =   -2246.18207900 Ry
     estimated scf accuracy    <       0.00710228 Ry

     iteration #  9     ecut=    80.00 Ry     beta= 0.70
     Davidson diagonalization with overlap
     ethr =  2.28E-06,  avg # of iterations =  2.0

     negative rho (up, down):  1.117E-02 0.000E+00

     total cpu time spent up to now is       67.6 secs

     total energy              =   -2246.18142892 Ry
     estimated scf accuracy    <       0.00318998 Ry

     iteration # 10     ecut=    80.00 Ry     beta= 0.70
     Davidson diagonalization with overlap
     ethr =  1.02E-06,  avg # of iterations =  2.0

     negative rho (up, down):  1.571E-02 0.000E+00

     total cpu time spent up to now is       74.5 secs

     total energy              =   -2246.18126773 Ry
     estimated scf accuracy    <       0.00163229 Ry

     iteration # 11     ecut=    80.00 Ry     beta= 0.70
     Davidson diagonalization with overlap
     ethr =  5.23E-07,  avg # of iterations =  2.0

     negative rho (up, down):  2.046E-02 0.000E+00

     total cpu time spent up to now is       81.5 secs

     total energy              =   -2246.18139918 Ry
     estimated scf accuracy    <       0.00067664 Ry

     iteration # 12     ecut=    80.00 Ry     beta= 0.70
     Davidson diagonalization with overlap
     ethr =  2.17E-07,  avg # of iterations =  5.0

     negative rho (up, down):  9.282E-03 0.000E+00

     total cpu time spent up to now is       89.3 secs

     total energy              =   -2246.18133790 Ry
     estimated scf accuracy    <       0.00012407 Ry

     iteration # 13     ecut=    80.00 Ry     beta= 0.70
     Davidson diagonalization with overlap
     ethr =  3.98E-08,  avg # of iterations =  8.0

     negative rho (up, down):  4.371E-03 0.000E+00

     total cpu time spent up to now is       97.9 secs

     total energy              =   -2246.18141048 Ry
     estimated scf accuracy    <       0.00004472 Ry

     iteration # 14     ecut=    80.00 Ry     beta= 0.70
     Davidson diagonalization with overlap
     ethr =  1.43E-08,  avg # of iterations =  2.0

     negative rho (up, down):  8.987E-04 0.000E+00

     total cpu time spent up to now is      106.7 secs

     total energy              =   -2246.18142923 Ry
     estimated scf accuracy    <       0.00001613 Ry

     iteration # 15     ecut=    80.00 Ry     beta= 0.70
     Davidson diagonalization with overlap
     ethr =  5.17E-09,  avg # of iterations =  5.0

     negative rho (up, down):  6.993E-04 0.000E+00

     total cpu time spent up to now is      121.0 secs

     total energy              =   -2246.18143767 Ry
     estimated scf accuracy    <       0.00000802 Ry

     iteration # 16     ecut=    80.00 Ry     beta= 0.70
     Davidson diagonalization with overlap
     ethr =  2.57E-09,  avg # of iterations =  2.0

     negative rho (up, down):  3.178E-04 0.000E+00

     total cpu time spent up to now is      128.6 secs

     total energy              =   -2246.18144372 Ry
     estimated scf accuracy    <       0.00000210 Ry

     iteration # 17     ecut=    80.00 Ry     beta= 0.70
     Davidson diagonalization with overlap
     ethr =  6.73E-10,  avg # of iterations =  5.0

     negative rho (up, down):  1.811E-04 0.000E+00

     total cpu time spent up to now is      133.3 secs

     End of self-consistent calculation

          k = 0.0000 0.0000 0.0000 (105382 PWs)   bands (ev):

   -63.0127 -62.9832 -62.9745 -62.9679 -62.9629 -62.9525 -62.9396 -62.9242
   -62.9126 -62.9075 -62.8942 -62.8788 -37.3442 -37.2846 -37.2734 -37.2671
   -37.2482 -37.2288 -37.2080 -37.1954 -37.1855 -37.1818 -37.1774 -37.1628
   -37.1595 -37.1575 -37.1492 -37.1344 -37.1317 -37.1261 -37.1204 -37.1069
   -37.0979 -37.0950 -37.0748 -37.0592 -37.0499 -37.0457 -37.0400 -37.0267
   -37.0211 -37.0059 -36.9873 -36.9777 -36.9649 -36.9204 -36.8851 -36.8383
   -19.0825 -16.0411 -15.3530 -15.2156 -15.1224 -14.9968 -14.8670 -14.7618
   -14.6329 -14.5756 -14.5119 -14.4573 -14.4425 -14.4042 -14.3712 -14.3148
   -14.2446 -14.2243 -14.1927 -14.1005 -14.0357 -13.9741 -13.9425 -13.9244
    -7.8656  -7.5835  -7.5675  -7.4954  -7.4168  -7.3148  -7.2959  -7.2406
    -7.0518  -6.9344  -6.8937  -6.8831  -6.8002  -6.7137  -6.6645  -6.6155
    -6.5709  -6.4966  -6.3811  -6.3552  -6.1288  -6.0933  -6.0186  -5.9629
    -5.9548  -5.8901  -5.8550  -5.7954  -5.7880  -5.7444  -5.6639  -5.6405
    -5.6189  -5.5547  -5.5312  -5.3351  -5.2428  -5.2146  -5.1725  -5.1276
    -5.0822  -5.0546  -5.0023  -4.8034  -4.7500  -4.6732  -4.5412  -4.4262
    -4.3868  -4.3600  -4.2307  -4.1841  -4.0727  -4.0149  -3.9722  -3.9211
    -3.8691  -3.8242  -3.7382  -3.6658  -3.6304  -3.6172  -3.6005  -3.5559
    -3.5086  -3.4799  -3.3897  -3.3199  -3.1034  -3.0863  -3.0271  -2.9440
    -2.9184  -2.8433  -2.7971  -2.7781  -2.7548  -2.6942  -2.3864  -2.2562
    -2.1432  -2.1281  -1.9439  -1.5494  -1.4330  -0.9318  -0.7214  -0.3079
    -0.2476  -0.1933  -0.1729  -0.0883   0.0571   0.1036   0.1295   0.1369
     0.1714   0.2403   0.3052   0.3495   0.4098   0.4256   0.4480   0.4917
     0.5520   0.6296   0.6491   0.6732   0.6766   0.7510   0.7916   0.8341
     0.8913   0.9665   1.0420

     the Fermi energy is    -1.4912 ev

!    total energy              =   -2246.18144291 Ry
     estimated scf accuracy    <       0.00000095 Ry
     smearing contrib. (-TS)   =      -0.00939728 Ry
     internal energy E=F+TS    =   -2246.17204563 Ry

     The total energy is F=E-TS. E is the sum of the following terms:
     one-electron contribution =  -18429.04697397 Ry
     hartree contribution      =    9202.33807599 Ry
     xc contribution           =    -391.84560639 Ry
     ewald contribution        =    7382.26011485 Ry
     one-center paw contrib.   =      -9.87765611 Ry

     convergence has been achieved in  17 iterations

     negative rho (up, down):  1.811E-04 0.000E+00

     Forces acting on atoms (cartesian axes, Ry/au):

     atom    1 type  1   force =     0.01326176   -0.02656658    0.00698832
     atom    2 type  2   force =    -0.01641444    0.01844226    0.00289046
     atom    3 type  2   force =    -0.01122027    0.01272355   -0.00538704
     atom    4 type  1   force =    -0.00195536    0.00143354   -0.00754992
     atom    5 type  2   force =    -0.00049431   -0.00692644   -0.00523320
     atom    6 type  2   force =     0.00360197    0.00994749    0.00023097
     atom    7 type  1   force =     0.01054018   -0.01426014   -0.00587572
     atom    8 type  2   force =     0.01196571    0.00492301    0.02870399
     atom    9 type  2   force =     0.01280212    0.00493734    0.01185442
     atom   10 type  1   force =    -0.01371672   -0.00476626   -0.01975970
     atom   11 type  2   force =     0.00422369    0.00231312   -0.00447153
     atom   12 type  2   force =     0.00217882    0.00072664    0.00480690
     atom   13 type  1   force =     0.00575278    0.00483809   -0.00675468
     atom   14 type  2   force =     0.00796484   -0.00075216    0.01335668
     atom   15 type  2   force =    -0.01232379    0.00284877   -0.00778230
     atom   16 type  1   force =    -0.00112833    0.01565232    0.00462757
     atom   17 type  2   force =     0.00376368    0.00043570    0.00230067
     atom   18 type  2   force =    -0.00373452   -0.00679171    0.01280796
     atom   19 type  1   force =     0.00113499   -0.02082953   -0.00354824
     atom   20 type  2   force =     0.00347922   -0.00398921    0.00102863
     atom   21 type  1   force =    -0.00805885    0.00937205   -0.00254984
     atom   22 type  2   force =    -0.00032285    0.00190421    0.00063423
     atom   23 type  2   force =    -0.00119437    0.00154193    0.00779991
     atom   24 type  1   force =    -0.00997461   -0.00848348   -0.02289368
     atom   25 type  2   force =     0.01691863    0.01830513    0.01130437
     atom   26 type  2   force =    -0.01008614   -0.00152235   -0.00516119
     atom   27 type  1   force =     0.00682870    0.00421797    0.00530795
     atom   28 type  2   force =     0.00124754   -0.00282367   -0.00266495
     atom   29 type  2   force =     0.00442118   -0.00237060   -0.00493592
     atom   30 type  1   force =     0.00382854   -0.01495315   -0.02868427
     atom   31 type  2   force =     0.02705518   -0.00889853   -0.00972362
     atom   32 type  2   force =    -0.01008729    0.00636083    0.00734973
     atom   33 type  1   force =     0.01651832   -0.00830672   -0.01993029
     atom   34 type  2   force =    -0.00216559   -0.02599399    0.02510238
     atom   35 type  2   force =    -0.00767487    0.00946293    0.01658953
     atom   36 type  3   force =    -0.04693556    0.02784764   -0.00077858
     The non-local contrib.  to forces
     atom    1 type  1   force =    -0.00250708    0.03025426   -0.01233874
     atom    2 type  2   force =    -0.00978598    0.00378762   -0.27436185
     atom    3 type  2   force =    -0.01421591   -0.00185004    0.27050347
     atom    4 type  1   force =    -0.00041113    0.01915549    0.00262224
     atom    5 type  2   force =     0.00511075   -0.03179864   -0.25486390
     atom    6 type  2   force =    -0.00152792    0.01119571    0.26338672
     atom    7 type  1   force =    -0.02931073   -0.02142208   -0.02293464
     atom    8 type  2   force =     0.15484666    0.10438795   -0.08318884
     atom    9 type  2   force =     0.01070475   -0.00708041    0.27908295
     atom   10 type  1   force =     0.01060445    0.00312087   -0.00198750
     atom   11 type  2   force =     0.01134745    0.00757662   -0.26399390
     atom   12 type  2   force =    -0.00606031   -0.01377114    0.25982478
     atom   13 type  1   force =    -0.00170510    0.01970019   -0.00795060
     atom   14 type  2   force =     0.01148366   -0.01150095   -0.26337785
     atom   15 type  2   force =    -0.01295142   -0.00513619    0.25977589
     atom   16 type  1   force =    -0.00031568    0.02989400   -0.03088613
     atom   17 type  2   force =     0.00026243   -0.02568832   -0.25168731
     atom   18 type  2   force =    -0.00410719   -0.00262253    0.27389139
     atom   19 type  1   force =     0.01430296   -0.01597700   -0.01921182
     atom   20 type  2   force =     0.00005666   -0.02146195    0.26775863
     atom   21 type  1   force =    -0.00049235    0.02842218    0.00866338
     atom   22 type  2   force =    -0.00576028    0.00410296   -0.26205665
     atom   23 type  2   force =     0.00471416   -0.01135896    0.26623333
     atom   24 type  1   force =     0.01177859    0.02602209   -0.01380951
     atom   25 type  2   force =     0.00787976    0.00644764   -0.26250266
     atom   26 type  2   force =    -0.00403173   -0.01330505    0.26457645
     atom   27 type  1   force =    -0.00237603    0.01326215    0.01201275
     atom   28 type  2   force =    -0.00333231   -0.02523882   -0.27565405
     atom   29 type  2   force =     0.00650169    0.00196221    0.26391752
     atom   30 type  1   force =     0.00033854    0.01079336    0.00626477
     atom   31 type  2   force =     0.01498324   -0.00514660   -0.26345278
     atom   32 type  2   force =    -0.00764914   -0.00742989    0.27330533
     atom   33 type  1   force =     0.00046548   -0.00391412    0.01033336
     atom   34 type  2   force =    -0.03776225   -0.25717602   -0.19443954
     atom   35 type  2   force =    -0.00249705   -0.01260408    0.27065415
     atom   36 type  3   force =    -0.22027502    0.17679909   -0.47186873
     The ionic contribution  to forces
     atom    1 type  1   force =     0.12540949    0.23949806    4.71234678
     atom    2 type  2   force =    -0.85081443    0.84356160   39.00103632
     atom    3 type  2   force =    -0.22250905    0.13968185  -36.65373338
     atom    4 type  1   force =    -0.57418543   -0.86782509   -1.45120671
     atom    5 type  2   force =    -1.28774424    1.02277243   38.45255911
     atom    6 type  2   force =     0.26480272   -0.63397265  -38.57230998
     atom    7 type  1   force =    -3.95828900   -2.81610386    0.23269223
     atom    8 type  2   force =    -3.94093294   -2.04407654   34.54497742
     atom    9 type  2   force =     0.16817388   -0.18382351  -38.99550637
     atom   10 type  1   force =    -1.87488913    1.35136541    3.34121771
     atom   11 type  2   force =    -1.53568507   -0.91829304   38.57607844
     atom   12 type  2   force =     0.28144994    0.85467957  -38.57777350
     atom   13 type  1   force =     0.68728572    1.00935984    1.89849223
     atom   14 type  2   force =     0.02661983    0.17061505   38.31385884
     atom   15 type  2   force =     0.14219057    0.00627342  -37.28220857
     atom   16 type  1   force =    -0.12139378    3.38236106   -0.75076036
     atom   17 type  2   force =     1.05164974    1.11738858   37.65461669
     atom   18 type  2   force =    -0.09813674   -0.76472762  -39.09313454
     atom   19 type  1   force =     3.68070866   -2.47399160   -1.31690058
     atom   20 type  2   force =     0.20044837   -0.26814955  -39.12702372
     atom   21 type  1   force =    -0.08551976    0.64863526   -0.07701786
     atom   22 type  2   force =     1.11266843   -1.22200733   37.97400034
     atom   23 type  2   force =     0.03476922    0.80428738  -38.95548258
     atom   24 type  1   force =    -0.49226540    1.18595579    4.67113109
     atom   25 type  2   force =     0.88314838    0.66311611   39.00009610
     atom   26 type  2   force =    -0.21846146    0.16905821  -37.87826107
     atom   27 type  1   force =     0.75103810   -0.80441371   -4.16402373
     atom   28 type  2   force =     0.13278725   -0.01049872   37.72359515
     atom   29 type  2   force =    -0.25096685   -0.63289325  -37.91669695
     atom   30 type  1   force =     0.18776945   -1.03776588   -6.27607862
     atom   31 type  2   force =     3.53421683   -1.29493569   35.60101539
     atom   32 type  2   force =    -0.28808955   -0.13404418  -39.54637878
     atom   33 type  1   force =     1.62641756    0.48175151    0.05220607
     atom   34 type  2   force =     0.84011759    2.28306941   37.04387104
     atom   35 type  2   force =    -0.26366503    0.74277601  -38.80298632
     atom   36 type  3   force =     0.33187614   -1.00868434   46.64369267
     The local contribution  to forces
     atom    1 type  1   force =    -0.10967843   -0.29638187   -4.69361644
     atom    2 type  2   force =     0.84395602   -0.82873989  -38.74461629
     atom    3 type  2   force =     0.22485345   -0.12518983   36.39799575
     atom    4 type  1   force =     0.57273881    0.85022119    1.44026468
     atom    5 type  2   force =     1.28264936   -0.99964388  -38.22324848
     atom    6 type  2   force =    -0.25998316    0.63380677   38.32925289
     atom    7 type  1   force =     3.99796173    2.82317694   -0.21629804
     atom    8 type  2   force =     3.80531958    1.94932731  -34.44544805
     atom    9 type  2   force =    -0.16568818    0.19550740   38.74865620
     atom   10 type  1   force =     1.85055412   -1.35931279   -3.35967405
     atom   11 type  2   force =     1.52903199    0.91360410  -38.33740995
     atom   12 type  2   force =    -0.27398688   -0.84140372   38.34267745
     atom   13 type  1   force =    -0.67978182   -1.02416605   -1.89795107
     atom   14 type  2   force =    -0.02953981   -0.16002294  -38.05768583
     atom   15 type  2   force =    -0.14225120    0.00133618   37.03439480
     atom   16 type  1   force =     0.12046527   -3.39634611    0.78557807
     atom   17 type  2   force =    -1.04821782   -1.09261782  -37.42087036
     atom   18 type  2   force =     0.09844259    0.76111645   38.85235420
     atom   19 type  1   force =    -3.69377471    2.46908695    1.33187720
     atom   20 type  2   force =    -0.19713024    0.28480035   38.88087631
     atom   21 type  1   force =     0.07792272   -0.66774560    0.06507959
     atom   22 type  2   force =    -1.10736215    1.22023331  -37.73196869
     atom   23 type  2   force =    -0.04023133   -0.79254243   38.71708464
     atom   24 type  1   force =     0.47053498   -1.22036750   -4.68083284
     atom   25 type  2   force =    -0.87409562   -0.65081572  -38.74695688
     atom   26 type  2   force =     0.21247792   -0.15800813   37.62866757
     atom   27 type  1   force =    -0.74181495    0.79543478    4.15647446
     atom   28 type  2   force =    -0.12844083    0.03106402  -37.47155321
     atom   29 type  2   force =     0.24950895    0.62917170   37.66763730
     atom   30 type  1   force =    -0.18422528    1.01205560    6.24038577
     atom   31 type  2   force =    -3.52077978    1.29060483  -35.36897845
     atom   32 type  2   force =     0.28550276    0.14741341   39.30071976
     atom   33 type  1   force =    -1.61034628   -0.48635005   -0.08310377
     atom   34 type  2   force =    -0.80650105   -2.06355488  -36.84166952
     atom   35 type  2   force =     0.25854911   -0.72178458   38.56929809
     atom   36 type  3   force =    -0.16097863    0.86189844  -46.17745836
     The core correction contribution to forces
     atom    1 type  1   force =     0.00000000    0.00000000    0.00000000
     atom    2 type  2   force =     0.00021687   -0.00018682    0.02097954
     atom    3 type  2   force =     0.00063678    0.00003410   -0.02091992
     atom    4 type  1   force =     0.00000000    0.00000000    0.00000000
     atom    5 type  2   force =    -0.00057680    0.00175117    0.02048570
     atom    6 type  2   force =     0.00028134   -0.00109381   -0.02089873
     atom    7 type  1   force =     0.00000000    0.00000000    0.00000000
     atom    8 type  2   force =    -0.00722934   -0.00460240    0.01249618
     atom    9 type  2   force =    -0.00034249    0.00039359   -0.02112469
     atom   10 type  1   force =     0.00000000    0.00000000    0.00000000
     atom   11 type  2   force =    -0.00049677   -0.00062250    0.02100219
     atom   12 type  2   force =     0.00078902    0.00122290   -0.02069292
     atom   13 type  1   force =     0.00000000    0.00000000    0.00000000
     atom   14 type  2   force =    -0.00059845    0.00011872    0.02069690
     atom   15 type  2   force =     0.00069694    0.00033997   -0.02052431
     atom   16 type  1   force =     0.00000000    0.00000000    0.00000000
     atom   17 type  2   force =     0.00008620    0.00138353    0.02035988
     atom   18 type  2   force =     0.00005318   -0.00054617   -0.02105384
     atom   19 type  1   force =     0.00000000    0.00000000    0.00000000
     atom   20 type  2   force =     0.00009542    0.00082951   -0.02127273
     atom   21 type  1   force =     0.00000000    0.00000000    0.00000000
     atom   22 type  2   force =     0.00012037   -0.00048067    0.02077717
     atom   23 type  2   force =    -0.00045354    0.00113673   -0.02077853
     atom   24 type  1   force =     0.00000000    0.00000000    0.00000000
     atom   25 type  2   force =    -0.00000538   -0.00046993    0.02082320
     atom   26 type  2   force =    -0.00008426    0.00071647   -0.02093140
     atom   27 type  1   force =     0.00000000    0.00000000    0.00000000
     atom   28 type  2   force =     0.00027525    0.00185246    0.02108852
     atom   29 type  2   force =    -0.00058405   -0.00061169   -0.02056515
     atom   30 type  1   force =     0.00000000    0.00000000    0.00000000
     atom   31 type  2   force =    -0.00137768    0.00064726    0.02179194
     atom   32 type  2   force =     0.00011168    0.00044795   -0.02100403
     atom   33 type  1   force =     0.00000000    0.00000000    0.00000000
     atom   34 type  2   force =     0.00201492    0.01152415    0.01747589
     atom   35 type  2   force =    -0.00006346    0.00102337   -0.02112627
     atom   36 type  3   force =     0.00242443   -0.00205563    0.00460594
     The Hubbard contrib.    to forces
     atom    1 type  1   force =     0.00000000    0.00000000    0.00000000
     atom    2 type  2   force =     0.00000000    0.00000000    0.00000000
     atom    3 type  2   force =     0.00000000    0.00000000    0.00000000
     atom    4 type  1   force =     0.00000000    0.00000000    0.00000000
     atom    5 type  2   force =     0.00000000    0.00000000    0.00000000
     atom    6 type  2   force =     0.00000000    0.00000000    0.00000000
     atom    7 type  1   force =     0.00000000    0.00000000    0.00000000
     atom    8 type  2   force =     0.00000000    0.00000000    0.00000000
     atom    9 type  2   force =     0.00000000    0.00000000    0.00000000
     atom   10 type  1   force =     0.00000000    0.00000000    0.00000000
     atom   11 type  2   force =     0.00000000    0.00000000    0.00000000
     atom   12 type  2   force =     0.00000000    0.00000000    0.00000000
     atom   13 type  1   force =     0.00000000    0.00000000    0.00000000
     atom   14 type  2   force =     0.00000000    0.00000000    0.00000000
     atom   15 type  2   force =     0.00000000    0.00000000    0.00000000
     atom   16 type  1   force =     0.00000000    0.00000000    0.00000000
     atom   17 type  2   force =     0.00000000    0.00000000    0.00000000
     atom   18 type  2   force =     0.00000000    0.00000000    0.00000000
     atom   19 type  1   force =     0.00000000    0.00000000    0.00000000
     atom   20 type  2   force =     0.00000000    0.00000000    0.00000000
     atom   21 type  1   force =     0.00000000    0.00000000    0.00000000
     atom   22 type  2   force =     0.00000000    0.00000000    0.00000000
     atom   23 type  2   force =     0.00000000    0.00000000    0.00000000
     atom   24 type  1   force =     0.00000000    0.00000000    0.00000000
     atom   25 type  2   force =     0.00000000    0.00000000    0.00000000
     atom   26 type  2   force =     0.00000000    0.00000000    0.00000000
     atom   27 type  1   force =     0.00000000    0.00000000    0.00000000
     atom   28 type  2   force =     0.00000000    0.00000000    0.00000000
     atom   29 type  2   force =     0.00000000    0.00000000    0.00000000
     atom   30 type  1   force =     0.00000000    0.00000000    0.00000000
     atom   31 type  2   force =     0.00000000    0.00000000    0.00000000
     atom   32 type  2   force =     0.00000000    0.00000000    0.00000000
     atom   33 type  1   force =     0.00000000    0.00000000    0.00000000
     atom   34 type  2   force =     0.00000000    0.00000000    0.00000000
     atom   35 type  2   force =     0.00000000    0.00000000    0.00000000
     atom   36 type  3   force =     0.00000000    0.00000000    0.00000000
     The SCF correction term to forces
     atom    1 type  1   force =     0.00003694    0.00006354    0.00056901
     atom    2 type  2   force =     0.00001224    0.00002032   -0.00017498
     atom    3 type  2   force =     0.00001362    0.00004804    0.00073933
     atom    4 type  1   force =    -0.00009845   -0.00011749    0.00074215
     atom    5 type  2   force =     0.00006577   -0.00000696   -0.00019335
     atom    6 type  2   force =     0.00002815    0.00001204    0.00077235
     atom    7 type  1   force =     0.00017734    0.00008943    0.00063702
     atom    8 type  2   force =    -0.00003908   -0.00011274   -0.00016043
     atom    9 type  2   force =    -0.00004669   -0.00005916    0.00071862
     atom   10 type  1   force =     0.00001300    0.00006083    0.00065644
     atom   11 type  2   force =     0.00002525    0.00004851   -0.00017601
     atom   12 type  2   force =    -0.00001379   -0.00000040    0.00074338
     atom   13 type  1   force =    -0.00004686   -0.00005531    0.00062705
     atom   14 type  2   force =    -0.00000121    0.00003853   -0.00016310
     atom   15 type  2   force =    -0.00000952    0.00003594    0.00075219
     atom   16 type  1   force =     0.00011502   -0.00025606    0.00066828
     atom   17 type  2   force =    -0.00001771   -0.00002970   -0.00014593
     atom   18 type  2   force =     0.00001280   -0.00001127    0.00072305
     atom   19 type  1   force =    -0.00010275    0.00005269    0.00065926
     atom   20 type  2   force =     0.00000818   -0.00000701    0.00066244
     atom   21 type  1   force =     0.00002972    0.00006077    0.00069735
     atom   22 type  2   force =     0.00000994    0.00005650   -0.00014565
     atom   23 type  2   force =     0.00000629    0.00001978    0.00071535
     atom   24 type  1   force =    -0.00002362   -0.00009329    0.00058988
     atom   25 type  2   force =    -0.00000935    0.00002759   -0.00018309
     atom   26 type  2   force =     0.00001256    0.00001671    0.00075956
     atom   27 type  1   force =    -0.00001927   -0.00006468    0.00081676
     atom   28 type  2   force =    -0.00004267   -0.00000206   -0.00016908
     atom   29 type  2   force =    -0.00003940    0.00000100    0.00074365
     atom   30 type  1   force =    -0.00005500   -0.00003566    0.00071610
     atom   31 type  2   force =     0.00001173   -0.00006776   -0.00012741
     atom   32 type  2   force =     0.00003612   -0.00002589    0.00067974
     atom   33 type  1   force =    -0.00001929    0.00020651    0.00060634
     atom   34 type  2   force =    -0.00003562    0.00014392   -0.00016319
     atom   35 type  2   force =     0.00000071    0.00005279    0.00072218
     atom   36 type  3   force =     0.00001668   -0.00010935    0.00022218

     Total force =     0.124854     Total SCF correction =     0.003522

     BFGS Geometry Optimization
     Energy error            =      0.0E+00 Ry
     Gradient error          =      4.7E-02 Ry/Bohr

     number of scf cycles    =   1
     number of bfgs steps    =   0

     energy             new  =   -2246.1814429084 Ry

     new trust radius        =       0.0545806184 bohr
     new conv_thr            =       0.0000010000 Ry


ATOMIC_POSITIONS (angstrom)
Mo            6.5815662271        1.7737477993        2.8273410909
S             8.1680231904        0.8194632469        4.4360679159
S             8.1872955749        0.8179747579        1.2750327248
Mo            8.0941278333        4.4958155412        2.7138231472
S             6.4996476793        3.7187461717        4.3438913569
S             6.5552558776        3.5170015392        1.1214024539
Mo            6.4955593207        7.2108911445        2.6687751897
S             8.0880597118        6.3464761378        4.2576510584
S             8.0876922385        6.3073150429        1.0901360866
Mo            8.1533604736        9.8996582192        2.8330053798
S             6.4974026788        8.9441508641        4.3807393024
S             6.6191001814        9.0490957347        1.1424510034
Mo            3.4247039028        1.7495160574        2.7728967388
S             4.9793803042        0.8165431849        4.3576011420
S             5.0513122835        0.8477696107        1.2225402454
Mo            4.9791595932        4.5214608560        2.6353333531
S             3.4298333157        3.6718302482        4.2809270420
S             3.4359443582        3.5446346814        1.0651293618
Mo            3.4544623533        7.2053020284        2.6287992157
S             4.9850753178        6.3248212849        1.0377980604
Mo            5.0079993628        9.9065595265        2.7420516424
S             3.4707872698        8.9447589341        4.3259269309
S             3.4077971332        9.0658059398        1.1001958358
Mo            0.2908121503        1.7430202664        2.8373298973
S             1.8594151641        0.8023806655        4.4041914545
S             1.8554626801        0.8536203245        1.2066696686
Mo            1.8643049013        4.4978988140        2.6630062265
S             0.2728740190        3.6529046027        4.3361738687
S             0.2335707970        3.5259947606        1.1694059049
Mo            0.2731781282        7.2087332296        2.6865173665
S             1.9165552338        6.3080899359        4.2172986055
S             1.8569002516        6.3137098159        1.0484485934
Mo            1.8530877803        9.9357434263        2.7623995963
S             0.2947669201        9.0762423994        4.4271530740
S             0.2727100313        9.0485332794        1.1591795830
O            -0.0248372269        7.3006696718        5.4774714193



     Writing config-only to output data dir ./MoS2-V-O.save/
     NEW-OLD atomic charge density approx. for the potential

     negative rho (up, down):  1.792E-04 0.000E+00

     total cpu time spent up to now is      141.7 secs

     Self-consistent Calculation

     iteration #  1     ecut=    80.00 Ry     beta= 0.70
     Davidson diagonalization with overlap
     ethr =  1.00E-06,  avg # of iterations =  9.0

     negative rho (up, down):  2.113E-04 0.000E+00

     total cpu time spent up to now is      155.6 secs

     total energy              =   -2246.19430747 Ry
     estimated scf accuracy    <       0.00350102 Ry

     iteration #  2     ecut=    80.00 Ry     beta= 0.70
     Davidson diagonalization with overlap
     ethr =  1.12E-06,  avg # of iterations =  2.0

     negative rho (up, down):  1.720E-04 0.000E+00

     total cpu time spent up to now is      170.0 secs

     total energy              =   -2246.19453872 Ry
     estimated scf accuracy    <       0.00181270 Ry

     iteration #  3     ecut=    80.00 Ry     beta= 0.70
     Davidson diagonalization with overlap
     ethr =  5.81E-07,  avg # of iterations =  3.0

     negative rho (up, down):  1.638E-04 0.000E+00

     total cpu time spent up to now is      182.3 secs

     total energy              =   -2246.19465958 Ry
     estimated scf accuracy    <       0.00021470 Ry

     iteration #  4     ecut=    80.00 Ry     beta= 0.70
     Davidson diagonalization with overlap
     ethr =  6.88E-08,  avg # of iterations =  3.0

     negative rho (up, down):  1.507E-04 0.000E+00

     total cpu time spent up to now is      194.7 secs

     total energy              =   -2246.19469028 Ry
     estimated scf accuracy    <       0.00007916 Ry

     iteration #  5     ecut=    80.00 Ry     beta= 0.70
     Davidson diagonalization with overlap
     ethr =  2.54E-08,  avg # of iterations =  6.0

     negative rho (up, down):  1.477E-04 0.000E+00

     total cpu time spent up to now is      208.5 secs

     total energy              =   -2246.19470116 Ry
     estimated scf accuracy    <       0.00000322 Ry

     iteration #  6     ecut=    80.00 Ry     beta= 0.70
     Davidson diagonalization with overlap
     ethr =  1.03E-09,  avg # of iterations =  6.0

     negative rho (up, down):  1.478E-04 0.000E+00

     total cpu time spent up to now is      221.1 secs

     total energy              =   -2246.19470387 Ry
     estimated scf accuracy    <       0.00000191 Ry

     iteration #  7     ecut=    80.00 Ry     beta= 0.70
     Davidson diagonalization with overlap
     ethr =  6.14E-10,  avg # of iterations =  2.0

     negative rho (up, down):  1.861E-04 0.000E+00

     total cpu time spent up to now is      225.9 secs

     End of self-consistent calculation

          k = 0.0000 0.0000 0.0000 (105382 PWs)   bands (ev):

   -62.9935 -62.9806 -62.9782 -62.9722 -62.9613 -62.9517 -62.9362 -62.9276
   -62.9159 -62.9122 -62.8917 -62.8805 -37.3438 -37.2819 -37.2679 -37.2634
   -37.2463 -37.2320 -37.2053 -37.1894 -37.1827 -37.1761 -37.1706 -37.1616
   -37.1595 -37.1581 -37.1452 -37.1343 -37.1317 -37.1255 -37.1165 -37.1076
   -37.0996 -37.0966 -37.0740 -37.0564 -37.0476 -37.0462 -37.0371 -37.0289
   -37.0208 -37.0092 -36.9872 -36.9743 -36.9654 -36.9230 -36.8832 -36.8413
   -19.2071 -16.0397 -15.3451 -15.2182 -15.1270 -14.9912 -14.8602 -14.7606
   -14.6244 -14.5734 -14.5160 -14.4622 -14.4487 -14.4059 -14.3667 -14.3086
   -14.2420 -14.2228 -14.1971 -14.0917 -14.0233 -13.9831 -13.9464 -13.9193
    -7.8646  -7.5800  -7.5736  -7.5001  -7.4045  -7.3245  -7.2973  -7.2521
    -7.0721  -6.9399  -6.8927  -6.8829  -6.7912  -6.7263  -6.6715  -6.6352
    -6.5633  -6.5070  -6.3862  -6.3593  -6.1301  -6.0886  -6.0165  -5.9560
    -5.9504  -5.8903  -5.8533  -5.7920  -5.7861  -5.7483  -5.6669  -5.6306
    -5.6276  -5.5451  -5.5115  -5.3349  -5.2427  -5.2043  -5.1507  -5.1293
    -5.0891  -5.0600  -5.0076  -4.8174  -4.7559  -4.6702  -4.5318  -4.4360
    -4.3757  -4.3576  -4.2463  -4.1958  -4.0998  -4.0221  -3.9653  -3.9150
    -3.8620  -3.8163  -3.7397  -3.6754  -3.6335  -3.6227  -3.6079  -3.5567
    -3.5002  -3.4887  -3.3863  -3.3271  -3.0897  -3.0735  -3.0170  -2.9338
    -2.9158  -2.8371  -2.7987  -2.7845  -2.7623  -2.6917  -2.3872  -2.2838
    -2.1654  -2.1349  -1.9705  -1.5527  -1.4117  -0.9069  -0.7296  -0.2978
    -0.2602  -0.1806  -0.1646  -0.0866   0.0514   0.1058   0.1233   0.1445
     0.1811   0.2521   0.3100   0.3539   0.4188   0.4274   0.4482   0.4934
     0.5747   0.6156   0.6487   0.6662   0.6727   0.7457   0.7970   0.8454
     0.8867   0.9571   1.0334

     the Fermi energy is    -1.4822 ev

!    total energy              =   -2246.19470360 Ry
     estimated scf accuracy    <       0.00000047 Ry
     smearing contrib. (-TS)   =      -0.00862858 Ry
     internal energy E=F+TS    =   -2246.18607502 Ry

     The total energy is F=E-TS. E is the sum of the following terms:
     one-electron contribution =  -18427.44348807 Ry
     hartree contribution      =    9201.56361794 Ry
     xc contribution           =    -391.84196663 Ry
     ewald contribution        =    7381.41324214 Ry
     one-center paw contrib.   =      -9.87748041 Ry

     convergence has been achieved in   7 iterations

     negative rho (up, down):  1.861E-04 0.000E+00

     Forces acting on atoms (cartesian axes, Ry/au):

     atom    1 type  1   force =     0.00310710   -0.01344614    0.00097373
     atom    2 type  2   force =    -0.01055409    0.01135190   -0.00043696
     atom    3 type  2   force =    -0.01059410    0.00795062   -0.00923015
     atom    4 type  1   force =     0.00023991    0.00118458   -0.00147568
     atom    5 type  2   force =     0.00062979   -0.00609632   -0.00568288
     atom    6 type  2   force =     0.00190788    0.00622900    0.00260025
     atom    7 type  1   force =     0.00776514   -0.00729822    0.00101790
     atom    8 type  2   force =     0.01895846    0.00568519    0.02267128
     atom    9 type  2   force =     0.01056813    0.00259237    0.00496680
     atom   10 type  1   force =    -0.00642347   -0.00103918   -0.00313898
     atom   11 type  2   force =     0.00236496    0.00099408   -0.00788362
     atom   12 type  2   force =    -0.00009143   -0.00059649    0.00137098
     atom   13 type  1   force =     0.00413016    0.00296605   -0.00184488
     atom   14 type  2   force =     0.00542936   -0.00064551    0.00933688
     atom   15 type  2   force =    -0.00851631    0.00284224   -0.00655232
     atom   16 type  1   force =     0.00020276    0.00852519    0.00397691
     atom   17 type  2   force =     0.00429314    0.00034931    0.00245854
     atom   18 type  2   force =    -0.00156690   -0.00374849    0.01021684
     atom   19 type  1   force =     0.00481898   -0.01063449   -0.00206940
     atom   20 type  2   force =     0.00413318   -0.00392731   -0.00243620
     atom   21 type  1   force =    -0.00505819    0.00366157    0.00173795
     atom   22 type  2   force =    -0.00013989    0.00017990   -0.00260585
     atom   23 type  2   force =     0.00029336   -0.00116174    0.00361144
     atom   24 type  1   force =    -0.00483666   -0.00594571   -0.00886812
     atom   25 type  2   force =     0.01167828    0.01300143    0.00154610
     atom   26 type  2   force =    -0.00619966   -0.00144290   -0.00643644
     atom   27 type  1   force =     0.00381191   -0.00133448    0.00308651
     atom   28 type  2   force =     0.00035970   -0.00382962   -0.00565662
     atom   29 type  2   force =     0.00423695   -0.00055915   -0.00486518
     atom   30 type  1   force =     0.00310882   -0.01024815   -0.01746908
     atom   31 type  2   force =     0.01836970   -0.00643393   -0.00583014
     atom   32 type  2   force =    -0.00660584    0.00311813    0.00141021
     atom   33 type  1   force =     0.00908758   -0.00408174   -0.00295680
     atom   34 type  2   force =    -0.00417793   -0.02700933    0.01580983
     atom   35 type  2   force =    -0.00620930    0.00749497    0.00978573
     atom   36 type  3   force =    -0.04852148    0.03135234   -0.00113858
     The non-local contrib.  to forces
     atom    1 type  1   force =    -0.00074118    0.02707040   -0.01279752
     atom    2 type  2   force =    -0.00588466   -0.00173886   -0.27443421
     atom    3 type  2   force =    -0.01260692   -0.00666940    0.26706561
     atom    4 type  1   force =    -0.00035041    0.02140311    0.00115017
     atom    5 type  2   force =     0.00574618   -0.03173632   -0.25611348
     atom    6 type  2   force =    -0.00306456    0.00765262    0.26596541
     atom    7 type  1   force =    -0.02866092   -0.02281181   -0.02361292
     atom    8 type  2   force =     0.16466951    0.11414189   -0.07100030
     atom    9 type  2   force =     0.00908434   -0.00917486    0.27496201
     atom   10 type  1   force =     0.00986768    0.00361265   -0.00425038
     atom   11 type  2   force =     0.00819229    0.00644527   -0.26630185
     atom   12 type  2   force =    -0.00752329   -0.01447527    0.25844393
     atom   13 type  1   force =    -0.00091701    0.02142094   -0.00846199
     atom   14 type  2   force =     0.00978770   -0.01114350   -0.26519253
     atom   15 type  2   force =    -0.01015959   -0.00566257    0.25962251
     atom   16 type  1   force =    -0.00036399    0.03263191   -0.03240930
     atom   17 type  2   force =     0.00087454   -0.02502847   -0.25225920
     atom   18 type  2   force =    -0.00214343   -0.00050259    0.27243544
     atom   19 type  1   force =     0.01474281   -0.01524065   -0.01993212
     atom   20 type  2   force =     0.00063491   -0.02036813    0.26492439
     atom   21 type  1   force =    -0.00147872    0.03053290    0.00746401
     atom   22 type  2   force =    -0.00440383    0.00126386   -0.26438838
     atom   23 type  2   force =     0.00605538   -0.01266884    0.26418477
     atom   24 type  1   force =     0.01000638    0.02730165   -0.01313188
     atom   25 type  2   force =     0.00384838    0.00230226   -0.26805712
     atom   26 type  2   force =    -0.00112508   -0.01339816    0.26485449
     atom   27 type  1   force =    -0.00203679    0.01421677    0.01067139
     atom   28 type  2   force =    -0.00347511   -0.02558709   -0.27783336
     atom   29 type  2   force =     0.00567846    0.00179253    0.26543564
     atom   30 type  1   force =     0.00013543    0.00844778    0.00927590
     atom   31 type  2   force =     0.01423748   -0.00773989   -0.26022998
     atom   32 type  2   force =    -0.00430146   -0.00982754    0.26931564
     atom   33 type  1   force =     0.00312549   -0.00555410    0.00816285
     atom   34 type  2   force =    -0.04392837   -0.27290865   -0.18480710
     atom   35 type  2   force =    -0.00114808   -0.01466373    0.26724633
     atom   36 type  3   force =    -0.24072488    0.20249390   -0.49187723
     The ionic contribution  to forces
     atom    1 type  1   force =    -0.10506329    0.55806738    4.84818172
     atom    2 type  2   force =    -0.63822822    0.71740064   39.05596488
     atom    3 type  2   force =    -0.21092182    0.10568459  -36.74026407
     atom    4 type  1   force =    -0.54472958   -0.97750492   -1.44334419
     atom    5 type  2   force =    -1.26619191    1.00063222   38.37489223
     atom    6 type  2   force =     0.18730324   -0.71532738  -38.47970760
     atom    7 type  1   force =    -4.02356634   -2.59850157    0.23915857
     atom    8 type  2   force =    -3.93400868   -2.13535926   34.64864041
     atom    9 type  2   force =     0.10613561   -0.21218732  -39.00642247
     atom   10 type  1   force =    -1.49023224    1.34021807    3.18894951
     atom   11 type  2   force =    -1.56231326   -0.93333914   38.50689147
     atom   12 type  2   force =     0.18065361    0.80875732  -38.54493973
     atom   13 type  1   force =     0.60564144    0.95158835    1.86079205
     atom   14 type  2   force =    -0.05748387    0.19026904   38.40341036
     atom   15 type  2   force =     0.17223702    0.06257024  -37.32799343
     atom   16 type  1   force =     0.01235286    3.08122836   -0.55642115
     atom   17 type  2   force =     1.04772401    1.03995538   37.69880881
     atom   18 type  2   force =    -0.06097807   -0.75686601  -39.02901638
     atom   19 type  1   force =     3.79008171   -2.09978117   -1.30886240
     atom   20 type  2   force =     0.20891965   -0.22365235  -39.19218647
     atom   21 type  1   force =    -0.07916401    0.46872661   -0.02669849
     atom   22 type  2   force =     1.07005195   -1.24108024   37.96846020
     atom   23 type  2   force =     0.09748585    0.72848479  -38.91910664
     atom   24 type  1   force =    -0.27068563    1.06958520    4.36687244
     atom   25 type  2   force =     0.75108196    0.57635594   38.95242143
     atom   26 type  2   force =    -0.18494808    0.18220057  -37.84153858
     atom   27 type  1   force =     0.58761018   -1.04697116   -3.92491094
     atom   28 type  2   force =     0.12723965   -0.06735528   37.67757449
     atom   29 type  2   force =    -0.21781244   -0.60089846  -37.89848142
     atom   30 type  1   force =     0.19944750   -0.81495916   -6.56209617
     atom   31 type  2   force =     3.33277413   -1.14495326   35.70891357
     atom   32 type  2   force =    -0.21938773   -0.17084344  -39.60203217
     atom   33 type  1   force =     1.29796718    0.59601978   -0.01025010
     atom   34 type  2   force =     0.92952137    2.49936410   36.94053620
     atom   35 type  2   force =    -0.24291659    0.78729173  -38.66251529
     atom   36 type  3   force =     0.40440283   -1.02482023   46.63631934
     The local contribution  to forces
     atom    1 type  1   force =     0.10868814   -0.59812897   -4.83439904
     atom    2 type  2   force =     0.63350866   -0.70426800  -38.80302847
     atom    3 type  2   force =     0.21234011   -0.09121297   36.48477326
     atom    4 type  1   force =     0.54494173    0.95704571    1.44064881
     atom    5 type  2   force =     1.26160063   -0.97680391  -38.14520444
     atom    6 type  2   force =    -0.18275441    0.71489736   38.23737393
     atom    7 type  1   force =     4.06002540    2.61388874   -0.21457621
     atom    8 type  2   force =     3.79584055    2.03197554  -34.56683929
     atom    9 type  2   force =    -0.10446873    0.22336752   38.75744754
     atom   10 type  1   force =     1.47393377   -1.34495955   -3.18768683
     atom   11 type  2   force =     1.55685540    0.92845292  -38.26971691
     atom   12 type  2   force =    -0.17408023   -0.79616926   38.30853091
     atom   13 type  1   force =    -0.60033414   -0.96955152   -1.85404698
     atom   14 type  2   force =     0.05360908   -0.17970836  -38.14970355
     atom   15 type  2   force =    -0.17117416   -0.05426934   37.08233183
     atom   16 type  1   force =    -0.01155766   -3.10585906    0.59268242
     atom   17 type  2   force =    -1.04422987   -1.01613783  -37.46461889
     atom   18 type  2   force =     0.06169389    0.75420825   38.78785464
     atom   19 type  1   force =    -3.79957202    2.10443822    1.32646575
     atom   20 type  2   force =    -0.20541989    0.23920515   38.94594887
     atom   21 type  1   force =     0.07554365   -0.49562571    0.02094107
     atom   22 type  2   force =    -1.06577055    1.24051302  -37.72766732
     atom   23 type  2   force =    -0.10265277   -0.71814703   38.67926083
     atom   24 type  1   force =     0.25598168   -1.10268905   -4.36251314
     atom   25 type  2   force =    -0.74342678   -0.56527533  -38.70387384
     atom   26 type  2   force =     0.18007402   -0.17081766   37.59123646
     atom   27 type  1   force =    -0.58169543    1.03070157    3.91706119
     atom   28 type  2   force =    -0.12370735    0.08709881  -37.42674421
     atom   29 type  2   force =     0.21693318    0.59910434   37.64879245
     atom   30 type  1   force =    -0.19689811    0.79614160    6.53512338
     atom   31 type  2   force =    -3.32711173    1.14533334  -35.47635469
     atom   32 type  2   force =     0.21714878    0.18311891   39.35485845
     atom   33 type  1   force =    -1.29201182   -0.59434615   -0.00065744
     atom   34 type  2   force =    -0.89217577   -2.26569520  -36.75670301
     atom   35 type  2   force =     0.23794450   -0.76619809   38.42607449
     atom   36 type  3   force =    -0.21538073    0.85630157  -46.15070378
     The core correction contribution to forces
     atom    1 type  1   force =     0.00000000    0.00000000    0.00000000
     atom    2 type  2   force =     0.00016561   -0.00001774    0.02101914
     atom    3 type  2   force =     0.00054541    0.00024477   -0.02086663
     atom    4 type  1   force =     0.00000000    0.00000000    0.00000000
     atom    5 type  2   force =    -0.00060580    0.00171380    0.02048404
     atom    6 type  2   force =     0.00028323   -0.00100142   -0.02093293
     atom    7 type  1   force =     0.00000000    0.00000000    0.00000000
     atom    8 type  2   force =    -0.00780822   -0.00515800    0.01163392
     atom    9 type  2   force =    -0.00031146    0.00046764   -0.02106787
     atom   10 type  1   force =     0.00000000    0.00000000    0.00000000
     atom   11 type  2   force =    -0.00036611   -0.00059696    0.02106564
     atom   12 type  2   force =     0.00075490    0.00120766   -0.02064828
     atom   13 type  1   force =     0.00000000    0.00000000    0.00000000
     atom   14 type  2   force =    -0.00058028    0.00012978    0.02077174
     atom   15 type  2   force =     0.00060826    0.00041134   -0.02053824
     atom   16 type  1   force =     0.00000000    0.00000000    0.00000000
     atom   17 type  2   force =     0.00006765    0.00131473    0.02038445
     atom   18 type  2   force =    -0.00002060   -0.00061623   -0.02102779
     atom   19 type  1   force =     0.00000000    0.00000000    0.00000000
     atom   20 type  2   force =     0.00007932    0.00080849   -0.02120424
     atom   21 type  1   force =     0.00000000    0.00000000    0.00000000
     atom   22 type  2   force =     0.00005426   -0.00039699    0.02085326
     atom   23 type  2   force =    -0.00044647    0.00110699   -0.02073636
     atom   24 type  1   force =     0.00000000    0.00000000    0.00000000
     atom   25 type  2   force =     0.00012125   -0.00030007    0.02094721
     atom   26 type  2   force =    -0.00017811    0.00074552   -0.02093745
     atom   27 type  1   force =     0.00000000    0.00000000    0.00000000
     atom   28 type  2   force =     0.00027195    0.00180683    0.02113198
     atom   29 type  2   force =    -0.00050771   -0.00053935   -0.02060611
     atom   30 type  1   force =     0.00000000    0.00000000    0.00000000
     atom   31 type  2   force =    -0.00140233    0.00083116    0.02165237
     atom   32 type  2   force =    -0.00000409    0.00051646   -0.02092478
     atom   33 type  1   force =     0.00000000    0.00000000    0.00000000
     atom   34 type  2   force =     0.00233426    0.01254324    0.01659822
     atom   35 type  2   force =    -0.00013099    0.00113868   -0.02101044
     atom   36 type  3   force =     0.00263752   -0.00235034    0.00480711
     The Hubbard contrib.    to forces
     atom    1 type  1   force =     0.00000000    0.00000000    0.00000000
     atom    2 type  2   force =     0.00000000    0.00000000    0.00000000
     atom    3 type  2   force =     0.00000000    0.00000000    0.00000000
     atom    4 type  1   force =     0.00000000    0.00000000    0.00000000
     atom    5 type  2   force =     0.00000000    0.00000000    0.00000000
     atom    6 type  2   force =     0.00000000    0.00000000    0.00000000
     atom    7 type  1   force =     0.00000000    0.00000000    0.00000000
     atom    8 type  2   force =     0.00000000    0.00000000    0.00000000
     atom    9 type  2   force =     0.00000000    0.00000000    0.00000000
     atom   10 type  1   force =     0.00000000    0.00000000    0.00000000
     atom   11 type  2   force =     0.00000000    0.00000000    0.00000000
     atom   12 type  2   force =     0.00000000    0.00000000    0.00000000
     atom   13 type  1   force =     0.00000000    0.00000000    0.00000000
     atom   14 type  2   force =     0.00000000    0.00000000    0.00000000
     atom   15 type  2   force =     0.00000000    0.00000000    0.00000000
     atom   16 type  1   force =     0.00000000    0.00000000    0.00000000
     atom   17 type  2   force =     0.00000000    0.00000000    0.00000000
     atom   18 type  2   force =     0.00000000    0.00000000    0.00000000
     atom   19 type  1   force =     0.00000000    0.00000000    0.00000000
     atom   20 type  2   force =     0.00000000    0.00000000    0.00000000
     atom   21 type  1   force =     0.00000000    0.00000000    0.00000000
     atom   22 type  2   force =     0.00000000    0.00000000    0.00000000
     atom   23 type  2   force =     0.00000000    0.00000000    0.00000000
     atom   24 type  1   force =     0.00000000    0.00000000    0.00000000
     atom   25 type  2   force =     0.00000000    0.00000000    0.00000000
     atom   26 type  2   force =     0.00000000    0.00000000    0.00000000
     atom   27 type  1   force =     0.00000000    0.00000000    0.00000000
     atom   28 type  2   force =     0.00000000    0.00000000    0.00000000
     atom   29 type  2   force =     0.00000000    0.00000000    0.00000000
     atom   30 type  1   force =     0.00000000    0.00000000    0.00000000
     atom   31 type  2   force =     0.00000000    0.00000000    0.00000000
     atom   32 type  2   force =     0.00000000    0.00000000    0.00000000
     atom   33 type  1   force =     0.00000000    0.00000000    0.00000000
     atom   34 type  2   force =     0.00000000    0.00000000    0.00000000
     atom   35 type  2   force =     0.00000000    0.00000000    0.00000000
     atom   36 type  3   force =     0.00000000    0.00000000    0.00000000
     The SCF correction term to forces
     atom    1 type  1   force =     0.00022307   -0.00045627   -0.00000996
     atom    2 type  2   force =    -0.00011584   -0.00002546    0.00004317
     atom    3 type  2   force =     0.00004876   -0.00009769    0.00006315
     atom    4 type  1   force =     0.00037782    0.00023936    0.00007100
     atom    5 type  2   force =     0.00008034    0.00009658    0.00026023
     atom    6 type  2   force =     0.00014002    0.00000649   -0.00009708
     atom    7 type  1   force =    -0.00003336    0.00012511    0.00004992
     atom    8 type  2   force =     0.00026495    0.00008371    0.00023802
     atom    9 type  2   force =     0.00012802    0.00011806    0.00004905
     atom   10 type  1   force =     0.00000696    0.00008833   -0.00014981
     atom   11 type  2   force =    -0.00000372    0.00003067    0.00017950
     atom   12 type  2   force =     0.00010324    0.00008174   -0.00001437
     atom   13 type  1   force =    -0.00026048   -0.00049304   -0.00012649
     atom   14 type  2   force =     0.00009638   -0.00019380    0.00005232
     atom   15 type  2   force =    -0.00002820   -0.00020875    0.00002647
     atom   16 type  1   force =    -0.00022880    0.00052266    0.00012642
     atom   17 type  2   force =    -0.00014355    0.00024417    0.00014484
     atom   18 type  2   force =    -0.00011905    0.00002677   -0.00002759
     atom   19 type  1   force =    -0.00043388   -0.00005221    0.00026084
     atom   20 type  2   force =    -0.00008117    0.00007821    0.00008273
     atom   21 type  1   force =     0.00004053    0.00002646    0.00003283
     atom   22 type  2   force =    -0.00007208   -0.00012106    0.00013787
     atom   23 type  2   force =    -0.00014900    0.00006103    0.00001030
     atom   24 type  1   force =    -0.00013944   -0.00014483   -0.00009408
     atom   25 type  2   force =     0.00005311   -0.00008270    0.00010990
     atom   26 type  2   force =    -0.00002276   -0.00017449   -0.00004989
     atom   27 type  1   force =    -0.00006642    0.00071702    0.00026635
     atom   28 type  2   force =     0.00003021    0.00020579    0.00021596
     atom   29 type  2   force =    -0.00005490   -0.00001952   -0.00000427
     atom   30 type  1   force =     0.00042364    0.00012030    0.00022927
     atom   31 type  2   force =    -0.00012821    0.00009340    0.00019005
     atom   32 type  2   force =    -0.00006168    0.00015241    0.00019454
     atom   33 type  1   force =     0.00000639   -0.00020258   -0.00021064
     atom   34 type  2   force =     0.00007021   -0.00031413    0.00018699
     atom   35 type  2   force =     0.00004152   -0.00007493   -0.00000790
     atom   36 type  3   force =     0.00054343   -0.00027388    0.00031746

     Total force =     0.094930     Total SCF correction =     0.001991
     Energy error            =      1.3E-02 Ry
     Gradient error          =      4.9E-02 Ry/Bohr

     number of scf cycles    =   2
     number of bfgs steps    =   1

     energy             old  =   -2246.1814429084 Ry
     energy             new  =   -2246.1947036043 Ry

     CASE: energy            _new < energy            _old

     new trust radius        =       0.0600386803 bohr
     new conv_thr            =       0.0000000485 Ry


ATOMIC_POSITIONS (angstrom)
Mo            6.5845869652        1.7645917713        2.8286476033
S             8.1614003587        0.8266867087        4.4362473084
S             8.1813154869        0.8230093901        1.2703801500
Mo            8.0939825370        4.4965069422        2.7122294853
S             6.4998556264        3.7152452737        4.3407833314
S             6.5565337392        3.5209433182        1.1225496717
Mo            6.5002368038        7.2059417575        2.6684662566
S             8.0977304261        6.3495457444        4.2710446243
S             8.0938621428        6.3090568369        1.0937775169
Mo            8.1488561935        9.8986058927        2.8291453398
S             6.4989560373        8.9448721210        4.3767819350
S             6.6193377059        9.0489316213        1.1436511409
Mo            3.4272104156        1.7514058926        2.7712453936
S             4.9827264069        0.8161701078        4.3633121786
S             5.0460852504        0.8493534651        1.2187345660
Mo            4.9791034018        4.5271146121        2.6376310187
S             3.4321571679        3.6720357780        4.2822763036
S             3.4347962433        3.5421602552        1.0711489864
Mo            3.4566782811        7.1980836748        2.6274587401
S             4.9872942608        6.3226260492        1.0368814109
Mo            5.0048008856        9.9093244324        2.7424748327
S             3.4706861093        8.9450782153        4.3248872364
S             3.4077715005        9.0655024061        1.1027394415
Mo            0.2874655039        1.7393862855        2.8306086612
S             1.8665853524        0.8102958512        4.4062924126
S             1.8515158995        0.8528065886        1.2032468327
Mo            1.8668112928        4.4978610209        2.6650075457
S             0.2731871635        3.6508994525        4.3334034444
S             0.2359540315        3.5254531836        1.1666871866
Mo            0.2750010726        7.2024275888        2.6753627786
S             1.9278900200        6.3041933316        4.2135567440
S             1.8527787058        6.3158584994        1.0499886740
Mo            1.8590933439        9.9329332426        2.7585962018
S             0.2926956409        9.0613281880        4.4371392368
S             0.2690654683        9.0529577439        1.1654943352
O            -0.0516604295        7.3176865005        5.4768830111



     Writing config-only to output data dir ./MoS2-V-O.save/
     NEW-OLD atomic charge density approx. for the potential

     negative rho (up, down):  1.796E-04 0.000E+00

     total cpu time spent up to now is      234.3 secs

     Self-consistent Calculation

     iteration #  1     ecut=    80.00 Ry     beta= 0.70
     Davidson diagonalization with overlap
     ethr =  1.00E-06,  avg # of iterations =  9.0

     negative rho (up, down):  2.293E-04 0.000E+00

     total cpu time spent up to now is      247.8 secs

     total energy              =   -2246.20339948 Ry
     estimated scf accuracy    <       0.00271516 Ry

     iteration #  2     ecut=    80.00 Ry     beta= 0.70
     Davidson diagonalization with overlap
     ethr =  8.70E-07,  avg # of iterations =  4.0

     negative rho (up, down):  2.052E-04 0.000E+00

     total cpu time spent up to now is      264.6 secs

     total energy              =   -2246.20364942 Ry
     estimated scf accuracy    <       0.00204466 Ry

     iteration #  3     ecut=    80.00 Ry     beta= 0.70
     Davidson diagonalization with overlap
     ethr =  6.55E-07,  avg # of iterations =  2.0

     negative rho (up, down):  2.059E-04 0.000E+00

     total cpu time spent up to now is      276.6 secs

     total energy              =   -2246.20379805 Ry
     estimated scf accuracy    <       0.00011906 Ry

     iteration #  4     ecut=    80.00 Ry     beta= 0.70
     Davidson diagonalization with overlap
     ethr =  3.82E-08,  avg # of iterations =  5.0

     negative rho (up, down):  1.987E-04 0.000E+00

     total cpu time spent up to now is      294.0 secs

     total energy              =   -2246.20383134 Ry
     estimated scf accuracy    <       0.00004144 Ry

     iteration #  5     ecut=    80.00 Ry     beta= 0.70
     Davidson diagonalization with overlap
     ethr =  1.33E-08,  avg # of iterations =  5.0

     negative rho (up, down):  1.922E-04 0.000E+00

     total cpu time spent up to now is      309.0 secs

     total energy              =   -2246.20383487 Ry
     estimated scf accuracy    <       0.00000344 Ry

     iteration #  6     ecut=    80.00 Ry     beta= 0.70
     Davidson diagonalization with overlap
     ethr =  1.10E-09,  avg # of iterations =  4.0

     negative rho (up, down):  1.886E-04 0.000E+00

     total cpu time spent up to now is      323.2 secs

     total energy              =   -2246.20383584 Ry
     estimated scf accuracy    <       0.00000132 Ry

     iteration #  7     ecut=    80.00 Ry     beta= 0.70
     Davidson diagonalization with overlap
     ethr =  4.24E-10,  avg # of iterations =  2.0

     negative rho (up, down):  1.849E-04 0.000E+00

     total cpu time spent up to now is      334.0 secs

     total energy              =   -2246.20383591 Ry
     estimated scf accuracy    <       0.00000031 Ry

     iteration #  8     ecut=    80.00 Ry     beta= 0.70
     Davidson diagonalization with overlap
     ethr =  9.97E-11,  avg # of iterations =  5.0

     negative rho (up, down):  1.834E-04 0.000E+00

     total cpu time spent up to now is      348.0 secs

     total energy              =   -2246.20383593 Ry
     estimated scf accuracy    <       0.00000006 Ry

     iteration #  9     ecut=    80.00 Ry     beta= 0.70
     Davidson diagonalization with overlap
     ethr =  2.00E-11,  avg # of iterations =  5.0

     negative rho (up, down):  1.903E-04 0.000E+00

     total cpu time spent up to now is      353.1 secs

     End of self-consistent calculation

          k = 0.0000 0.0000 0.0000 (105382 PWs)   bands (ev):

   -62.9919 -62.9797 -62.9744 -62.9622 -62.9486 -62.9482 -62.9302 -62.9264
   -62.9195 -62.9105 -62.8878 -62.8790 -37.3414 -37.2792 -37.2605 -37.2573
   -37.2444 -37.2310 -37.2039 -37.1856 -37.1796 -37.1730 -37.1643 -37.1607
   -37.1558 -37.1502 -37.1377 -37.1306 -37.1279 -37.1208 -37.1146 -37.0994
   -37.0939 -37.0911 -37.0706 -37.0526 -37.0432 -37.0425 -37.0323 -37.0283
   -37.0159 -37.0094 -36.9857 -36.9658 -36.9614 -36.9218 -36.8787 -36.8402
   -19.3525 -16.0360 -15.3405 -15.2171 -15.1268 -14.9852 -14.8538 -14.7637
   -14.6139 -14.5701 -14.5175 -14.4637 -14.4489 -14.4065 -14.3596 -14.3048
   -14.2382 -14.2199 -14.1945 -14.0824 -14.0165 -13.9851 -13.9468 -13.9091
    -7.8712  -7.5857  -7.5754  -7.5040  -7.3960  -7.3293  -7.2972  -7.2541
    -7.1019  -6.9409  -6.8953  -6.8799  -6.7813  -6.7447  -6.6794  -6.6476
    -6.5555  -6.5099  -6.3886  -6.3607  -6.1326  -6.0818  -6.0092  -5.9511
    -5.9452  -5.8906  -5.8491  -5.7884  -5.7796  -5.7510  -5.6682  -5.6308
    -5.6230  -5.5366  -5.4947  -5.3403  -5.2382  -5.1951  -5.1377  -5.1242
    -5.0930  -5.0617  -5.0094  -4.8260  -4.7548  -4.6657  -4.5270  -4.4419
    -4.3694  -4.3528  -4.2539  -4.2009  -4.1176  -4.0255  -3.9574  -3.9091
    -3.8564  -3.8055  -3.7390  -3.6787  -3.6425  -3.6167  -3.6127  -3.5556
    -3.4920  -3.4904  -3.3836  -3.3291  -3.0915  -3.0566  -3.0037  -2.9275
    -2.9104  -2.8311  -2.7960  -2.7854  -2.7615  -2.6870  -2.3907  -2.3094
    -2.1775  -2.1336  -1.9873  -1.5539  -1.3859  -0.8887  -0.7305  -0.2913
    -0.2662  -0.1727  -0.1519  -0.0835   0.0482   0.1021   0.1243   0.1515
     0.1865   0.2625   0.3167   0.3556   0.4219   0.4323   0.4496   0.5008
     0.5918   0.6127   0.6487   0.6639   0.6754   0.7437   0.8104   0.8540
     0.8885   0.9521   1.0317

     the Fermi energy is    -1.4699 ev

!    total energy              =   -2246.20383593 Ry
     estimated scf accuracy    <       0.00000001 Ry
     smearing contrib. (-TS)   =      -0.00770809 Ry
     internal energy E=F+TS    =   -2246.19612784 Ry

     The total energy is F=E-TS. E is the sum of the following terms:
     one-electron contribution =  -18426.14128662 Ry
     hartree contribution      =    9200.91069161 Ry
     xc contribution           =    -391.84327421 Ry
     ewald contribution        =    7380.75495039 Ry
     one-center paw contrib.   =      -9.87720901 Ry

     convergence has been achieved in   9 iterations

     negative rho (up, down):  1.903E-04 0.000E+00

     Forces acting on atoms (cartesian axes, Ry/au):

     atom    1 type  1   force =    -0.00259087   -0.00537431   -0.00294930
     atom    2 type  2   force =    -0.00654459    0.00691798   -0.00156306
     atom    3 type  2   force =    -0.00926863    0.00449866   -0.00963868
     atom    4 type  1   force =     0.00182932    0.00077557    0.00123135
     atom    5 type  2   force =     0.00131708   -0.00502422   -0.00506143
     atom    6 type  2   force =     0.00094009    0.00404635    0.00361025
     atom    7 type  1   force =     0.00627056   -0.00286814    0.00383581
     atom    8 type  2   force =     0.02392830    0.00718575    0.01849744
     atom    9 type  2   force =     0.00809593    0.00101642    0.00097263
     atom   10 type  1   force =    -0.00276923    0.00094754    0.00426529
     atom   11 type  2   force =     0.00112491    0.00004568   -0.00817985
     atom   12 type  2   force =    -0.00099141   -0.00134023    0.00050494
     atom   13 type  1   force =     0.00286212    0.00134581    0.00015634
     atom   14 type  2   force =     0.00353252   -0.00065214    0.00663802
     atom   15 type  2   force =    -0.00619241    0.00203203   -0.00507247
     atom   16 type  1   force =     0.00109135    0.00414245    0.00318865
     atom   17 type  2   force =     0.00435143    0.00025105    0.00277610
     atom   18 type  2   force =    -0.00000654   -0.00170547    0.00794795
     atom   19 type  1   force =     0.00638475   -0.00455776   -0.00205454
     atom   20 type  2   force =     0.00489814   -0.00364515   -0.00366469
     atom   21 type  1   force =    -0.00284425    0.00083765    0.00253054
     atom   22 type  2   force =     0.00010492   -0.00104737   -0.00330367
     atom   23 type  2   force =     0.00077715   -0.00250371    0.00150809
     atom   24 type  1   force =    -0.00242186   -0.00421022   -0.00298213
     atom   25 type  2   force =     0.00803225    0.00922930   -0.00277315
     atom   26 type  2   force =    -0.00327505   -0.00167037   -0.00559041
     atom   27 type  1   force =     0.00214884   -0.00381915    0.00121965
     atom   28 type  2   force =     0.00003621   -0.00429092   -0.00621852
     atom   29 type  2   force =     0.00360090    0.00013560   -0.00402487
     atom   30 type  1   force =     0.00297778   -0.00595546   -0.01183470
     atom   31 type  2   force =     0.01182431   -0.00466235   -0.00256382
     atom   32 type  2   force =    -0.00317152    0.00052685   -0.00181424
     atom   33 type  1   force =     0.00447601   -0.00161173    0.00428832
     atom   34 type  2   force =    -0.00583077   -0.02835144    0.01055292
     atom   35 type  2   force =    -0.00474339    0.00589569    0.00612889
     atom   36 type  3   force =    -0.04995435    0.03345970   -0.00056363
     The non-local contrib.  to forces
     atom    1 type  1   force =    -0.00013326    0.02512545   -0.01282579
     atom    2 type  2   force =    -0.00277033   -0.00573265   -0.27354445
     atom    3 type  2   force =    -0.01085331   -0.00987516    0.26554552
     atom    4 type  1   force =    -0.00031202    0.02319049   -0.00003366
     atom    5 type  2   force =     0.00618726   -0.03123605   -0.25650081
     atom    6 type  2   force =    -0.00418146    0.00522798    0.26738226
     atom    7 type  1   force =    -0.02831064   -0.02344091   -0.02371255
     atom    8 type  2   force =     0.17250052    0.12465978   -0.05614202
     atom    9 type  2   force =     0.00714497   -0.01077222    0.27222189
     atom   10 type  1   force =     0.00990904    0.00417957   -0.00545679
     atom   11 type  2   force =     0.00598859    0.00576946   -0.26644824
     atom   12 type  2   force =    -0.00807902   -0.01489706    0.25813205
     atom   13 type  1   force =    -0.00033660    0.02279946   -0.00854572
     atom   14 type  2   force =     0.00816495   -0.01108828   -0.26637893
     atom   15 type  2   force =    -0.00823473   -0.00647426    0.25955700
     atom   16 type  1   force =    -0.00044276    0.03439113   -0.03340932
     atom   17 type  2   force =     0.00121017   -0.02484999   -0.25244820
     atom   18 type  2   force =    -0.00068749    0.00090491    0.27100823
     atom   19 type  1   force =     0.01520624   -0.01416659   -0.02017818
     atom   20 type  2   force =     0.00125105   -0.01914952    0.26335228
     atom   21 type  1   force =    -0.00225323    0.03202727    0.00699716
     atom   22 type  2   force =    -0.00356862   -0.00063769   -0.26485621
     atom   23 type  2   force =     0.00707125   -0.01326449    0.26296795
     atom   24 type  1   force =     0.00919405    0.02809360   -0.01224554
     atom   25 type  2   force =     0.00081852   -0.00098457   -0.27049724
     atom   26 type  2   force =     0.00114367   -0.01334911    0.26592698
     atom   27 type  1   force =    -0.00197690    0.01444133    0.00992824
     atom   28 type  2   force =    -0.00348877   -0.02591670   -0.27840840
     atom   29 type  2   force =     0.00482008    0.00122396    0.26696503
     atom   30 type  1   force =     0.00002624    0.00661193    0.01339080
     atom   31 type  2   force =     0.01382114   -0.00990198   -0.25781499
[...]
     atom   28 type  2   force =     0.00207566   -0.01254412   -0.27688692
     atom   29 type  2   force =    -0.00123745   -0.00810703    0.27064937
     atom   30 type  1   force =     0.00016341    0.03044449    0.01900804
     atom   31 type  2   force =    -0.00897188    0.00356276   -0.27119299
     atom   32 type  2   force =     0.00669810   -0.01245575    0.26880957
     atom   33 type  1   force =    -0.01070554   -0.00163347    0.02004166
     atom   34 type  2   force =    -0.00233942   -0.00968133    0.29748998
     atom   35 type  2   force =    -0.00045212   -0.01478741    0.27701280
     atom   36 type  3   force =     0.02253730    0.03453867   -2.31597914
     The ionic contribution  to forces
     atom    1 type  1   force =    -0.55639303    1.23727316    1.45477389
     atom    2 type  2   force =    -0.71436905    1.10510820   38.24456872
     atom    3 type  2   force =     0.03988714    0.14920356  -38.31166805
     atom    4 type  1   force =    -0.37576788   -0.20959332   -0.62322137
     atom    5 type  2   force =    -0.93619417    1.11723570   38.15251472
     atom    6 type  2   force =     0.11689108   -0.36043574  -38.46170976
     atom    7 type  1   force =    -3.29782210   -2.48261922    1.28944460
     atom    8 type  2   force =    -1.77544521   -0.83699506   37.60189545
     atom    9 type  2   force =     0.21903057   -0.10764051  -38.75720429
     atom   10 type  1   force =    -1.40302824    0.25560364   -1.35464928
     atom   11 type  2   force =    -1.43539589   -1.47637940   37.84100981
     atom   12 type  2   force =     0.11489904    0.28590248  -38.75265445
     atom   13 type  1   force =     0.55615943    1.21996106    1.81747789
     atom   14 type  2   force =    -0.00327384    0.27109669   38.29261312
     atom   15 type  2   force =    -0.04051490    0.01559290  -37.89642429
     atom   16 type  1   force =    -0.01859932    3.21474863    1.32250674
     atom   17 type  2   force =     0.95154667    1.11456781   38.24164412
     atom   18 type  2   force =    -0.13416845   -0.36026161  -38.34183143
     atom   19 type  1   force =     3.24680797   -2.43766217    1.03569784
     atom   20 type  2   force =    -0.01551104   -0.14171361  -39.02850114
     atom   21 type  1   force =    -0.04769644    0.08541139   -0.21194931
     atom   22 type  2   force =     1.41096647   -1.48988199   37.82588379
     atom   23 type  2   force =    -0.14517437    0.29663032  -38.70214956
     atom   24 type  1   force =     0.02647798    1.33075641    1.05613427
     atom   25 type  2   force =     0.70077261    1.09039354   38.29980734
     atom   26 type  2   force =    -0.00828757    0.13257948  -38.24656266
     atom   27 type  1   force =     0.37605283   -0.24256729   -0.10294863
     atom   28 type  2   force =    -0.00117183    0.45881629   37.87329321
     atom   29 type  2   force =     0.02096847   -0.12807196  -38.02032489
     atom   30 type  1   force =     0.02568330   -1.76866727   -2.29741918
     atom   31 type  2   force =     1.78062162   -0.79206201   37.63191785
     atom   32 type  2   force =    -0.19054098   -0.11698154  -38.75228034
     atom   33 type  1   force =     1.46950460    0.26463266   -1.03228473
     atom   34 type  2   force =     0.07188987   -0.38169494   28.67304750
     atom   35 type  2   force =     0.02409129    0.15706190  -38.19777379
     atom   36 type  3   force =    -0.05289663   -0.46934818   50.43732628
     The local contribution  to forces
     atom    1 type  1   force =     0.56017973   -1.26182615   -1.44994336
     atom    2 type  2   force =     0.71479223   -1.09387399  -37.99427207
     atom    3 type  2   force =    -0.03734446   -0.13962052   38.06726382
     atom    4 type  1   force =     0.37413254    0.20614411    0.62065342
     atom    5 type  2   force =     0.93210879   -1.09469100  -37.91694712
     atom    6 type  2   force =    -0.11733126    0.36296986   38.21704318
     atom    7 type  1   force =     3.31242808    2.47715187   -1.26800028
     atom    8 type  2   force =     1.76729431    0.83285925  -37.35182941
     atom    9 type  2   force =    -0.21406520    0.12036175   38.50977085
     atom   10 type  1   force =     1.39184733   -0.25405090    1.33353968
     atom   11 type  2   force =     1.43191691    1.47353108  -37.59817338
     atom   12 type  2   force =    -0.10730729   -0.27281546   38.51175803
     atom   13 type  1   force =    -0.55969631   -1.24445365   -1.81282026
     atom   14 type  2   force =     0.00355326   -0.26068737  -38.04054332
     atom   15 type  2   force =     0.04012836   -0.00401559   37.65197017
     atom   16 type  1   force =     0.01863915   -3.24888763   -1.28622786
     atom   17 type  2   force =    -0.94682427   -1.09235581  -38.00628633
     atom   18 type  2   force =     0.13414723    0.36277065   38.09668831
     atom   19 type  1   force =    -3.26190845    2.43356031   -1.01340791
     atom   20 type  2   force =     0.01536846    0.15271398   38.78501270
     atom   21 type  1   force =     0.04698944   -0.11646301    0.20032832
     atom   22 type  2   force =    -1.40691889    1.48650017  -37.58262809
     atom   23 type  2   force =     0.13718528   -0.28297288   38.46067355
     atom   24 type  1   force =    -0.02623206   -1.34436078   -1.05500089
     atom   25 type  2   force =    -0.70133342   -1.07915734  -38.04958369
     atom   26 type  2   force =     0.00609111   -0.12320170   38.00233743
     atom   27 type  1   force =    -0.37310773    0.23924884    0.10015108
     atom   28 type  2   force =     0.00085490   -0.44678271  -37.61738431
     atom   29 type  2   force =    -0.02019216    0.13610626   37.77135230
     atom   30 type  1   force =    -0.02604026    1.73789166    2.27882499
     atom   31 type  2   force =    -1.77240812    0.78838435  -37.38185850
     atom   32 type  2   force =     0.18554161    0.12931481   38.50499305
     atom   33 type  1   force =    -1.45864322   -0.26275450    1.01099545
     atom   34 type  2   force =    -0.07081943    0.38987038  -28.95881694
     atom   35 type  2   force =    -0.02392521   -0.14348896   37.94226525
     atom   36 type  3   force =     0.03152307    0.43591395  -48.14837653
     The core correction contribution to forces
     atom    1 type  1   force =     0.00000000    0.00000000    0.00000000
     atom    2 type  2   force =     0.00000537    0.00046649    0.02123018
     atom    3 type  2   force =     0.00020042    0.00043954   -0.02083559
     atom    4 type  1   force =     0.00000000    0.00000000    0.00000000
     atom    5 type  2   force =    -0.00038654    0.00103550    0.02047886
     atom    6 type  2   force =     0.00010078   -0.00032295   -0.02088748
     atom    7 type  1   force =     0.00000000    0.00000000    0.00000000
     atom    8 type  2   force =    -0.00037133    0.00011324    0.02130011
     atom    9 type  2   force =     0.00051795    0.00074344   -0.02097107
     atom   10 type  1   force =     0.00000000    0.00000000    0.00000000
     atom   11 type  2   force =     0.00005179   -0.00040118    0.02102852
     atom   12 type  2   force =     0.00062331    0.00087175   -0.02075177
     atom   13 type  1   force =     0.00000000    0.00000000    0.00000000
     atom   14 type  2   force =     0.00002980    0.00016234    0.02113135
     atom   15 type  2   force =    -0.00003069    0.00055197   -0.02070916
     atom   16 type  1   force =     0.00000000    0.00000000    0.00000000
     atom   17 type  2   force =     0.00046114    0.00110891    0.02051357
     atom   18 type  2   force =    -0.00018274   -0.00030645   -0.02085884
     atom   19 type  1   force =     0.00000000    0.00000000    0.00000000
     atom   20 type  2   force =     0.00007099    0.00055649   -0.02126569
     atom   21 type  1   force =     0.00000000    0.00000000    0.00000000
     atom   22 type  2   force =     0.00000397   -0.00047696    0.02101285
     atom   23 type  2   force =    -0.00065307    0.00091249   -0.02073139
     atom   24 type  1   force =     0.00000000    0.00000000    0.00000000
     atom   25 type  2   force =    -0.00005103    0.00052913    0.02122317
     atom   26 type  2   force =    -0.00020959    0.00048016   -0.02083920
     atom   27 type  1   force =     0.00000000    0.00000000    0.00000000
     atom   28 type  2   force =    -0.00011945    0.00084467    0.02126752
     atom   29 type  2   force =     0.00007925    0.00020711   -0.02090149
     atom   30 type  1   force =     0.00000000    0.00000000    0.00000000
     atom   31 type  2   force =     0.00045267    0.00016720    0.02129662
     atom   32 type  2   force =    -0.00056850    0.00063483   -0.02098474
     atom   33 type  1   force =     0.00000000    0.00000000    0.00000000
     atom   34 type  2   force =     0.00012232    0.00041780   -0.00976696
     atom   35 type  2   force =     0.00003528    0.00083966   -0.02132368
     atom   36 type  3   force =    -0.00024442   -0.00038503    0.02457284
     The Hubbard contrib.    to forces
     atom    1 type  1   force =     0.00000000    0.00000000    0.00000000
     atom    2 type  2   force =     0.00000000    0.00000000    0.00000000
     atom    3 type  2   force =     0.00000000    0.00000000    0.00000000
     atom    4 type  1   force =     0.00000000    0.00000000    0.00000000
     atom    5 type  2   force =     0.00000000    0.00000000    0.00000000
     atom    6 type  2   force =     0.00000000    0.00000000    0.00000000
     atom    7 type  1   force =     0.00000000    0.00000000    0.00000000
     atom    8 type  2   force =     0.00000000    0.00000000    0.00000000
     atom    9 type  2   force =     0.00000000    0.00000000    0.00000000
     atom   10 type  1   force =     0.00000000    0.00000000    0.00000000
     atom   11 type  2   force =     0.00000000    0.00000000    0.00000000
     atom   12 type  2   force =     0.00000000    0.00000000    0.00000000
     atom   13 type  1   force =     0.00000000    0.00000000    0.00000000
     atom   14 type  2   force =     0.00000000    0.00000000    0.00000000
     atom   15 type  2   force =     0.00000000    0.00000000    0.00000000
     atom   16 type  1   force =     0.00000000    0.00000000    0.00000000
     atom   17 type  2   force =     0.00000000    0.00000000    0.00000000
     atom   18 type  2   force =     0.00000000    0.00000000    0.00000000
     atom   19 type  1   force =     0.00000000    0.00000000    0.00000000
     atom   20 type  2   force =     0.00000000    0.00000000    0.00000000
     atom   21 type  1   force =     0.00000000    0.00000000    0.00000000
     atom   22 type  2   force =     0.00000000    0.00000000    0.00000000
     atom   23 type  2   force =     0.00000000    0.00000000    0.00000000
     atom   24 type  1   force =     0.00000000    0.00000000    0.00000000
     atom   25 type  2   force =     0.00000000    0.00000000    0.00000000
     atom   26 type  2   force =     0.00000000    0.00000000    0.00000000
     atom   27 type  1   force =     0.00000000    0.00000000    0.00000000
     atom   28 type  2   force =     0.00000000    0.00000000    0.00000000
     atom   29 type  2   force =     0.00000000    0.00000000    0.00000000
     atom   30 type  1   force =     0.00000000    0.00000000    0.00000000
     atom   31 type  2   force =     0.00000000    0.00000000    0.00000000
     atom   32 type  2   force =     0.00000000    0.00000000    0.00000000
     atom   33 type  1   force =     0.00000000    0.00000000    0.00000000
     atom   34 type  2   force =     0.00000000    0.00000000    0.00000000
     atom   35 type  2   force =     0.00000000    0.00000000    0.00000000
     atom   36 type  3   force =     0.00000000    0.00000000    0.00000000
     The SCF correction term to forces
     atom    1 type  1   force =    -0.00001543    0.00002460   -0.00000190
     atom    2 type  2   force =    -0.00000084   -0.00000673    0.00000866
     atom    3 type  2   force =    -0.00000796    0.00001260   -0.00000687
     atom    4 type  1   force =    -0.00001176   -0.00000972   -0.00002916
     atom    5 type  2   force =    -0.00000022   -0.00000824   -0.00001099
     atom    6 type  2   force =     0.00001059    0.00000606   -0.00001153
     atom    7 type  1   force =     0.00000661    0.00002614   -0.00001316
     atom    8 type  2   force =    -0.00000076    0.00000894    0.00000521
     atom    9 type  2   force =    -0.00001692    0.00000244   -0.00001923
     atom   10 type  1   force =     0.00002407   -0.00003881    0.00004751
     atom   11 type  2   force =    -0.00001054   -0.00000425    0.00000503
     atom   12 type  2   force =    -0.00000510   -0.00003319   -0.00000000
     atom   13 type  1   force =    -0.00000143   -0.00000153    0.00002820
     atom   14 type  2   force =    -0.00000548   -0.00000764    0.00001476
     atom   15 type  2   force =     0.00001779    0.00001515    0.00000747
     atom   16 type  1   force =    -0.00000905    0.00001055   -0.00002255
     atom   17 type  2   force =    -0.00000038    0.00000023    0.00000570
     atom   18 type  2   force =     0.00000678    0.00001499   -0.00000128
     atom   19 type  1   force =     0.00003413    0.00000991    0.00001120
     atom   20 type  2   force =     0.00000661    0.00000361   -0.00000735
     atom   21 type  1   force =     0.00001429   -0.00003443    0.00004375
     atom   22 type  2   force =    -0.00000684   -0.00000624    0.00001467
     atom   23 type  2   force =     0.00000958   -0.00002951    0.00001425
     atom   24 type  1   force =     0.00000133    0.00002195    0.00002328
     atom   25 type  2   force =     0.00001150   -0.00000647    0.00001333
     atom   26 type  2   force =    -0.00000268    0.00000968    0.00001015
     atom   27 type  1   force =    -0.00000546    0.00001237   -0.00001181
     atom   28 type  2   force =     0.00000416   -0.00000244   -0.00000246
     atom   29 type  2   force =    -0.00000782    0.00001651    0.00000097
     atom   30 type  1   force =     0.00000376    0.00003066    0.00002515
     atom   31 type  2   force =     0.00000684    0.00001082    0.00000718
     atom   32 type  2   force =     0.00000308   -0.00000846   -0.00000089
     atom   33 type  1   force =    -0.00003490   -0.00004904    0.00007976
     atom   34 type  2   force =     0.00000881   -0.00000099    0.00000405
     atom   35 type  2   force =    -0.00000362   -0.00001372    0.00001522
     atom   36 type  3   force =     0.00001338   -0.00001621   -0.00002569

     Total force =     0.006332     Total SCF correction =     0.000187
     Energy error            =      1.0E-04 Ry
     Gradient error          =      2.5E-03 Ry/Bohr

     bfgs converged in  33 scf cycles and  32 bfgs steps
     (criteria: energy <  1.0E-04 Ry, force <  1.0E-02 Ry/Bohr)

     End of BFGS Geometry Optimization

     Final energy             =   -2246.4498662248 Ry

     File ./MoS2-V-O.bfgs deleted, as requested
Begin final coordinates

ATOMIC_POSITIONS (angstrom)
Mo            6.5566174648        1.7118688438        2.7606453630
S             8.1219056972        0.8001416366        4.3738680670
S             8.1324891541        0.8109451807        1.1675218385
Mo            8.1101369087        4.4518570813        2.7135625258
S             6.5152160183        3.6183913673        4.3116386525
S             6.5419175872        3.5169035537        1.1144549471
Mo            6.5165646900        7.1390592080        2.6734014827
S             8.0841988671        6.2586769277        4.3081211250
S             8.1223540055        6.2710331515        1.1022211340
Mo            8.1094467695        9.9070908574        2.7544711083
S             6.5229286465        8.9044313756        4.3242601962
S             6.5735198165        8.9755673722        1.1183494679
Mo            3.4185941735        1.7136900588        2.7674554743
S             4.9900194373        0.7640142362        4.3502924264
S             4.9862881230        0.7941263560        1.1772519172
Mo            4.9882427060        4.4927448115        2.6656339750
S             3.4631137547        3.6247739167        4.3204843190
S             3.4280954845        3.5181491445        1.1244016586
Mo            3.4628431844        7.1353840814        2.6697616741
S             4.9936161907        6.2669035100        1.0521931505
Mo            4.9899205020        9.8512704245        2.7326953531
S             3.4590395355        8.9002290251        4.3234079924
S             3.4044024916        8.9752253437        1.1212598428
Mo            0.2579001200        1.6961551550        2.7731767806
S             1.8511663769        0.8058837913        4.3783181053
S             1.8433481075        0.8148927215        1.1717038317
Mo            1.8616590074        4.4505578055        2.7225653548
S             0.2502350554        3.5615344555        4.3208064876
S             0.2604479260        3.5144101087        1.1537918572
Mo            0.2621107744        7.1400454616        2.7227448787
S             1.8977033218        6.2597753819        4.3100471417
S             1.8527801722        6.2629476817        1.1026635822
Mo            1.8702971068        9.9091043915        2.7600964142
S             0.2609006521        8.9789962120        4.2641621007
S             0.2647313327        9.0076148073        1.1831869547
O             0.2475958500        8.9624843061        5.7641443562
End final coordinates



     Writing all to output data dir ./MoS2-V-O.save/
 
     init_run     :      4.72s CPU      5.26s WALL (       1 calls)
     electrons    :   3338.04s CPU   3881.04s WALL (      33 calls)
     update_pot   :    103.98s CPU    112.87s WALL (      32 calls)
     forces       :    102.58s CPU    122.11s WALL (      33 calls)

     Called by init_run:
     wfcinit      :      0.50s CPU      0.55s WALL (       1 calls)
     potinit      :      2.47s CPU      2.74s WALL (       1 calls)
     hinit0       :      0.44s CPU      0.47s WALL (       1 calls)

     Called by electrons:
     c_bands      :    472.37s CPU    483.73s WALL (     313 calls)
     sum_band     :    201.30s CPU    310.46s WALL (     313 calls)
     v_of_rho     :    425.95s CPU    532.31s WALL (     340 calls)
     newd         :    119.90s CPU    205.20s WALL (     340 calls)
     PAW_pot      :     13.45s CPU     13.52s WALL (     372 calls)
     mix_rho      :   2145.38s CPU   2385.22s WALL (     313 calls)

     Called by c_bands:
     init_us_2    :      7.19s CPU      7.79s WALL (     659 calls)
     init_us_2:cp :      7.18s CPU      7.79s WALL (     659 calls)
     regterg      :    449.14s CPU    459.81s WALL (     313 calls)

     Called by *egterg:
     rdiaghg      :     30.42s CPU     30.74s WALL (    1757 calls)
     h_psi        :    291.72s CPU    294.41s WALL (    1796 calls)
     s_psi        :     26.88s CPU     26.98s WALL (    1796 calls)
     g_psi        :      1.41s CPU      1.43s WALL (    1482 calls)

     Called by h_psi:
     h_psi:calbec :     30.77s CPU     30.92s WALL (    1796 calls)
     vloc_psi     :    230.58s CPU    232.93s WALL (    1796 calls)
     add_vuspsi   :     26.83s CPU     27.00s WALL (    1796 calls)

     General routines
     calbec       :     44.26s CPU     44.48s WALL (    2273 calls)
     fft          :    294.03s CPU    327.37s WALL (   22659 calls)
     ffts         :    957.31s CPU   1188.60s WALL (  526559 calls)
     fftw         :    157.04s CPU    158.73s WALL (  194194 calls)
     interpolate  :      4.27s CPU      4.89s WALL (     340 calls)
 
     Parallel routines
 
     PWSCF        :  59m24.99s CPU      1h 9m WALL

 
   This run was terminated on:  19:56:48   1Nov2023            

=------------------------------------------------------------------------------=
   JOB DONE.
=------------------------------------------------------------------------------=
