
     Program PWSCF v.7.2 starts on  1Nov2023 at 17: 9:30 

     This program is part of the open-source Quantum ESPRESSO suite
     for quantum simulation of materials; please cite
         "P. Giannozzi et al., J. Phys.:Condens. Matter 21 395502 (2009);
         "P. Giannozzi et al., J. Phys.:Condens. Matter 29 465901 (2017);
         "P. Giannozzi et al., J. Chem. Phys. 152 154105 (2020);
          URL http://www.quantum-espresso.org", 
     in publications or presentations arising from this work. More details at
     http://www.quantum-espresso.org/quote

     Parallel version (MPI & OpenMP), running on      48 processor cores
     Number of MPI processes:                48
     Threads/MPI process:                     1

     MPI processes distributed on     1 nodes
     77019 MiB available memory on the printing compute node when the environment starts
 
     Waiting for input...
     Reading input from standard input
Warning: card &CELL ignored
Warning: card CELL_DYNAMICS = 'BFGS', ignored
Warning: card CELL_DOFREE = '2DXY' ignored
Warning: card / ignored

     Current dimensions of program PWSCF are:
     Max number of different atomic species (ntypx) = 10
     Max number of k-points (npk) =  40000
     Max angular momentum in pseudopotentials (lmaxx) =  4
     file O.pbe-n-kjpaw_psl.0.1.UPF: wavefunction(s)  2P renormalized

     IMPORTANT: XC functional enforced from input :
     Exchange-correlation= RVV10
                           (   1   4  13   4  26   0   0)
     Any further DFT definition will be discarded
     Please, verify this is what you really want


     gamma-point specific algorithms are used
     signal trapping enabled: kill the code with -SIGUSR1 to stop cleanly the simulation 
 
     R & G space division:  proc/nbgrp/npool/nimage =      48
     Subspace diagonalization in iterative solution of the eigenvalue problem:
     one sub-group per band group will be used
     scalapack distributed-memory algorithm (size of sub-group:  2*  2 procs)

 
     Parallelization info
     --------------------
     sticks:   dense  smooth     PW     G-vecs:    dense   smooth      PW
     Min         396     194     47               101632    35090    4376
     Max         398     196     50               101674    35128    4410
     Sum       19091    9389   2349              4879585  1685513  210763
 
     Using Slab Decomposition
 


     bravais-lattice index     =            0
     lattice parameter (alat)  =      17.8707  a.u.
     unit-cell volume          =   17436.2743 (a.u.)^3
     number of atoms/cell      =           36
     number of atomic types    =            3
     number of electrons       =       312.00
     number of Kohn-Sham states=          187
     kinetic-energy cutoff     =      80.0000  Ry
     charge density cutoff     =     650.0000  Ry
     scf convergence threshold =      1.0E-06
     mixing beta               =       0.7000
     number of iterations used =            8  local-TF  mixing
     energy convergence thresh.=      1.0E-04
     force convergence thresh. =      1.0E-02
     Exchange-correlation= RVV10
                           (   1   4  13   4  26   0   0)
     nstep                     =          200


     celldm(1)=  17.870686  celldm(2)=   0.000000  celldm(3)=   0.000000
     celldm(4)=   0.000000  celldm(5)=   0.000000  celldm(6)=   0.000000

     crystal axes: (cart. coord. in units of alat)
               a(1) = (   1.000000   0.000000   0.000000 )  
               a(2) = (   0.000000   1.155671   0.000000 )  
               a(3) = (   0.000000   0.000000   2.643601 )  

     reciprocal axes: (cart. coord. in units 2 pi/alat)
               b(1) = (  1.000000  0.000000  0.000000 )  
               b(2) = (  0.000000  0.865298  0.000000 )  
               b(3) = (  0.000000  0.000000  0.378272 )  


     PseudoPot. # 1 for Mo read from file:
     ../pseudo/Mo_ONCV_PBE-1.0.oncvpsp.upf
     MD5 check sum: 1b5d28e075c9ccadda658a603575cd1f
     Pseudo is Norm-conserving, Zval = 14.0
     Generated using ONCVPSP code by D. R. Hamann
     Using radial grid of 1526 points,  6 beta functions with: 
                l(1) =   0
                l(2) =   0
                l(3) =   1
                l(4) =   1
                l(5) =   2
                l(6) =   2

     PseudoPot. # 2 for S  read from file:
     ../pseudo/s_pbe_v1.4.uspp.F.UPF
     MD5 check sum: 88d86576ff6df21479756cfb9bdac1df
     Pseudo is Ultrasoft + core correction, Zval =  6.0
     Generated by new atomic code, or converted to UPF format
     Using radial grid of  907 points,  6 beta functions with: 
                l(1) =   0
                l(2) =   0
                l(3) =   1
                l(4) =   1
                l(5) =   2
                l(6) =   2
     Q(r) pseudized with  8 coefficients,  rinner =    1.300   1.300   1.300
                                                       1.300   1.300

     PseudoPot. # 3 for O  read from file:
     ../pseudo/O.pbe-n-kjpaw_psl.0.1.UPF
     MD5 check sum: 0234752ac141de4415c5fc33072bef88
     Pseudo is Projector augmented-wave + core cor, Zval =  6.0
     Generated using "atomic" code by A. Dal Corso  v.5.0.99 svn rev. 10869
     Shape of augmentation charge: BESSEL
     Using radial grid of 1095 points,  4 beta functions with: 
                l(1) =   0
                l(2) =   0
                l(3) =   1
                l(4) =   1
     Q(r) pseudized with 0 coefficients 


     atomic species   valence    mass     pseudopotential
        Mo            14.00    95.94000     Mo( 1.00)
        S              6.00    32.06500     S ( 1.00)
        O              6.00    15.99940     O ( 1.00)

     No symmetry found



   Cartesian axes

     site n.     atom                  positions (alat units)
         1           Mo  tau(   1) = (   0.6952221   0.1890506   0.2985846  )
         2           S   tau(   2) = (   0.8646417   0.0856217   0.4689279  )
         3           S   tau(   3) = (   0.8663890   0.0857843   0.1351291  )
         4           Mo  tau(   4) = (   0.8560186   0.4753274   0.2873942  )
         5           S   tau(   5) = (   0.6873294   0.3936244   0.4596353  )
         6           S   tau(   6) = (   0.6929804   0.3713468   0.1185692  )
         7           Mo  tau(   7) = (   0.6862796   0.7633098   0.2825370  )
         8           S   tau(   8) = (   0.8545980   0.6708292   0.4486168  )
         9           S   tau(   9) = (   0.8545123   0.6666874   0.1146125  )
        10           Mo  tau(  10) = (   0.8629403   1.0471007   0.3006803  )
        11           S   tau(  11) = (   0.6868280   0.9456650   0.4634891  )
        12           S   tau(  12) = (   0.6998113   0.9568511   0.1205389  )
        13           Mo  tau(  13) = (   0.3618216   0.1847309   0.2935964  )
        14           S   tau(  14) = (   0.5260962   0.0863870   0.4600448  )
        15           S   tau(  15) = (   0.5348379   0.0894875   0.1297123  )
        16           Mo  tau(  16) = (   0.5265817   0.4772436   0.2784130  )
        17           S   tau(  17) = (   0.3624753   0.3882513   0.4525556  )
        18           S   tau(  18) = (   0.3635411   0.3752055   0.1119148  )
        19           Mo  tau(  19) = (   0.3652268   0.7630864   0.2781795  )
        20           S   tau(  20) = (   0.5269494   0.6690381   0.1096838  )
        21           Mo  tau(  21) = (   0.5300192   1.0470394   0.2900995  )
        22           S   tau(  22) = (   0.3670346   0.9457522   0.4574073  )
        23           S   tau(  23) = (   0.3604225   0.9585725   0.1159032  )
        24           Mo  tau(  24) = (   0.0313099   0.1847895   0.3013130  )
        25           S   tau(  25) = (   0.1956761   0.0838230   0.4650863  )
        26           S   tau(  26) = (   0.1967693   0.0903508   0.1278874  )
        27           Mo  tau(  27) = (   0.1967578   0.4753919   0.2813011  )
        28           S   tau(  28) = (   0.0287851   0.3864324   0.4586755  )
        29           S   tau(  29) = (   0.0244514   0.3729871   0.1239344  )
        30           Mo  tau(  30) = (   0.0286728   0.7631204   0.2856894  )
        31           S   tau(  31) = (   0.2011512   0.6675435   0.4465001  )
        32           S   tau(  32) = (   0.1969214   0.6672839   0.1104564  )
        33           Mo  tau(  33) = (   0.1950294   1.0511147   0.2932237  )
        34           S   tau(  34) = (   0.0312912   0.9612169   0.4667423  )
        35           S   tau(  35) = (   0.0292670   0.9563028   0.1216485  )
        36           O   tau(  36) = (   1.0000000   0.5136314   0.5407634  )

     number of k points=     1  Gaussian smearing, width (Ry)=  0.0100
                       cart. coord. in units 2pi/alat
        k(    1) = (   0.0000000   0.0000000   0.0000000), wk =   2.0000000

     Dense  grid:  2439793 G-vectors     FFT dimensions: ( 150, 180, 384)

     Smooth grid:   842757 G-vectors     FFT dimensions: ( 108, 120, 270)

     Estimated max dynamical RAM per process >     269.22 MB

     Estimated total dynamical RAM >      12.62 GB

     Initial potential from superposition of free atoms

     starting charge     311.9873, renormalised to     312.0000

     negative rho (up, down):  2.734E-04 0.000E+00


---------------------------------------------------------------------------------
Carrying out rVV10 run using the following parameters:
Nqs =      20    Nr_points =    1024   r_max =   100.000
b_value =  6.30000    beta =  0.00901
     q_mesh =  0.00010000  0.00030000  0.00058939  0.00100810
               0.00161396  0.00249058  0.00375900  0.00559430
               0.00824984  0.01209221  0.01765183  0.02569619
               0.03733578  0.05417739  0.07854596  0.11380545
               0.16482331  0.23864234  0.34545298  0.50000000

Gradients computed in Reciprocal space

---------------------------------------------------------------------------------


     Starting wfcs are  216 randomized atomic wfcs
     Checking if some PAW data can be deallocated... 

     total cpu time spent up to now is        5.3 secs

     Self-consistent Calculation

     iteration #  1     ecut=    80.00 Ry     beta= 0.70
     Davidson diagonalization with overlap
     ethr =  1.00E-02,  avg # of iterations =  2.0

     Threshold (ethr) on eigenvalues was too large:
     Diagonalizing with lowered threshold

     Davidson diagonalization with overlap
     ethr =  4.58E-04,  avg # of iterations =  4.0

     negative rho (up, down):  4.134E-08 0.000E+00

     total cpu time spent up to now is       22.5 secs

     total energy              =   -2246.20503343 Ry
     estimated scf accuracy    <       1.67773723 Ry

     iteration #  2     ecut=    80.00 Ry     beta= 0.70
     Davidson diagonalization with overlap
     ethr =  5.38E-04,  avg # of iterations =  4.0

     total cpu time spent up to now is       27.0 secs

     total energy              =   -2246.19670089 Ry
     estimated scf accuracy    <       0.58301282 Ry

     iteration #  3     ecut=    80.00 Ry     beta= 0.70
     Davidson diagonalization with overlap
     ethr =  1.87E-04,  avg # of iterations =  2.0

     total cpu time spent up to now is       31.2 secs

     total energy              =   -2246.20562375 Ry
     estimated scf accuracy    <       0.13515444 Ry

     iteration #  4     ecut=    80.00 Ry     beta= 0.70
     Davidson diagonalization with overlap
     c_bands:  1 eigenvalues not converged
     ethr =  4.33E-05,  avg # of iterations = 20.0

     total cpu time spent up to now is       36.2 secs

     total energy              =   -2246.22844599 Ry
     estimated scf accuracy    <       0.02628731 Ry

     iteration #  5     ecut=    80.00 Ry     beta= 0.70
     Davidson diagonalization with overlap
     ethr =  8.43E-06,  avg # of iterations = 10.0

     total cpu time spent up to now is       40.2 secs

     total energy              =   -2246.22773426 Ry
     estimated scf accuracy    <       0.01620838 Ry

     iteration #  6     ecut=    80.00 Ry     beta= 0.70
     Davidson diagonalization with overlap
     ethr =  5.19E-06,  avg # of iterations =  2.0

     total cpu time spent up to now is       43.9 secs

     total energy              =   -2246.22679589 Ry
     estimated scf accuracy    <       0.01021980 Ry

     iteration #  7     ecut=    80.00 Ry     beta= 0.70
     Davidson diagonalization with overlap
     ethr =  3.28E-06,  avg # of iterations =  2.0

     negative rho (up, down):  1.142E-05 0.000E+00

     total cpu time spent up to now is       49.3 secs

     total energy              =   -2246.22571721 Ry
     estimated scf accuracy    <       0.00600092 Ry

     iteration #  8     ecut=    80.00 Ry     beta= 0.70
     Davidson diagonalization with overlap
     ethr =  1.92E-06,  avg # of iterations = 11.0

     negative rho (up, down):  1.039E-02 0.000E+00

     total cpu time spent up to now is       55.7 secs

     total energy              =   -2246.22508192 Ry
     estimated scf accuracy    <       0.00337814 Ry

     iteration #  9     ecut=    80.00 Ry     beta= 0.70
     Davidson diagonalization with overlap
     ethr =  1.08E-06,  avg # of iterations =  2.0

     negative rho (up, down):  2.679E-02 0.000E+00

     total cpu time spent up to now is       61.7 secs

     total energy              =   -2246.22491080 Ry
     estimated scf accuracy    <       0.00189834 Ry

     iteration # 10     ecut=    80.00 Ry     beta= 0.70
     Davidson diagonalization with overlap
     ethr =  6.08E-07,  avg # of iterations =  2.0

     negative rho (up, down):  2.562E-02 0.000E+00

     total cpu time spent up to now is       68.1 secs

     total energy              =   -2246.22491437 Ry
     estimated scf accuracy    <       0.00082742 Ry

     iteration # 11     ecut=    80.00 Ry     beta= 0.70
     Davidson diagonalization with overlap
     ethr =  2.65E-07,  avg # of iterations =  2.0

     negative rho (up, down):  1.328E-02 0.000E+00

     total cpu time spent up to now is       75.8 secs

     total energy              =   -2246.22488333 Ry
     estimated scf accuracy    <       0.00015248 Ry

     iteration # 12     ecut=    80.00 Ry     beta= 0.70
     Davidson diagonalization with overlap
     ethr =  4.89E-08,  avg # of iterations =  6.0

     negative rho (up, down):  3.841E-03 0.000E+00

     total cpu time spent up to now is       83.6 secs

     total energy              =   -2246.22492573 Ry
     estimated scf accuracy    <       0.00002881 Ry

     iteration # 13     ecut=    80.00 Ry     beta= 0.70
     Davidson diagonalization with overlap
     ethr =  9.24E-09,  avg # of iterations =  5.0

     negative rho (up, down):  6.100E-04 0.000E+00

     total cpu time spent up to now is       93.7 secs

     total energy              =   -2246.22493886 Ry
     estimated scf accuracy    <       0.00000800 Ry

     iteration # 14     ecut=    80.00 Ry     beta= 0.70
     Davidson diagonalization with overlap
     ethr =  2.57E-09,  avg # of iterations =  4.0

     negative rho (up, down):  2.120E-04 0.000E+00

     total cpu time spent up to now is       97.3 secs

     End of self-consistent calculation

          k = 0.0000 0.0000 0.0000 (105382 PWs)   bands (ev):

   -63.0204 -62.9084 -62.8919 -62.8798 -62.8735 -62.8626 -62.8161 -62.7958
   -62.7798 -62.7748 -62.7613 -62.7373 -37.3197 -37.2363 -37.2088 -37.1926
   -37.1838 -37.1634 -37.1290 -37.1095 -37.1026 -37.0822 -37.0801 -37.0737
   -37.0652 -37.0582 -37.0510 -37.0430 -37.0378 -37.0266 -36.9909 -36.9757
   -36.9638 -36.9510 -36.9500 -36.9410 -36.9372 -36.9300 -36.9275 -36.9153
   -36.9066 -36.9000 -36.8815 -36.8739 -36.8467 -36.7972 -36.7722 -36.7190
   -23.5055 -15.9605 -15.2234 -15.1360 -15.0085 -14.9009 -14.8272 -14.6320
   -14.5072 -14.5020 -14.4318 -14.4005 -14.3547 -14.3221 -14.2730 -14.2024
   -14.1531 -14.1445 -14.0725 -14.0007 -13.8785 -13.8500 -13.8275 -13.4858
    -8.7376  -8.1977  -7.9749  -7.5434  -7.4236  -7.2977  -7.2848  -7.2117
    -7.1840  -7.0812  -7.0578  -6.7972  -6.7653  -6.7170  -6.6688  -6.6021
    -6.4678  -6.4342  -6.3062  -6.2674  -6.1796  -6.0871  -5.9813  -5.9472
    -5.8228  -5.7814  -5.7647  -5.7481  -5.6981  -5.6875  -5.6480  -5.5874
    -5.5237  -5.4696  -5.4121  -5.3354  -5.2490  -5.2150  -5.1186  -5.0180
    -5.0090  -4.9719  -4.8560  -4.7396  -4.7073  -4.5403  -4.4696  -4.4347
    -4.3457  -4.2895  -4.1548  -4.0698  -4.0046  -3.9101  -3.8740  -3.8208
    -3.8010  -3.7154  -3.6947  -3.6354  -3.6074  -3.5379  -3.5143  -3.4924
    -3.4316  -3.3803  -3.2954  -3.2596  -3.0048  -2.9865  -2.8906  -2.8352
    -2.8016  -2.7374  -2.6988  -2.6738  -2.6568  -2.5896  -2.5685  -2.3798
    -2.0916  -1.9847  -1.9391  -1.7103  -0.9515  -0.7800  -0.7287  -0.2161
    -0.1481  -0.1306  -0.0608   0.1022   0.1255   0.1868   0.2054   0.2274
     0.2575   0.2864   0.4034   0.4500   0.5083   0.5492   0.6179   0.6329
     0.6672   0.7022   0.7367   0.7691   0.7990   0.8486   0.9144   0.9393
     0.9696   1.0167   1.2656

     the Fermi energy is    -1.3309 ev

!    total energy              =   -2246.22494113 Ry
     estimated scf accuracy    <       0.00000078 Ry
     smearing contrib. (-TS)   =      -0.00000473 Ry
     internal energy E=F+TS    =   -2246.22493639 Ry

     The total energy is F=E-TS. E is the sum of the following terms:
     one-electron contribution =  -18496.73106783 Ry
     hartree contribution      =    9236.86799997 Ry
     xc contribution           =    -392.26467815 Ry
     ewald contribution        =    7415.75806603 Ry
     one-center paw contrib.   =      -9.85525641 Ry

     convergence has been achieved in  14 iterations

     negative rho (up, down):  2.120E-04 0.000E+00

     Forces acting on atoms (cartesian axes, Ry/au):

     atom    1 type  1   force =     0.01249362   -0.02081372    0.00136569
     atom    2 type  2   force =    -0.01695229    0.01045651   -0.00025563
     atom    3 type  2   force =    -0.00914174    0.00929059   -0.00725735
     atom    4 type  1   force =    -0.02682773   -0.02188042   -0.07280952
     atom    5 type  2   force =    -0.00015775   -0.00525224   -0.00370535
     atom    6 type  2   force =     0.00258406    0.01228196    0.00129625
     atom    7 type  1   force =     0.00280822   -0.00300109   -0.01209305
     atom    8 type  2   force =    -0.02305347    0.02460781   -0.01188014
     atom    9 type  2   force =     0.01302802    0.00788833    0.01237917
     atom   10 type  1   force =    -0.01076757    0.00477162   -0.02457476
     atom   11 type  2   force =     0.00635576   -0.00251917   -0.00699536
     atom   12 type  2   force =     0.00012336    0.00181231    0.00722324
     atom   13 type  1   force =     0.00374057    0.00715934   -0.00749786
     atom   14 type  2   force =     0.00777408   -0.00114786    0.01306841
     atom   15 type  2   force =    -0.01203840    0.00274977   -0.00720955
     atom   16 type  1   force =     0.00158763    0.00743712    0.00440219
     atom   17 type  2   force =     0.00676949    0.00015525    0.00289716
     atom   18 type  2   force =    -0.00026422   -0.00910511    0.01199880
     atom   19 type  1   force =     0.00406282   -0.00853697   -0.00805059
     atom   20 type  2   force =     0.00264360   -0.00660240    0.00007630
     atom   21 type  1   force =    -0.00642100    0.00637613   -0.00225880
     atom   22 type  2   force =    -0.00354160   -0.00167004   -0.00299133
     atom   23 type  2   force =    -0.00205658    0.00329922    0.01091202
     atom   24 type  1   force =    -0.01477251   -0.02863343   -0.00384094
     atom   25 type  2   force =     0.01851224    0.01295061    0.00432618
     atom   26 type  2   force =    -0.01344341    0.00066806   -0.00644354
     atom   27 type  1   force =     0.00926184   -0.00559802   -0.01733886
     atom   28 type  2   force =     0.03613305   -0.04612751   -0.13811736
     atom   29 type  2   force =     0.00219872   -0.00078610   -0.00273198
     atom   30 type  1   force =    -0.00242365    0.00526061    0.00031008
     atom   31 type  2   force =     0.00976660    0.00770842    0.00565406
     atom   32 type  2   force =    -0.01010195    0.00733430    0.00910408
     atom   33 type  1   force =     0.01516271   -0.00806403   -0.00704441
     atom   34 type  2   force =     0.00184045   -0.04021216   -0.00864425
     atom   35 type  2   force =    -0.00803026    0.01353567    0.01354019
     atom   36 type  3   force =     0.00314728    0.06420663    0.25318684
     The non-local contrib.  to forces
     atom    1 type  1   force =    -0.00137228    0.03652941   -0.01237347
     atom    2 type  2   force =    -0.00839510   -0.00169738   -0.26550529
     atom    3 type  2   force =    -0.01012477   -0.00190659    0.27529289
     atom    4 type  1   force =     0.01851307   -0.00774690    0.03731936
     atom    5 type  2   force =     0.00898395   -0.03006110   -0.25443428
     atom    6 type  2   force =     0.00062112    0.01434141    0.26590403
     atom    7 type  1   force =    -0.00741147   -0.01540160   -0.01127625
     atom    8 type  2   force =     0.02281391    0.00704232   -0.22867147
     atom    9 type  2   force =     0.01153154   -0.00395853    0.27572642
     atom   10 type  1   force =    -0.00349405   -0.00134232   -0.00017431
     atom   11 type  2   force =     0.02025074    0.00512759   -0.26190730
     atom   12 type  2   force =    -0.01025255   -0.01416913    0.26154341
     atom   13 type  1   force =     0.00397720    0.02016564   -0.00836644
     atom   14 type  2   force =     0.00965910   -0.00645042   -0.25955443
     atom   15 type  2   force =    -0.01396155   -0.00371056    0.26113975
     atom   16 type  1   force =     0.00083787    0.02794107   -0.01949546
     atom   17 type  2   force =    -0.00696209   -0.02554956   -0.24798747
     atom   18 type  2   force =    -0.00270451   -0.00427326    0.27501379
     atom   19 type  1   force =     0.00696633   -0.01064858   -0.01034904
     atom   20 type  2   force =    -0.00212298   -0.02731079    0.26467282
     atom   21 type  1   force =     0.00090362    0.02684866    0.00768243
     atom   22 type  2   force =    -0.01028125    0.00449594   -0.26294174
     atom   23 type  2   force =     0.00589687   -0.01193586    0.26443821
     atom   24 type  1   force =     0.01025987    0.01613073   -0.02458449
     atom   25 type  2   force =     0.01165468    0.00196005   -0.25538062
     atom   26 type  2   force =    -0.00619187   -0.01367666    0.26676377
     atom   27 type  1   force =    -0.01821432   -0.01395131    0.03182985
     atom   28 type  2   force =    -0.05964776    0.23704613    0.06847128
     atom   29 type  2   force =     0.01009211    0.00049382    0.25870324
     atom   30 type  1   force =    -0.00238516    0.01802355    0.01134900
     atom   31 type  2   force =     0.00758337    0.02341447   -0.24828193
     atom   32 type  2   force =    -0.00632435   -0.00503908    0.27000804
     atom   33 type  1   force =     0.00125092    0.00192934    0.00544367
     atom   34 type  2   force =    -0.00090993   -0.03742120   -0.27457420
     atom   35 type  2   force =    -0.00263134   -0.00855302    0.27000039
     atom   36 type  3   force =     0.40656732   -1.75787057   -0.92675652
     The ionic contribution  to forces
     atom    1 type  1   force =    -0.31725640   -0.76168694    4.38918092
     atom    2 type  2   force =    -0.91804811   -0.27881311   39.07401057
     atom    3 type  2   force =    -0.24464668   -0.19150276  -36.69383525
     atom    4 type  1   force =    -2.57929570   -0.16839886   -4.79284316
     atom    5 type  2   force =    -2.31704348    0.86485161   38.25854951
     atom    6 type  2   force =     0.12481303   -0.66301609  -38.81517255
     atom    7 type  1   force =    -3.52253669   -1.76442535    0.97025285
     atom    8 type  2   force =    -3.42783643    2.74102117   35.72167176
     atom    9 type  2   force =     0.13302056    0.22175710  -39.03644545
     atom   10 type  1   force =    -1.36130541   -0.02188969    4.63304347
     atom   11 type  2   force =    -0.81640910   -1.23493952   38.98283790
     atom   12 type  2   force =     0.35581791    0.82159810  -38.37723599
     atom   13 type  1   force =     0.99743908    0.18899697    1.68166797
     atom   14 type  2   force =     0.01790765   -0.26375004   38.38121018
     atom   15 type  2   force =     0.13663143   -0.18006288  -37.29205000
     atom   16 type  1   force =    -0.25253153    3.80501536   -1.05159371
     atom   17 type  2   force =     1.69703250    1.04807296   37.54629222
     atom   18 type  2   force =     0.00311147   -0.77834151  -39.28323360
     atom   19 type  1   force =     3.39324936   -1.61971249   -0.76572511
     atom   20 type  2   force =     0.19599840   -0.07605599  -39.11898885
     atom   21 type  1   force =    -0.01698551    0.19192432    0.34113704
     atom   22 type  2   force =     0.65186261   -1.40709447   38.27565556
     atom   23 type  2   force =    -0.01925932    0.77711574  -38.79205669
     atom   24 type  1   force =    -0.35574157   -0.90761683    3.73865241
     atom   25 type  2   force =     0.95316123   -0.28393372   39.07402352
     atom   26 type  2   force =    -0.19009302   -0.12030319  -37.91716699
     atom   27 type  1   force =     2.52815445   -0.12587141   -6.37113810
     atom   28 type  2   force =     1.79582601   -6.75300865   33.13201745
     atom   29 type  2   force =    -0.21757793   -0.73411119  -38.48937280
     atom   30 type  1   force =    -0.06303797    1.61753847   -3.18518396
     atom   31 type  2   force =     3.31580648    1.62980360   36.21708983
     atom   32 type  2   force =    -0.25103492    0.21716254  -39.57438719
     atom   33 type  1   force =     1.10253019   -0.62265635    1.06618117
     atom   34 type  2   force =     0.30000833   -0.76392400   39.13784492
     atom   35 type  2   force =    -0.28263968    0.67105769  -38.43015377
     atom   36 type  3   force =    -0.54909123    4.92519942   47.36526393
     The local contribution  to forces
     atom    1 type  1   force =     0.33140023    0.70525791   -4.37584710
     atom    2 type  2   force =     0.90957910    0.29129245  -38.82970893
     atom    3 type  2   force =     0.24530177    0.20286010   36.43251692
     atom    4 type  1   force =     2.53389723    0.15457813    4.68248461
     atom    5 type  2   force =     2.30887786   -0.84158405  -38.02869444
     atom    6 type  2   force =    -0.12306000    0.66242880   38.57168594
     atom    7 type  1   force =     3.53323465    1.77626917   -0.97163390
     atom    8 type  2   force =     3.38253524   -2.72305632  -35.52488564
     atom    9 type  2   force =    -0.13118129   -0.21024514   38.79418650
     atom   10 type  1   force =     1.35426188    0.02765356   -4.65794304
     atom   11 type  2   force =     0.80355892    1.22758712  -38.74911569
     atom   12 type  2   force =    -0.34643655   -0.80709536   38.14371962
     atom   13 type  1   force =    -0.99783529   -0.20119762   -1.68129982
     atom   14 type  2   force =    -0.01924409    0.26933034  -38.12946506
     atom   15 type  2   force =    -0.13545070    0.18637257   37.04425667
     atom   16 type  1   force =     0.25343340   -3.82557186    1.07511040
     atom   17 type  2   force =    -1.68392267   -1.02353106  -37.31594510
     atom   18 type  2   force =    -0.00064196    0.77419712   39.04136875
     atom   19 type  1   force =    -3.39646804    1.62123572    0.76735403
     atom   20 type  2   force =    -0.19140841    0.09546288   38.87544161
     atom   21 type  1   force =     0.00977799   -0.21276258   -0.35171216
     atom   22 type  2   force =    -0.64552382    1.40131972  -38.03684000
     atom   23 type  2   force =     0.01176747   -0.76316975   38.55921198
     atom   24 type  1   force =     0.33056268    0.86345224   -3.71809734
     atom   25 type  2   force =    -0.94639379    0.29553339  -38.83522265
     atom   26 type  2   force =     0.18269754    0.13407446   37.66507448
     atom   27 type  1   force =    -2.50073777    0.13458659    6.32167235
     atom   28 type  2   force =    -1.70350178    6.48240771  -33.34184544
     atom   29 type  2   force =     0.21041062    0.73355841   38.24844950
     atom   30 type  1   force =     0.06284868   -1.63102887    3.17382239
     atom   31 type  2   force =    -3.31320353   -1.64455975  -35.98406310
     atom   32 type  2   force =     0.24715663   -0.20531214   39.33439454
     atom   33 type  1   force =    -1.08894880    0.61242932   -1.07919421
     atom   34 type  2   force =    -0.29769042    0.75978226  -38.89354182
     atom   35 type  2   force =     0.27730317   -0.64996570   38.19483164
     atom   36 type  3   force =     0.15010491   -3.12145648  -46.19411230
     The core correction contribution to forces
     atom    1 type  1   force =     0.00000000    0.00000000    0.00000000
     atom    2 type  2   force =     0.00005064   -0.00006012    0.02049446
     atom    3 type  2   force =     0.00041539   -0.00000503   -0.02111183
     atom    4 type  1   force =     0.00000000    0.00000000    0.00000000
     atom    5 type  2   force =    -0.00080606    0.00178029    0.02039275
     atom    6 type  2   force =     0.00024018   -0.00118041   -0.02097812
     atom    7 type  1   force =     0.00000000    0.00000000    0.00000000
     atom    8 type  2   force =    -0.00045324   -0.00062590    0.01958675
     atom    9 type  2   force =    -0.00035283    0.00018928   -0.02092905
     atom   10 type  1   force =     0.00000000    0.00000000    0.00000000
     atom   11 type  2   force =    -0.00094035   -0.00053760    0.02075842
     atom   12 type  2   force =     0.00101462    0.00120414   -0.02078978
     atom   13 type  1   force =     0.00000000    0.00000000    0.00000000
     atom   14 type  2   force =    -0.00049309   -0.00011443    0.02048545
     atom   15 type  2   force =     0.00075886    0.00028074   -0.02057931
     atom   16 type  1   force =     0.00000000    0.00000000    0.00000000
     atom   17 type  2   force =     0.00050166    0.00143556    0.02010834
     atom   18 type  2   force =    -0.00004207   -0.00039548   -0.02108600
     atom   19 type  1   force =     0.00000000    0.00000000    0.00000000
     atom   20 type  2   force =     0.00025050    0.00113361   -0.02112193
     atom   21 type  1   force =     0.00000000    0.00000000    0.00000000
     atom   22 type  2   force =     0.00032723   -0.00053955    0.02075997
     atom   23 type  2   force =    -0.00047649    0.00110895   -0.02073083
     atom   24 type  1   force =     0.00000000    0.00000000    0.00000000
     atom   25 type  2   force =    -0.00011034   -0.00040261    0.02045662
     atom   26 type  2   force =     0.00003724    0.00069656   -0.02103749
     atom   27 type  1   force =     0.00000000    0.00000000    0.00000000
     atom   28 type  2   force =     0.00344234   -0.01247821    0.00299694
     atom   29 type  2   force =    -0.00074921   -0.00047946   -0.02039198
     atom   30 type  1   force =     0.00000000    0.00000000    0.00000000
     atom   31 type  2   force =    -0.00065263   -0.00123576    0.02055164
     atom   32 type  2   force =     0.00004345    0.00032759   -0.02084792
     atom   33 type  1   force =     0.00000000    0.00000000    0.00000000
     atom   34 type  2   force =     0.00038876    0.00112115    0.02121050
     atom   35 type  2   force =    -0.00007157    0.00077398   -0.02107901
     atom   36 type  3   force =    -0.00441438    0.01820642    0.00844361
     The Hubbard contrib.    to forces
     atom    1 type  1   force =     0.00000000    0.00000000    0.00000000
     atom    2 type  2   force =     0.00000000    0.00000000    0.00000000
     atom    3 type  2   force =     0.00000000    0.00000000    0.00000000
     atom    4 type  1   force =     0.00000000    0.00000000    0.00000000
     atom    5 type  2   force =     0.00000000    0.00000000    0.00000000
     atom    6 type  2   force =     0.00000000    0.00000000    0.00000000
     atom    7 type  1   force =     0.00000000    0.00000000    0.00000000
     atom    8 type  2   force =     0.00000000    0.00000000    0.00000000
     atom    9 type  2   force =     0.00000000    0.00000000    0.00000000
     atom   10 type  1   force =     0.00000000    0.00000000    0.00000000
     atom   11 type  2   force =     0.00000000    0.00000000    0.00000000
     atom   12 type  2   force =     0.00000000    0.00000000    0.00000000
     atom   13 type  1   force =     0.00000000    0.00000000    0.00000000
     atom   14 type  2   force =     0.00000000    0.00000000    0.00000000
     atom   15 type  2   force =     0.00000000    0.00000000    0.00000000
     atom   16 type  1   force =     0.00000000    0.00000000    0.00000000
     atom   17 type  2   force =     0.00000000    0.00000000    0.00000000
     atom   18 type  2   force =     0.00000000    0.00000000    0.00000000
     atom   19 type  1   force =     0.00000000    0.00000000    0.00000000
     atom   20 type  2   force =     0.00000000    0.00000000    0.00000000
     atom   21 type  1   force =     0.00000000    0.00000000    0.00000000
     atom   22 type  2   force =     0.00000000    0.00000000    0.00000000
     atom   23 type  2   force =     0.00000000    0.00000000    0.00000000
     atom   24 type  1   force =     0.00000000    0.00000000    0.00000000
     atom   25 type  2   force =     0.00000000    0.00000000    0.00000000
     atom   26 type  2   force =     0.00000000    0.00000000    0.00000000
     atom   27 type  1   force =     0.00000000    0.00000000    0.00000000
     atom   28 type  2   force =     0.00000000    0.00000000    0.00000000
     atom   29 type  2   force =     0.00000000    0.00000000    0.00000000
     atom   30 type  1   force =     0.00000000    0.00000000    0.00000000
     atom   31 type  2   force =     0.00000000    0.00000000    0.00000000
     atom   32 type  2   force =     0.00000000    0.00000000    0.00000000
     atom   33 type  1   force =     0.00000000    0.00000000    0.00000000
     atom   34 type  2   force =     0.00000000    0.00000000    0.00000000
     atom   35 type  2   force =     0.00000000    0.00000000    0.00000000
     atom   36 type  3   force =     0.00000000    0.00000000    0.00000000
     The SCF correction term to forces
     atom    1 type  1   force =    -0.00027964   -0.00090990    0.00040010
     atom    2 type  2   force =    -0.00014052   -0.00026112    0.00044830
     atom    3 type  2   force =    -0.00008915   -0.00015093   -0.00012532
     atom    4 type  1   force =     0.00005597   -0.00030859    0.00022442
     atom    5 type  2   force =    -0.00017172   -0.00023479    0.00047587
     atom    6 type  2   force =    -0.00003198   -0.00028754   -0.00014829
     atom    7 type  1   force =    -0.00047999    0.00056090    0.00055901
     atom    8 type  2   force =    -0.00011464    0.00023074    0.00041321
     atom    9 type  2   force =     0.00000833    0.00014982   -0.00016450
     atom   10 type  1   force =    -0.00023170    0.00035428    0.00049386
     atom   11 type  2   force =    -0.00010617    0.00024745    0.00042606
     atom   12 type  2   force =    -0.00002178    0.00027876   -0.00001928
     atom   13 type  1   force =     0.00015788   -0.00080144    0.00049519
     atom   14 type  2   force =    -0.00005719   -0.00015911    0.00038701
     atom   15 type  2   force =    -0.00001814   -0.00012589    0.00001808
     atom   16 type  1   force =    -0.00015382    0.00005676    0.00037571
     atom   17 type  2   force =     0.00011839   -0.00026846    0.00042392
     atom   18 type  2   force =     0.00001113   -0.00028777   -0.00006939
     atom   19 type  1   force =     0.00031347    0.00059259    0.00066428
     atom   20 type  2   force =    -0.00007561    0.00017209    0.00006741
     atom   21 type  1   force =    -0.00011880    0.00036994    0.00062863
     atom   22 type  2   force =     0.00007193    0.00015254    0.00036963
     atom   23 type  2   force =     0.00001319    0.00018435    0.00004411
     atom   24 type  1   force =     0.00014480   -0.00059536    0.00018324
     atom   25 type  2   force =     0.00019876   -0.00020229    0.00044405
     atom   26 type  2   force =     0.00010499   -0.00011890   -0.00008256
     atom   27 type  1   force =     0.00005778   -0.00035768    0.00029179
     atom   28 type  2   force =     0.00001253   -0.00009028    0.00023716
     atom   29 type  2   force =     0.00002142   -0.00024347   -0.00012520
     atom   30 type  1   force =     0.00014910    0.00073166    0.00031741
     atom   31 type  2   force =     0.00023120    0.00029007    0.00035238
     atom   32 type  2   force =     0.00005553    0.00019960   -0.00006863
     atom   33 type  1   force =     0.00032870    0.00023788    0.00051972
     atom   34 type  2   force =     0.00004201    0.00023385    0.00041110
     atom   35 type  2   force =     0.00000744    0.00022693   -0.00006431
     atom   36 type  3   force =    -0.00002105    0.00013205    0.00034288

     Total force =     0.328495     Total SCF correction =     0.003173

     BFGS Geometry Optimization
     Energy error            =      0.0E+00 Ry
     Gradient error          =      2.5E-01 Ry/Bohr

     number of scf cycles    =   1
     number of bfgs steps    =   0

     energy             new  =   -2246.2249411271 Ry

     new trust radius        =       0.2612201569 bohr
     new conv_thr            =       0.0000010000 Ry


ATOMIC_POSITIONS (angstrom)
Mo            6.5811597460        1.7767920840        2.8243657234
S             8.1677385754        0.8152373714        4.4344030793
S             8.1883954852        0.8161581118        1.2740430004
Mo            8.0809659437        4.4834783249        2.6792892523
S             6.4998257799        3.7196321220        4.3446998635
S             6.5547172222        3.5182368908        1.1219661765
Mo            6.4914677402        7.2168491774        2.6654851184
S             8.0695283557        6.3568928827        4.2361748653
S             8.0878117765        6.3088766396        1.0904137717
Mo            8.1549210938        9.9047054474        2.8304573559
S             6.4985309179        8.9415937249        4.3794037473
S             6.6180124798        9.0496702457        1.1437296751
Mo            3.4236390852        1.7507444097        2.7725034674
S             4.9792793578        0.8163337852        4.3574485953
S             5.0514633090        0.8477172251        1.2228433327
Mo            4.9805968212        4.5171135579        2.6352140866
S             3.4314239238        3.6716818383        4.2812426882
S             3.4377807615        3.5434104825        1.0647011722
Mo            3.4560116944        7.2118069707        2.6264166730
S             4.9846331253        6.3234384470        1.0372941087
Mo            5.0088660742        9.9049741553        2.7422056526
S             3.4690839831        8.9428675222        4.3240083663
S             3.4073408727        9.0667358563        1.1018426915
Mo            0.2882732129        1.7323573748        2.8474121736
S             1.8602584660        0.7995471762        4.4004987525
S             1.8536860865        0.8547794398        1.2059910784
Mo            1.8655924646        4.4927044152        2.6510220510
S             0.2913346343        3.6299891998        4.2644955398
S             0.2323947209        3.5268332403        1.1705721801
Mo            0.2698696133        7.2194298874        2.7018605171
S             1.9074065103        6.3168779556        4.2254361231
S             1.8568924915        6.3142249556        1.0493769565
Mo            1.8523704231        9.9358718549        2.7692185101
S             0.2968868258        9.0687184699        4.4092951236
S             0.2725219682        9.0506884845        1.1575659375
O             9.4584254699        4.8912655728        5.2478501696



     Writing config-only to output data dir ./MoS2-V-O.save/
     NEW-OLD atomic charge density approx. for the potential

     negative rho (up, down):  1.973E-04 0.000E+00

     total cpu time spent up to now is      104.5 secs

     Self-consistent Calculation

     iteration #  1     ecut=    80.00 Ry     beta= 0.70
     Davidson diagonalization with overlap
     ethr =  1.00E-06,  avg # of iterations = 16.0

     negative rho (up, down):  1.659E-03 0.000E+00

     total cpu time spent up to now is      122.2 secs

     total energy              =   -2246.27629845 Ry
     estimated scf accuracy    <       0.01880107 Ry

     iteration #  2     ecut=    80.00 Ry     beta= 0.70
     Davidson diagonalization with overlap
     ethr =  6.03E-06,  avg # of iterations =  5.0

     negative rho (up, down):  2.634E-03 0.000E+00

     total cpu time spent up to now is      137.5 secs

     total energy              =   -2246.27773057 Ry
     estimated scf accuracy    <       0.01133635 Ry

     iteration #  3     ecut=    80.00 Ry     beta= 0.70
     Davidson diagonalization with overlap
     ethr =  3.63E-06,  avg # of iterations =  3.0

     negative rho (up, down):  4.539E-03 0.000E+00

     total cpu time spent up to now is      150.0 secs

     total energy              =   -2246.27740841 Ry
     estimated scf accuracy    <       0.00197096 Ry

     iteration #  4     ecut=    80.00 Ry     beta= 0.70
     Davidson diagonalization with overlap
     ethr =  6.32E-07,  avg # of iterations =  5.0

     negative rho (up, down):  4.827E-03 0.000E+00

     total cpu time spent up to now is      163.4 secs

     total energy              =   -2246.27768881 Ry
     estimated scf accuracy    <       0.00083646 Ry

     iteration #  5     ecut=    80.00 Ry     beta= 0.70
     Davidson diagonalization with overlap
     ethr =  2.68E-07,  avg # of iterations =  2.0

     negative rho (up, down):  4.758E-03 0.000E+00

     total cpu time spent up to now is      174.1 secs

     total energy              =   -2246.27761504 Ry
     estimated scf accuracy    <       0.00034334 Ry

     iteration #  6     ecut=    80.00 Ry     beta= 0.70
     Davidson diagonalization with overlap
     ethr =  1.10E-07,  avg # of iterations =  6.0

     negative rho (up, down):  4.070E-03 0.000E+00

     total cpu time spent up to now is      184.4 secs

     total energy              =   -2246.27766527 Ry
     estimated scf accuracy    <       0.00020033 Ry

     iteration #  7     ecut=    80.00 Ry     beta= 0.70
     Davidson diagonalization with overlap
     ethr =  6.42E-08,  avg # of iterations =  4.0

     negative rho (up, down):  2.977E-03 0.000E+00

     total cpu time spent up to now is      193.9 secs

     total energy              =   -2246.27767777 Ry
     estimated scf accuracy    <       0.00001181 Ry

     iteration #  8     ecut=    80.00 Ry     beta= 0.70
     Davidson diagonalization with overlap
     ethr =  3.79E-09,  avg # of iterations =  6.0

     negative rho (up, down):  2.144E-03 0.000E+00

     total cpu time spent up to now is      202.9 secs

     total energy              =   -2246.27767367 Ry
     estimated scf accuracy    <       0.00000779 Ry

     iteration #  9     ecut=    80.00 Ry     beta= 0.70
     Davidson diagonalization with overlap
     ethr =  2.50E-09,  avg # of iterations =  2.0

     negative rho (up, down):  1.043E-03 0.000E+00

     total cpu time spent up to now is      212.9 secs

     total energy              =   -2246.27766617 Ry
     estimated scf accuracy    <       0.00000357 Ry

     iteration # 10     ecut=    80.00 Ry     beta= 0.70
     Davidson diagonalization with overlap
     ethr =  1.15E-09,  avg # of iterations =  5.0

     negative rho (up, down):  2.054E-04 0.000E+00

     total cpu time spent up to now is      216.5 secs

     End of self-consistent calculation

          k = 0.0000 0.0000 0.0000 (105382 PWs)   bands (ev):

   -63.0309 -62.9549 -62.9379 -62.9313 -62.9253 -62.9116 -62.8793 -62.8632
   -62.8404 -62.8266 -62.8210 -62.8056 -37.3479 -37.2774 -37.2420 -37.2364
   -37.2297 -37.2117 -37.1892 -37.1587 -37.1515 -37.1415 -37.1354 -37.1206
   -37.1148 -37.1087 -37.1036 -37.0956 -37.0919 -37.0844 -37.0546 -37.0408
   -37.0253 -37.0079 -37.0013 -36.9994 -36.9865 -36.9818 -36.9778 -36.9773
   -36.9603 -36.9591 -36.9540 -36.9262 -36.9159 -36.8769 -36.8230 -36.7649
   -21.3148 -16.0168 -15.2894 -15.1773 -15.0584 -14.9676 -14.8531 -14.6668
   -14.5611 -14.5452 -14.4925 -14.4548 -14.4150 -14.3782 -14.3232 -14.2695
   -14.2082 -14.1890 -14.1407 -14.0368 -13.9489 -13.9126 -13.8897 -13.7907
    -8.1157  -7.7944  -7.6690  -7.5516  -7.4320  -7.3639  -7.3386  -7.2689
    -7.2378  -7.0524  -7.0212  -6.8579  -6.7976  -6.7564  -6.7159  -6.6330
    -6.5165  -6.5031  -6.3582  -6.3244  -6.1509  -6.0853  -6.0375  -6.0012
    -5.8841  -5.8360  -5.7953  -5.7875  -5.7572  -5.7491  -5.7012  -5.6456
    -5.5554  -5.5118  -5.4567  -5.3316  -5.2988  -5.2421  -5.1645  -5.0657
    -5.0628  -5.0184  -4.9076  -4.7894  -4.6946  -4.5760  -4.4761  -4.4209
    -4.4093  -4.3365  -4.1994  -4.1336  -3.9871  -3.9393  -3.9209  -3.8575
    -3.8424  -3.7681  -3.7414  -3.6963  -3.6407  -3.6022  -3.5650  -3.5572
    -3.4865  -3.4641  -3.2981  -3.2964  -3.0399  -3.0244  -2.9372  -2.8764
    -2.8677  -2.7911  -2.7598  -2.7314  -2.7123  -2.6369  -2.5920  -2.4092
    -2.1410  -2.0551  -2.0304  -1.7697  -0.9391  -0.8257  -0.7626  -0.2706
    -0.2014  -0.1682  -0.1023   0.0501   0.0745   0.1512   0.1708   0.1880
     0.2111   0.2396   0.3370   0.3959   0.4646   0.4935   0.5609   0.5803
     0.6163   0.6512   0.6857   0.7023   0.7541   0.8137   0.8523   0.8888
     0.9294   0.9835   1.2397

     the Fermi energy is    -1.3544 ev

!    total energy              =   -2246.27766321 Ry
     estimated scf accuracy    <       0.00000077 Ry
     smearing contrib. (-TS)   =      -0.00000102 Ry
     internal energy E=F+TS    =   -2246.27766219 Ry

     The total energy is F=E-TS. E is the sum of the following terms:
     one-electron contribution =  -18482.73309661 Ry
     hartree contribution      =    9229.42354345 Ry
     xc contribution           =    -392.11702594 Ry
     ewald contribution        =    7409.01405797 Ry
     one-center paw contrib.   =      -9.86514107 Ry

     convergence has been achieved in  10 iterations

     negative rho (up, down):  2.054E-04 0.000E+00

     Forces acting on atoms (cartesian axes, Ry/au):

     atom    1 type  1   force =     0.00126308   -0.01188544   -0.00123951
     atom    2 type  2   force =    -0.01356370    0.00407459    0.00097928
     atom    3 type  2   force =    -0.01019828    0.00578828   -0.01141333
     atom    4 type  1   force =    -0.00672673    0.00584998   -0.01687629
     atom    5 type  2   force =     0.00292925   -0.00448971   -0.00857746
     atom    6 type  2   force =    -0.00711825    0.00224015   -0.00775630
     atom    7 type  1   force =    -0.00022162    0.00009397   -0.00878031
     atom    8 type  2   force =    -0.00330900   -0.00657853   -0.00745931
     atom    9 type  2   force =     0.01092143    0.00879135    0.00188499
     atom   10 type  1   force =    -0.00589759    0.00574774   -0.01064238
     atom   11 type  2   force =     0.00425672   -0.00076151   -0.00835814
     atom   12 type  2   force =    -0.00240736    0.00177442    0.00126335
     atom   13 type  1   force =     0.00434019    0.00283911   -0.00294025
     atom   14 type  2   force =     0.00575052   -0.00057347    0.00869768
     atom   15 type  2   force =    -0.00883691    0.00265275   -0.00660089
     atom   16 type  1   force =     0.00122231    0.00305393    0.00572415
     atom   17 type  2   force =     0.00603070    0.00123000    0.00123559
     atom   18 type  2   force =     0.00231046   -0.00768324    0.00634189
     atom   19 type  1   force =     0.00370921   -0.00459044   -0.00372628
     atom   20 type  2   force =     0.00267814   -0.00594599   -0.00458742
     atom   21 type  1   force =    -0.00422510    0.00353182    0.00139232
     atom   22 type  2   force =    -0.00150986   -0.00265889   -0.00284251
     atom   23 type  2   force =    -0.00065432    0.00144773    0.00595084
     atom   24 type  1   force =    -0.00740587   -0.03202502   -0.01253009
     atom   25 type  2   force =     0.01514853    0.00812734    0.00160062
     atom   26 type  2   force =    -0.00871374   -0.00129684   -0.00531088
     atom   27 type  1   force =     0.00953884    0.00761179   -0.00600497
     atom   28 type  2   force =    -0.01712403    0.14050812    0.02418309
     atom   29 type  2   force =     0.00378804   -0.00624975   -0.01090058
     atom   30 type  1   force =    -0.00191095    0.00177433    0.00198077
     atom   31 type  2   force =     0.00346798   -0.00033710    0.00238204
     atom   32 type  2   force =    -0.00814475    0.00627397    0.00441036
     atom   33 type  1   force =     0.00739781   -0.00178095   -0.00046941
     atom   34 type  2   force =     0.00018619   -0.03086386   -0.01148186
     atom   35 type  2   force =    -0.00564761    0.01106615    0.00819881
     atom   36 type  3   force =     0.02867625   -0.10675678    0.07227239
     The non-local contrib.  to forces
     atom    1 type  1   force =     0.00076659    0.03346163   -0.01353176
     atom    2 type  2   force =    -0.00581622   -0.00515174   -0.26505207
     atom    3 type  2   force =    -0.01088682   -0.00548271    0.26965378
     atom    4 type  1   force =     0.00485076   -0.00244030    0.03528319
     atom    5 type  2   force =     0.00549754   -0.03202018   -0.25999766
     atom    6 type  2   force =    -0.00573705    0.00650868    0.26062100
     atom    7 type  1   force =    -0.00726341   -0.01642252   -0.01150812
     atom    8 type  2   force =     0.04033764   -0.02075098   -0.22502061
     atom    9 type  2   force =     0.00724963   -0.00784771    0.27220122
     atom   10 type  1   force =    -0.00521975   -0.00198963   -0.00076746
     atom   11 type  2   force =     0.01636935    0.00615146   -0.26421514
     atom   12 type  2   force =    -0.01127854   -0.01436823    0.25956741
     atom   13 type  1   force =     0.00428048    0.02252809   -0.00914372
     atom   14 type  2   force =     0.00874400   -0.00556466   -0.26307433
     atom   15 type  2   force =    -0.01147343   -0.00411413    0.26187967
     atom   16 type  1   force =     0.00193735    0.02836377   -0.02224276
     atom   17 type  2   force =    -0.00435466   -0.02513678   -0.25248493
     atom   18 type  2   force =    -0.00129311   -0.00292517    0.27125552
     atom   19 type  1   force =     0.00613052   -0.01091696   -0.00913841
     atom   20 type  2   force =    -0.00171244   -0.02553963    0.26310621
     atom   21 type  1   force =     0.00006528    0.02789974    0.00616583
     atom   22 type  2   force =    -0.00768565    0.00303384   -0.26401675
     atom   23 type  2   force =     0.00657669   -0.01386312    0.26226958
     atom   24 type  1   force =     0.00689964    0.01881846   -0.02257647
     atom   25 type  2   force =     0.00730243   -0.00065854   -0.25990816
     atom   26 type  2   force =    -0.00165033   -0.01499522    0.26732507
     atom   27 type  1   force =    -0.00807135   -0.00825285    0.02640998
     atom   28 type  2   force =    -0.09165275    0.32600050    0.20283588
     atom   29 type  2   force =     0.00825347   -0.00236914    0.25778017
     atom   30 type  1   force =    -0.00252809    0.01890432    0.01033172
     atom   31 type  2   force =    -0.00196580    0.01366919   -0.25463448
     atom   32 type  2   force =    -0.00397041   -0.00848633    0.26853144
     atom   33 type  1   force =     0.00337573   -0.00056846    0.00491427
     atom   34 type  2   force =    -0.00260740   -0.03032870   -0.27934821
     atom   35 type  2   force =    -0.00091830   -0.01064878    0.26832430
     atom   36 type  3   force =     0.32127277   -1.36417538   -0.95897264
     The ionic contribution  to forces
     atom    1 type  1   force =    -0.57986673   -0.51210324    4.59639026
     atom    2 type  2   force =    -0.79953485   -0.33453546   39.23454146
     atom    3 type  2   force =    -0.22869891   -0.18602315  -36.83365625
     atom    4 type  1   force =    -1.86210318    0.21579298   -5.44027758
     atom    5 type  2   force =    -2.06467676    0.95070142   38.24770522
     atom    6 type  2   force =    -0.10159116   -0.81367856  -38.84744136
     atom    7 type  1   force =    -3.52478903   -1.75629451    0.84249408
     atom    8 type  2   force =    -3.15090620    2.14522491   35.54243866
     atom    9 type  2   force =     0.20548757    0.30793307  -38.94595981
     atom   10 type  1   force =    -1.13967176   -0.10448219    4.37316097
     atom   11 type  2   force =    -0.81233621   -1.24640862   38.96021867
     atom   12 type  2   force =     0.27660236    0.78392971  -38.36408047
     atom   13 type  1   force =     0.93454582    0.14101749    1.68690181
     atom   14 type  2   force =    -0.04443528   -0.22431423   38.47907944
     atom   15 type  2   force =     0.13766172   -0.14719902  -37.31625401
     atom   16 type  1   force =    -0.28462781    3.71454033   -0.65968187
     atom   17 type  2   force =     1.59501448    1.07446069   37.60764403
     atom   18 type  2   force =     0.04518046   -0.75195401  -39.23362424
     atom   19 type  1   force =     3.31559851   -1.62516239   -0.83068119
     atom   20 type  2   force =     0.15947234   -0.06252122  -39.15045634
     atom   21 type  1   force =    -0.02378391    0.12721302    0.47115456
     atom   22 type  2   force =     0.66781054   -1.43694818   38.30238600
     atom   23 type  2   force =    -0.00278406    0.72758751  -38.76546456
     atom   24 type  1   force =    -0.13615564   -0.90315923    3.91383655
     atom   25 type  2   force =     0.88549770   -0.30260902   39.09578670
     atom   26 type  2   force =    -0.14922705   -0.10821362  -37.88596499
     atom   27 type  1   force =     2.17022593    0.14846068   -6.34282249
     atom   28 type  2   force =     1.17398052   -4.53407766   32.91243340
     atom   29 type  2   force =    -0.07785205   -0.75289361  -38.42463493
     atom   30 type  1   force =    -0.02416485    1.13272308   -2.81376051
     atom   31 type  2   force =     3.12026140    1.40051676   36.17479651
     atom   32 type  2   force =    -0.27798480    0.22055583  -39.47555475
     atom   33 type  1   force =     0.92751872   -0.48450003    1.19185207
     atom   34 type  2   force =     0.26005592   -0.59549187   39.06217708
     atom   35 type  2   force =    -0.21803753    0.62217527  -38.34110931
     atom   36 type  3   force =    -0.37168624    3.16973707   46.97642721
     The local contribution  to forces
     atom    1 type  1   force =     0.58039514    0.46644927   -4.58431379
     atom    2 type  2   force =     0.79168781    0.34363322  -38.98908331
     atom    3 type  2   force =     0.22882236    0.19700499   36.57340086
     atom    4 type  1   force =     1.85016380   -0.20767375    5.38737854
     atom    5 type  2   force =     2.06244797   -0.92519672  -38.01707571
     atom    6 type  2   force =     0.09997762    0.81043360   38.59974514
     atom    7 type  1   force =     3.53157775    1.77305022   -0.84023458
     atom    8 type  2   force =     3.10819129   -2.13114219  -35.34456764
     atom    9 type  2   force =    -0.20179455   -0.29180759   38.69628135
     atom   10 type  1   force =     1.13874741    0.11223267   -4.38342811
     atom   11 type  2   force =     0.80087601    1.24017115  -38.72518797
     atom   12 type  2   force =    -0.26873141   -0.76898373   38.12641065
     atom   13 type  1   force =    -0.93431685   -0.16087414   -1.68099151
     atom   14 type  2   force =     0.04196545    0.22930974  -38.22789363
     atom   15 type  2   force =    -0.13569316    0.15356954   37.06825660
     atom   16 type  1   force =     0.28390986   -3.73976492    0.68726571
     atom   17 type  2   force =    -1.58490829   -1.04955374  -37.37436859
     atom   18 type  2   force =    -0.04156599    0.74765756   38.98956264
     atom   19 type  1   force =    -3.31789107    1.63170886    0.83578633
     atom   20 type  2   force =    -0.15528189    0.08111304   38.90371236
     atom   21 type  1   force =     0.01949222   -0.15159448   -0.47611139
     atom   22 type  2   force =    -0.66181956    1.43184476  -38.06202535
     atom   23 type  2   force =    -0.00396450   -0.71342675   38.52973811
     atom   24 type  1   force =     0.12172437    0.85217902   -3.90399757
     atom   25 type  2   force =    -0.87763199    0.31153359  -38.85480420
     atom   26 type  2   force =     0.14240976    0.12102712   37.63412410
     atom   27 type  1   force =    -2.15226976   -0.13262253    6.30995673
     atom   28 type  2   force =    -1.10456469    4.36655462  -33.08673892
     atom   29 type  2   force =     0.07387185    0.74952098   38.17602235
     atom   30 type  1   force =     0.02488523   -1.14940366    2.80491246
     atom   31 type  2   force =    -3.11424755   -1.41344026  -35.93887389
     atom   32 type  2   force =     0.27396174   -0.20632333   39.23205332
     atom   33 type  1   force =    -0.92325965    0.48312550   -1.19751706
     atom   34 type  2   force =    -0.25762699    0.59411472  -38.81568683
     atom   35 type  2   force =     0.21341508   -0.60130200   38.10185684
     atom   36 type  3   force =     0.08295149   -1.92792386  -45.95508936
     The core correction contribution to forces
     atom    1 type  1   force =     0.00000000    0.00000000    0.00000000
     atom    2 type  2   force =    -0.00004343    0.00002643    0.02060583
     atom    3 type  2   force =     0.00045920    0.00019631   -0.02098242
     atom    4 type  1   force =     0.00000000    0.00000000    0.00000000
     atom    5 type  2   force =    -0.00044026    0.00191759    0.02071747
     atom    6 type  2   force =     0.00026217   -0.00100507   -0.02084460
     atom    7 type  1   force =     0.00000000    0.00000000    0.00000000
     atom    8 type  2   force =    -0.00119537    0.00035913    0.01943982
     atom    9 type  2   force =    -0.00010169    0.00052426   -0.02085955
     atom   10 type  1   force =     0.00000000    0.00000000    0.00000000
     atom   11 type  2   force =    -0.00074251   -0.00058854    0.02084467
     atom   12 type  2   force =     0.00098588    0.00120387   -0.02075536
     atom   13 type  1   force =     0.00000000    0.00000000    0.00000000
     atom   14 type  2   force =    -0.00049605   -0.00012673    0.02063006
     atom   15 type  2   force =     0.00067162    0.00032205   -0.02062275
     atom   16 type  1   force =     0.00000000    0.00000000    0.00000000
     atom   17 type  2   force =     0.00032486    0.00142968    0.02037826
     atom   18 type  2   force =    -0.00000802   -0.00046253   -0.02101029
     atom   19 type  1   force =     0.00000000    0.00000000    0.00000000
     atom   20 type  2   force =     0.00022750    0.00105326   -0.02109907
     atom   21 type  1   force =     0.00000000    0.00000000    0.00000000
     atom   22 type  2   force =     0.00022624   -0.00051688    0.02083815
     atom   23 type  2   force =    -0.00046680    0.00117034   -0.02070780
     atom   24 type  1   force =     0.00000000    0.00000000    0.00000000
     atom   25 type  2   force =     0.00009708   -0.00027835    0.02062900
     atom   26 type  2   force =    -0.00016454    0.00077738   -0.02103354
     atom   27 type  1   force =     0.00000000    0.00000000    0.00000000
     atom   28 type  2   force =     0.00523997   -0.01841807   -0.00464328
     atom   29 type  2   force =    -0.00051630   -0.00045570   -0.02033820
     atom   30 type  1   force =     0.00000000    0.00000000    0.00000000
     atom   31 type  2   force =    -0.00034494   -0.00093710    0.02093286
     atom   32 type  2   force =    -0.00009702    0.00054196   -0.02082084
     atom   33 type  1   force =     0.00000000    0.00000000    0.00000000
     atom   34 type  2   force =     0.00041027    0.00090007    0.02140445
     atom   35 type  2   force =    -0.00011518    0.00087226   -0.02103761
     atom   36 type  3   force =    -0.00372326    0.01519891    0.00985560
     The Hubbard contrib.    to forces
     atom    1 type  1   force =     0.00000000    0.00000000    0.00000000
     atom    2 type  2   force =     0.00000000    0.00000000    0.00000000
     atom    3 type  2   force =     0.00000000    0.00000000    0.00000000
     atom    4 type  1   force =     0.00000000    0.00000000    0.00000000
     atom    5 type  2   force =     0.00000000    0.00000000    0.00000000
     atom    6 type  2   force =     0.00000000    0.00000000    0.00000000
     atom    7 type  1   force =     0.00000000    0.00000000    0.00000000
     atom    8 type  2   force =     0.00000000    0.00000000    0.00000000
     atom    9 type  2   force =     0.00000000    0.00000000    0.00000000
     atom   10 type  1   force =     0.00000000    0.00000000    0.00000000
     atom   11 type  2   force =     0.00000000    0.00000000    0.00000000
     atom   12 type  2   force =     0.00000000    0.00000000    0.00000000
     atom   13 type  1   force =     0.00000000    0.00000000    0.00000000
     atom   14 type  2   force =     0.00000000    0.00000000    0.00000000
     atom   15 type  2   force =     0.00000000    0.00000000    0.00000000
     atom   16 type  1   force =     0.00000000    0.00000000    0.00000000
     atom   17 type  2   force =     0.00000000    0.00000000    0.00000000
     atom   18 type  2   force =     0.00000000    0.00000000    0.00000000
     atom   19 type  1   force =     0.00000000    0.00000000    0.00000000
     atom   20 type  2   force =     0.00000000    0.00000000    0.00000000
     atom   21 type  1   force =     0.00000000    0.00000000    0.00000000
     atom   22 type  2   force =     0.00000000    0.00000000    0.00000000
     atom   23 type  2   force =     0.00000000    0.00000000    0.00000000
     atom   24 type  1   force =     0.00000000    0.00000000    0.00000000
     atom   25 type  2   force =     0.00000000    0.00000000    0.00000000
     atom   26 type  2   force =     0.00000000    0.00000000    0.00000000
     atom   27 type  1   force =     0.00000000    0.00000000    0.00000000
     atom   28 type  2   force =     0.00000000    0.00000000    0.00000000
     atom   29 type  2   force =     0.00000000    0.00000000    0.00000000
     atom   30 type  1   force =     0.00000000    0.00000000    0.00000000
     atom   31 type  2   force =     0.00000000    0.00000000    0.00000000
     atom   32 type  2   force =     0.00000000    0.00000000    0.00000000
     atom   33 type  1   force =     0.00000000    0.00000000    0.00000000
     atom   34 type  2   force =     0.00000000    0.00000000    0.00000000
     atom   35 type  2   force =     0.00000000    0.00000000    0.00000000
     atom   36 type  3   force =     0.00000000    0.00000000    0.00000000
     The SCF correction term to forces
     atom    1 type  1   force =    -0.00003234    0.00030046    0.00022828
     atom    2 type  2   force =     0.00014258    0.00009569   -0.00002013
     atom    3 type  2   force =     0.00010549    0.00008639    0.00018320
     atom    4 type  1   force =     0.00036148    0.00016461    0.00075207
     atom    5 type  2   force =     0.00010035    0.00010174    0.00008571
     atom    6 type  2   force =    -0.00003025   -0.00002494    0.00017602
     atom    7 type  1   force =     0.00025265   -0.00024566    0.00048081
     atom    8 type  2   force =     0.00026322   -0.00027586    0.00026296
     atom    9 type  2   force =     0.00008006   -0.00001712    0.00023429
     atom   10 type  1   force =     0.00024610   -0.00001955    0.00040471
     atom   11 type  2   force =     0.00008967   -0.00009340   -0.00000586
     atom   12 type  2   force =     0.00001393   -0.00001364    0.00013363
     atom   13 type  1   force =    -0.00016968    0.00016122    0.00030568
     atom   14 type  2   force =    -0.00002802    0.00011597   -0.00003136
     atom   15 type  2   force =    -0.00000407    0.00006786    0.00015210
     atom   16 type  1   force =     0.00000250   -0.00009170    0.00039556
     atom   17 type  2   force =    -0.00004611    0.00002370    0.00007932
     atom   18 type  2   force =    -0.00000329   -0.00000554    0.00017076
     atom   19 type  1   force =    -0.00012916   -0.00022640    0.00031949
     atom   20 type  2   force =    -0.00002779   -0.00005789    0.00016192
     atom   21 type  1   force =     0.00000089    0.00000710    0.00019582
     atom   22 type  2   force =    -0.00004184   -0.00007887   -0.00001206
     atom   23 type  2   force =    -0.00001607   -0.00002671    0.00012801
     atom   24 type  1   force =     0.00012534    0.00013028    0.00021991
     atom   25 type  2   force =    -0.00011710    0.00013322   -0.00009021
     atom   26 type  2   force =    -0.00008199    0.00010105    0.00025097
     atom   27 type  1   force =    -0.00034639    0.00002005    0.00046330
     atom   28 type  2   force =    -0.00012750    0.00044229    0.00030852
     atom   29 type  2   force =     0.00003065   -0.00005873    0.00028252
     atom   30 type  1   force =    -0.00010365   -0.00045586    0.00050961
     atom   31 type  2   force =    -0.00023554   -0.00015213    0.00017353
     atom   32 type  2   force =    -0.00005467   -0.00002060    0.00021369
     atom   33 type  1   force =    -0.00023740    0.00015560    0.00029381
     atom   34 type  2   force =    -0.00004602   -0.00006453   -0.00001584
     atom   35 type  2   force =     0.00000791   -0.00003704    0.00017709
     atom   36 type  3   force =    -0.00013892    0.00040004    0.00006408

     Total force =     0.210009     Total SCF correction =     0.002124
     Energy error            =      5.3E-02 Ry
     Gradient error          =      1.4E-01 Ry/Bohr

     number of scf cycles    =   2
     number of bfgs steps    =   1

     energy             old  =   -2246.2249411271 Ry
     energy             new  =   -2246.2776632052 Ry

     CASE: energy            _new < energy            _old

     new trust radius        =       0.2191152287 bohr
     new conv_thr            =       0.0000001405 Ry


ATOMIC_POSITIONS (angstrom)
Mo            6.5850320391        1.7647118338        2.8239961945
S             8.1556646164        0.8202148630        4.4349023090
S             8.1802247400        0.8218283253        1.2656473875
Mo            8.0703405193        4.4813364769        2.6512463239
S             6.5014718827        3.7157259442        4.3388305748
S             6.5512711415        3.5226182120        1.1178286723
Mo            6.4920471858        7.2161477120        2.6573874129
S             8.0618200760        6.3593020803        4.2288910161
S             8.0973771073        6.3159221253        1.0946151688
Mo            8.1488161284        9.9092146379        2.8181456290
S             6.5025808311        8.9405212447        4.3728323926
S             6.6166580713        9.0511477111        1.1462752628
Mo            3.4270786365        1.7541807748        2.7689236700
S             4.9845460432        0.8157147600        4.3657442984
S             5.0433467905        0.8499361933        1.2172293770
Mo            4.9816999736        4.5207434883        2.6396166943
S             3.4365989437        3.6724288047        4.2826831694
S             3.4390439428        3.5366963952        1.0713718053
Mo            3.4591692426        7.2070158629        2.6222453501
S             4.9868399772        6.3183542468        1.0346731993
Mo            5.0048179344        9.9086120060        2.7424382748
S             3.4673234129        8.9409168528        4.3216193735
S             3.4064465416        9.0683996489        1.1080146659
Mo            0.2802919381        1.7067178733        2.8392339620
S             1.8736372465        0.8074849870        4.4025090827
S             1.8452867311        0.8542012797        1.2013123868
Mo            1.8734139345        4.4956757462        2.6432009120
S             0.2905763473        3.6992403629        4.2436409904
S             0.2351283291        3.5230385244        1.1636109613
Mo            0.2681596664        7.2217754397        2.7030785423
S             1.9118612029        6.3186246120        4.2282304724
S             1.8496618367        6.3196821723        1.0542072043
Mo            1.8604452961        9.9328167113        2.7671748673
S             0.2974573331        9.0408321844        4.4005109070
S             0.2672500115        9.0604649135        1.1656933093
O             9.4757213610        4.8459902927        5.3531857564



     Writing config-only to output data dir ./MoS2-V-O.save/
     NEW-OLD atomic charge density approx. for the potential

     negative rho (up, down):  1.780E-04 0.000E+00

     total cpu time spent up to now is      223.8 secs

     Self-consistent Calculation

     iteration #  1     ecut=    80.00 Ry     beta= 0.70
     Davidson diagonalization with overlap
     ethr =  1.00E-06,  avg # of iterations = 11.0

     negative rho (up, down):  4.146E-04 0.000E+00

     total cpu time spent up to now is      237.0 secs

     total energy              =   -2246.31657130 Ry
     estimated scf accuracy    <       0.01445302 Ry

     iteration #  2     ecut=    80.00 Ry     beta= 0.70
     Davidson diagonalization with overlap
     ethr =  4.63E-06,  avg # of iterations =  6.0

     negative rho (up, down):  6.577E-04 0.000E+00

     total cpu time spent up to now is      248.4 secs

     total energy              =   -2246.32052333 Ry
     estimated scf accuracy    <       0.01192186 Ry

     iteration #  3     ecut=    80.00 Ry     beta= 0.70
     Davidson diagonalization with overlap
     ethr =  3.82E-06,  avg # of iterations =  2.0

     negative rho (up, down):  1.183E-03 0.000E+00

     total cpu time spent up to now is      260.0 secs

     total energy              =   -2246.32050296 Ry
     estimated scf accuracy    <       0.00178945 Ry

     iteration #  4     ecut=    80.00 Ry     beta= 0.70
     Davidson diagonalization with overlap
     ethr =  5.74E-07,  avg # of iterations =  6.0

     negative rho (up, down):  1.251E-03 0.000E+00

     total cpu time spent up to now is      272.9 secs

     total energy              =   -2246.32097002 Ry
     estimated scf accuracy    <       0.00077288 Ry

     iteration #  5     ecut=    80.00 Ry     beta= 0.70
     Davidson diagonalization with overlap
     ethr =  2.48E-07,  avg # of iterations =  2.0

     negative rho (up, down):  1.259E-03 0.000E+00

     total cpu time spent up to now is      284.0 secs

     total energy              =   -2246.32093728 Ry
     estimated scf accuracy    <       0.00028396 Ry

     iteration #  6     ecut=    80.00 Ry     beta= 0.70
     Davidson diagonalization with overlap
     ethr =  9.10E-08,  avg # of iterations =  4.0

     negative rho (up, down):  1.175E-03 0.000E+00

     total cpu time spent up to now is      295.8 secs

     total energy              =   -2246.32096915 Ry
     estimated scf accuracy    <       0.00001317 Ry

     iteration #  7     ecut=    80.00 Ry     beta= 0.70
     Davidson diagonalization with overlap
     ethr =  4.22E-09,  avg # of iterations =  6.0

     negative rho (up, down):  9.720E-04 0.000E+00

     total cpu time spent up to now is      306.7 secs

     total energy              =   -2246.32097020 Ry
     estimated scf accuracy    <       0.00000558 Ry

     iteration #  8     ecut=    80.00 Ry     beta= 0.70
     Davidson diagonalization with overlap
     ethr =  1.79E-09,  avg # of iterations =  2.0

     negative rho (up, down):  7.618E-04 0.000E+00

     total cpu time spent up to now is      317.7 secs

     total energy              =   -2246.32096929 Ry
     estimated scf accuracy    <       0.00000350 Ry

     iteration #  9     ecut=    80.00 Ry     beta= 0.70
     Davidson diagonalization with overlap
     ethr =  1.12E-09,  avg # of iterations =  3.0

     negative rho (up, down):  5.124E-04 0.000E+00

     total cpu time spent up to now is      328.6 secs

     total energy              =   -2246.32096890 Ry
     estimated scf accuracy    <       0.00000042 Ry

     iteration # 10     ecut=    80.00 Ry     beta= 0.70
     Davidson diagonalization with overlap
     ethr =  1.34E-10,  avg # of iterations =  9.0

     negative rho (up, down):  2.018E-04 0.000E+00

     total cpu time spent up to now is      332.7 secs

     End of self-consistent calculation

          k = 0.0000 0.0000 0.0000 (105382 PWs)   bands (ev):

   -63.0381 -62.9708 -62.9497 -62.9496 -62.9431 -62.9317 -62.9102 -62.8831
   -62.8650 -62.8516 -62.8440 -62.8330 -37.3448 -37.2868 -37.2598 -37.2583
   -37.2386 -37.2280 -37.2136 -37.1730 -37.1706 -37.1667 -37.1566 -37.1360
   -37.1303 -37.1281 -37.1224 -37.1158 -37.1116 -37.1044 -37.0876 -37.0663
   -37.0479 -37.0318 -37.0240 -37.0219 -37.0102 -37.0057 -37.0021 -36.9981
   -36.9868 -36.9824 -36.9742 -36.9454 -36.9393 -36.9055 -36.8474 -36.7936
   -21.2584 -16.0422 -15.2984 -15.1980 -15.0796 -14.9852 -14.8648 -14.6268
   -14.5804 -14.5620 -14.5135 -14.4749 -14.4369 -14.4045 -14.3461 -14.2766
   -14.2331 -14.2112 -14.1481 -14.0480 -13.9853 -13.9493 -13.9063 -13.8205
    -7.9968  -7.7573  -7.6411  -7.5546  -7.4784  -7.3948  -7.3456  -7.2805
    -7.2550  -7.0781  -7.0113  -6.8902  -6.8462  -6.7808  -6.7489  -6.6353
    -6.5461  -6.5174  -6.3808  -6.3552  -6.1632  -6.1130  -6.0582  -5.9989
    -5.8969  -5.8670  -5.8163  -5.7869  -5.7737  -5.7699  -5.7326  -5.6608
    -5.5680  -5.5256  -5.4643  -5.3289  -5.2920  -5.2563  -5.1849  -5.0867
    -5.0830  -5.0412  -4.9384  -4.8050  -4.7224  -4.6067  -4.5005  -4.4508
    -4.4298  -4.3579  -4.2256  -4.1696  -4.0136  -3.9611  -3.9514  -3.8753
    -3.8662  -3.8007  -3.7591  -3.7265  -3.6396  -3.6234  -3.5896  -3.5761
    -3.5050  -3.4967  -3.3168  -3.3115  -3.0601  -3.0503  -2.9903  -2.8895
    -2.8713  -2.8208  -2.7805  -2.7551  -2.7340  -2.7032  -2.6115  -2.4560
    -2.2226  -2.0925  -2.0796  -1.8405  -0.9051  -0.8295  -0.7193  -0.2881
    -0.2320  -0.1723  -0.1187   0.0146   0.0611   0.1275   0.1792   0.1859
     0.2147   0.2394   0.3212   0.3863   0.4430   0.4676   0.5392   0.5623
     0.5917   0.6333   0.6692   0.6727   0.7464   0.7947   0.8280   0.8824
     0.9125   0.9993   1.2340

     the Fermi energy is    -1.3729 ev

!    total energy              =   -2246.32096864 Ry
     estimated scf accuracy    <       0.00000014 Ry
     smearing contrib. (-TS)   =      -0.00000008 Ry
     internal energy E=F+TS    =   -2246.32096856 Ry

     The total energy is F=E-TS. E is the sum of the following terms:
     one-electron contribution =  -18469.17472659 Ry
     hartree contribution      =    9222.44566848 Ry
     xc contribution           =    -392.11543579 Ry
     ewald contribution        =    7402.38801393 Ry
     one-center paw contrib.   =      -9.86448859 Ry

     convergence has been achieved in  10 iterations

     negative rho (up, down):  2.018E-04 0.000E+00

     Forces acting on atoms (cartesian axes, Ry/au):

     atom    1 type  1   force =    -0.00504364   -0.00244854   -0.00415494
     atom    2 type  2   force =    -0.00778473   -0.00039858    0.00058984
     atom    3 type  2   force =    -0.00967420    0.00112926   -0.01374622
     atom    4 type  1   force =     0.00720207    0.02093046    0.01190229
     atom    5 type  2   force =     0.00595626   -0.00400201   -0.01065294
     atom    6 type  2   force =    -0.01376875   -0.00524391   -0.01165988
     atom    7 type  1   force =    -0.00042745   -0.00149084   -0.00445049
     atom    8 type  2   force =    -0.00276989   -0.01374063   -0.00525736
     atom    9 type  2   force =     0.00840902    0.00963737   -0.00734965
     atom   10 type  1   force =    -0.00206374    0.00667095    0.00162437
     atom   11 type  2   force =     0.00179331   -0.00019093   -0.00864620
     atom   12 type  2   force =    -0.00455496    0.00245018   -0.00363666
     atom   13 type  1   force =     0.00116912   -0.00128663    0.00165381
     atom   14 type  2   force =     0.00306904   -0.00032791    0.00417820
     atom   15 type  2   force =    -0.00565907    0.00137016   -0.00539170
     atom   16 type  1   force =     0.00003170   -0.00098549    0.00242300
     atom   17 type  2   force =     0.00344051    0.00178871   -0.00005893
     atom   18 type  2   force =     0.00507817   -0.00500365    0.00145765
     atom   19 type  1   force =     0.00292362   -0.00210043    0.00005744
     atom   20 type  2   force =     0.00200799   -0.00444001   -0.00705521
     atom   21 type  1   force =    -0.00171537    0.00072943    0.00329882
     atom   22 type  2   force =     0.00069667   -0.00333716   -0.00210227
     atom   23 type  2   force =     0.00074962   -0.00049266    0.00121222
     atom   24 type  1   force =    -0.00077714    0.00052981    0.00264586
     atom   25 type  2   force =     0.00870447    0.00458817   -0.00168174
     atom   26 type  2   force =    -0.00330050   -0.00378226   -0.00376548
     atom   27 type  1   force =     0.00787264    0.01493919    0.00111437
     atom   28 type  2   force =    -0.03133913    0.11500133    0.03863489
     atom   29 type  2   force =     0.00460819   -0.00969427   -0.00854796
     atom   30 type  1   force =    -0.00068370   -0.00148128    0.00122817
     atom   31 type  2   force =     0.00246784   -0.00235646    0.00087296
     atom   32 type  2   force =    -0.00561467    0.00624529   -0.00072929
     atom   33 type  1   force =     0.00006773    0.00270899    0.00492490
     atom   34 type  2   force =    -0.00126878   -0.01925055   -0.01233102
     atom   35 type  2   force =    -0.00256368    0.00717691    0.00279208
     atom   36 type  3   force =     0.03276144   -0.11384200    0.03060709
     The non-local contrib.  to forces
     atom    1 type  1   force =     0.00286948    0.02990331   -0.01477812
     atom    2 type  2   force =    -0.00308304   -0.00739540   -0.26363326
     atom    3 type  2   force =    -0.00912994   -0.01036468    0.26465762
     atom    4 type  1   force =     0.00248289   -0.00268108    0.03794128
     atom    5 type  2   force =     0.00509894   -0.03250978   -0.26121214
     atom    6 type  2   force =    -0.01062764   -0.00114155    0.25674502
     atom    7 type  1   force =    -0.00731899   -0.01285693   -0.01358528
     atom    8 type  2   force =     0.02669530   -0.01169434   -0.24540864
     atom    9 type  2   force =     0.00239364   -0.00983584    0.26767568
     atom   10 type  1   force =    -0.00533939   -0.00304096   -0.00063520
     atom   11 type  2   force =     0.01287920    0.00577884   -0.26554323
     atom   12 type  2   force =    -0.01245190   -0.01375657    0.25717322
     atom   13 type  1   force =     0.00410264    0.02412520   -0.00996277
     atom   14 type  2   force =     0.00680177   -0.00512646   -0.26541379
     atom   15 type  2   force =    -0.00871039   -0.00552856    0.26191673
     atom   16 type  1   force =     0.00278724    0.03001279   -0.02360898
     atom   17 type  2   force =    -0.00509563   -0.02337177   -0.25390748
     atom   18 type  2   force =     0.00122596   -0.00222898    0.26668755
     atom   19 type  1   force =     0.00767210   -0.00844280   -0.00953682
     atom   20 type  2   force =    -0.00165955   -0.02349035    0.26216232
     atom   21 type  1   force =    -0.00023597    0.02904115    0.00450705
     atom   22 type  2   force =    -0.00547809    0.00094707   -0.26423975
     atom   23 type  2   force =     0.00776574   -0.01610721    0.25994065
     atom   24 type  1   force =     0.00397028    0.01046601   -0.02244748
     atom   25 type  2   force =     0.00264786   -0.00240983   -0.26266685
     atom   26 type  2   force =     0.00250920   -0.01621729    0.26786131
[...]
     atom   28 type  2   force =    -0.00016064    0.01311088    0.29595683
     atom   29 type  2   force =     0.00080953   -0.00738555    0.27736838
     atom   30 type  1   force =    -0.00016349    0.01758529    0.00472843
     atom   31 type  2   force =    -0.00672747    0.00301827   -0.26878590
     atom   32 type  2   force =     0.00735949   -0.01353333    0.26715073
     atom   33 type  1   force =     0.00209114    0.00445920    0.00282113
     atom   34 type  2   force =     0.00028641   -0.00840911   -0.27612674
     atom   35 type  2   force =     0.00004494   -0.01471877    0.26684211
     atom   36 type  3   force =    -0.00347024   -0.06500665   -2.32157008
     The ionic contribution  to forces
     atom    1 type  1   force =    -0.64084223    0.12646942    1.34579558
     atom    2 type  2   force =    -0.75496927   -0.84006664   38.36749830
     atom    3 type  2   force =    -0.02299412   -0.15696309  -38.19924719
     atom    4 type  1   force =    -1.05386205    0.72884107   -3.86014520
     atom    5 type  2   force =    -1.77126894    1.13624729   37.61499319
     atom    6 type  2   force =     0.16325124   -0.45889499  -38.87144747
     atom    7 type  1   force =    -3.13345517   -1.40996330    1.48109970
     atom    8 type  2   force =    -1.76283133    1.15431552   37.57932970
     atom    9 type  2   force =     0.30618789    0.21514056  -38.81533553
     atom   10 type  1   force =    -0.58398503   -0.86954528    2.40218928
     atom   11 type  2   force =    -0.59310335   -1.43653711   38.48488982
     atom   12 type  2   force =     0.15185701    0.36171131  -38.30079842
     atom   13 type  1   force =     0.65590997    0.12772539    1.18521232
     atom   14 type  2   force =     0.00414209   -0.30711713   38.41689343
     atom   15 type  2   force =     0.00565223   -0.26166306  -37.87986449
     atom   16 type  1   force =    -0.00364833    3.78335774    0.11352025
     atom   17 type  2   force =     1.78030702    1.14259580   37.59000182
     atom   18 type  2   force =    -0.15500640   -0.46178725  -38.90146755
     atom   19 type  1   force =     3.12778824   -1.41691836    1.40642125
     atom   20 type  2   force =    -0.00906535    0.12124208  -39.08413231
     atom   21 type  1   force =     0.00059853   -0.38122161    0.86546325
     atom   22 type  2   force =     0.58525808   -1.44380740   38.48161974
     atom   23 type  2   force =    -0.14871741    0.35478590  -38.31432341
     atom   24 type  1   force =    -0.03181548   -0.75066869   -1.39648508
     atom   25 type  2   force =     0.76266943   -0.85462052   38.34378675
     atom   26 type  2   force =     0.01899757   -0.15636758  -38.22173211
     atom   27 type  1   force =     1.06070607    0.75842665   -4.02224107
     atom   28 type  2   force =    -0.02364221    0.21126969   27.78204184
     atom   29 type  2   force =    -0.00174040   -0.22343982  -38.23677732
     atom   30 type  1   force =     0.01401853    0.38363306    0.42464877
     atom   31 type  2   force =     1.76778252    1.15961715   37.55170229
     atom   32 type  2   force =    -0.30577534    0.22615302  -38.81274403
     atom   33 type  1   force =     0.57238185   -0.89661413    2.36854494
     atom   34 type  2   force =     0.01044068   -0.45271689   38.60802785
     atom   35 type  2   force =     0.00138519    0.21791650  -37.77395407
     atom   36 type  3   force =     0.00738823    0.56946473   50.27701516
     The local contribution  to forces
     atom    1 type  1   force =     0.64291938   -0.15217465   -1.33824413
     atom    2 type  2   force =     0.75495698    0.84906604  -38.11857825
     atom    3 type  2   force =     0.02545199    0.16568804   37.95397853
     atom    4 type  1   force =     1.04315791   -0.72684093    3.83821005
     atom    5 type  2   force =     1.76748642   -1.11723706  -37.37780395
     atom    6 type  2   force =    -0.16287486    0.46044210   38.62887102
     atom    7 type  1   force =     3.14821604    1.40670199   -1.46106249
     atom    8 type  2   force =     1.75638165   -1.15722179  -37.33110526
     atom    9 type  2   force =    -0.30024185   -0.20213483   38.56895586
     atom   10 type  1   force =     0.58698515    0.86560717   -2.40528759
     atom   11 type  2   force =     0.58629437    1.43725633  -38.24379107
     atom   12 type  2   force =    -0.14345315   -0.34734775   38.05764253
     atom   13 type  1   force =    -0.65765086   -0.15258695   -1.17792263
     atom   14 type  2   force =    -0.00421461    0.31559824  -38.16809233
     atom   15 type  2   force =    -0.00559493    0.26947521   37.63660174
     atom   16 type  1   force =     0.00335204   -3.81802309   -0.09044604
     atom   17 type  2   force =    -1.77672139   -1.12357838  -37.35288036
     atom   18 type  2   force =     0.15464192    0.46320285   38.65883743
     atom   19 type  1   force =    -3.14210501    1.41294565   -1.38652027
     atom   20 type  2   force =     0.00912795   -0.10567927   38.83974565
     atom   21 type  1   force =    -0.00068661    0.35120739   -0.86772316
     atom   22 type  2   force =    -0.57843730    1.44439871  -38.24068223
     atom   23 type  2   force =     0.14038782   -0.34070275   38.07123366
     atom   24 type  1   force =     0.03170202    0.72847764    1.38182373
     atom   25 type  2   force =    -0.76253738    0.86360033  -38.09453034
     atom   26 type  2   force =    -0.02156172    0.16502193   37.97631277
     atom   27 type  1   force =    -1.05077921   -0.75582730    4.00071859
     atom   28 type  2   force =     0.02247786   -0.22236356  -28.06533389
     atom   29 type  2   force =     0.00157687    0.23075020   37.98124062
     atom   30 type  1   force =    -0.01369853   -0.40070433   -0.42914683
     atom   31 type  2   force =    -1.76114805   -1.16249095  -37.30352218
     atom   32 type  2   force =     0.29993087   -0.21303833   38.56601211
     atom   33 type  1   force =    -0.57475952    0.89226964   -2.37147637
     atom   34 type  2   force =    -0.01034186    0.46091535  -38.35332680
     atom   35 type  2   force =    -0.00134608   -0.20322277   37.52740011
     atom   36 type  3   force =    -0.00397270   -0.50599572  -47.98212556
     The core correction contribution to forces
     atom    1 type  1   force =     0.00000000    0.00000000    0.00000000
     atom    2 type  2   force =    -0.00009965    0.00042179    0.02120387
     atom    3 type  2   force =     0.00006509    0.00034992   -0.02089893
     atom    4 type  1   force =     0.00000000    0.00000000    0.00000000
     atom    5 type  2   force =    -0.00033263    0.00094770    0.02076598
     atom    6 type  2   force =     0.00016642   -0.00045465   -0.02075767
     atom    7 type  1   force =     0.00000000    0.00000000    0.00000000
     atom    8 type  2   force =    -0.00032633    0.00011037    0.02120230
     atom    9 type  2   force =     0.00067107    0.00084384   -0.02093244
     atom   10 type  1   force =     0.00000000    0.00000000    0.00000000
     atom   11 type  2   force =    -0.00019106   -0.00029938    0.02077805
     atom   12 type  2   force =     0.00065489    0.00104990   -0.02089508
     atom   13 type  1   force =     0.00000000    0.00000000    0.00000000
     atom   14 type  2   force =    -0.00002985    0.00012913    0.02101679
     atom   15 type  2   force =     0.00002466    0.00031878   -0.02072904
     atom   16 type  1   force =     0.00000000    0.00000000    0.00000000
     atom   17 type  2   force =     0.00032257    0.00093218    0.02076928
     atom   18 type  2   force =    -0.00014296   -0.00042400   -0.02075772
     atom   19 type  1   force =     0.00000000    0.00000000    0.00000000
     atom   20 type  2   force =     0.00001339    0.00075747   -0.02128430
     atom   21 type  1   force =     0.00000000    0.00000000    0.00000000
     atom   22 type  2   force =     0.00019163   -0.00028100    0.02078956
     atom   23 type  2   force =    -0.00065677    0.00107609   -0.02090031
     atom   24 type  1   force =     0.00000000    0.00000000    0.00000000
     atom   25 type  2   force =     0.00012312    0.00045327    0.02119885
     atom   26 type  2   force =    -0.00005049    0.00034741   -0.02090035
     atom   27 type  1   force =     0.00000000    0.00000000    0.00000000
     atom   28 type  2   force =    -0.00000052   -0.00047643   -0.00989259
     atom   29 type  2   force =    -0.00004388    0.00008662   -0.02117106
     atom   30 type  1   force =     0.00000000    0.00000000    0.00000000
     atom   31 type  2   force =     0.00031211    0.00010054    0.02120903
     atom   32 type  2   force =    -0.00070629    0.00082188   -0.02091870
     atom   33 type  1   force =     0.00000000    0.00000000    0.00000000
     atom   34 type  2   force =    -0.00000891    0.00031007    0.02128140
     atom   35 type  2   force =    -0.00000424    0.00089670   -0.02088977
     atom   36 type  3   force =     0.00003739    0.00067925    0.02462365
     The Hubbard contrib.    to forces
     atom    1 type  1   force =     0.00000000    0.00000000    0.00000000
     atom    2 type  2   force =     0.00000000    0.00000000    0.00000000
     atom    3 type  2   force =     0.00000000    0.00000000    0.00000000
     atom    4 type  1   force =     0.00000000    0.00000000    0.00000000
     atom    5 type  2   force =     0.00000000    0.00000000    0.00000000
     atom    6 type  2   force =     0.00000000    0.00000000    0.00000000
     atom    7 type  1   force =     0.00000000    0.00000000    0.00000000
     atom    8 type  2   force =     0.00000000    0.00000000    0.00000000
     atom    9 type  2   force =     0.00000000    0.00000000    0.00000000
     atom   10 type  1   force =     0.00000000    0.00000000    0.00000000
     atom   11 type  2   force =     0.00000000    0.00000000    0.00000000
     atom   12 type  2   force =     0.00000000    0.00000000    0.00000000
     atom   13 type  1   force =     0.00000000    0.00000000    0.00000000
     atom   14 type  2   force =     0.00000000    0.00000000    0.00000000
     atom   15 type  2   force =     0.00000000    0.00000000    0.00000000
     atom   16 type  1   force =     0.00000000    0.00000000    0.00000000
     atom   17 type  2   force =     0.00000000    0.00000000    0.00000000
     atom   18 type  2   force =     0.00000000    0.00000000    0.00000000
     atom   19 type  1   force =     0.00000000    0.00000000    0.00000000
     atom   20 type  2   force =     0.00000000    0.00000000    0.00000000
     atom   21 type  1   force =     0.00000000    0.00000000    0.00000000
     atom   22 type  2   force =     0.00000000    0.00000000    0.00000000
     atom   23 type  2   force =     0.00000000    0.00000000    0.00000000
     atom   24 type  1   force =     0.00000000    0.00000000    0.00000000
     atom   25 type  2   force =     0.00000000    0.00000000    0.00000000
     atom   26 type  2   force =     0.00000000    0.00000000    0.00000000
     atom   27 type  1   force =     0.00000000    0.00000000    0.00000000
     atom   28 type  2   force =     0.00000000    0.00000000    0.00000000
     atom   29 type  2   force =     0.00000000    0.00000000    0.00000000
     atom   30 type  1   force =     0.00000000    0.00000000    0.00000000
     atom   31 type  2   force =     0.00000000    0.00000000    0.00000000
     atom   32 type  2   force =     0.00000000    0.00000000    0.00000000
     atom   33 type  1   force =     0.00000000    0.00000000    0.00000000
     atom   34 type  2   force =     0.00000000    0.00000000    0.00000000
     atom   35 type  2   force =     0.00000000    0.00000000    0.00000000
     atom   36 type  3   force =     0.00000000    0.00000000    0.00000000
     The SCF correction term to forces
     atom    1 type  1   force =    -0.00001048    0.00002475   -0.00001439
     atom    2 type  2   force =    -0.00001010   -0.00000851   -0.00001195
     atom    3 type  2   force =    -0.00000771   -0.00001066   -0.00000374
     atom    4 type  1   force =    -0.00000769    0.00007220   -0.00001757
     atom    5 type  2   force =     0.00000577    0.00002807   -0.00001199
     atom    6 type  2   force =     0.00000540    0.00003166    0.00000101
     atom    7 type  1   force =     0.00000784   -0.00002481   -0.00001915
     atom    8 type  2   force =     0.00000492   -0.00001194    0.00000209
     atom    9 type  2   force =    -0.00000120   -0.00001285   -0.00000552
     atom   10 type  1   force =    -0.00000414   -0.00005503   -0.00002060
     atom   11 type  2   force =     0.00000051   -0.00001748   -0.00000502
     atom   12 type  2   force =    -0.00000214   -0.00002227   -0.00000641
     atom   13 type  1   force =     0.00001429    0.00002053   -0.00001506
     atom   14 type  2   force =     0.00000179   -0.00000284   -0.00000769
     atom   15 type  2   force =     0.00000341   -0.00000449   -0.00000267
     atom   16 type  1   force =     0.00000148    0.00005259   -0.00001596
     atom   17 type  2   force =    -0.00000557    0.00003071   -0.00001160
     atom   18 type  2   force =    -0.00000442    0.00003376    0.00000064
     atom   19 type  1   force =    -0.00000823   -0.00003190   -0.00002011
     atom   20 type  2   force =    -0.00000048    0.00000022   -0.00000904
     atom   21 type  1   force =     0.00000291   -0.00004514   -0.00001218
     atom   22 type  2   force =     0.00000074   -0.00001851   -0.00000394
     atom   23 type  2   force =     0.00000436   -0.00002281   -0.00000647
     atom   24 type  1   force =    -0.00000489    0.00003207   -0.00004099
     atom   25 type  2   force =     0.00000692   -0.00001033   -0.00001003
     atom   26 type  2   force =     0.00000431   -0.00000885   -0.00000257
     atom   27 type  1   force =     0.00000197    0.00007710   -0.00002053
     atom   28 type  2   force =    -0.00000163    0.00007073   -0.00002021
     atom   29 type  2   force =     0.00000246    0.00003313    0.00000165
     atom   30 type  1   force =     0.00000344   -0.00005195   -0.00000912
     atom   31 type  2   force =    -0.00000576   -0.00001240   -0.00000138
     atom   32 type  2   force =     0.00000196   -0.00001314   -0.00000152
     atom   33 type  1   force =    -0.00000080   -0.00005450   -0.00001973
     atom   34 type  2   force =    -0.00000066   -0.00002561   -0.00000059
     atom   35 type  2   force =    -0.00000271   -0.00002065   -0.00000499
     atom   36 type  3   force =    -0.00000336    0.00013315    0.00001519

     Total force =     0.006232     Total SCF correction =     0.000259
     Energy error            =      7.7E-05 Ry
     Gradient error          =      2.8E-03 Ry/Bohr

     bfgs converged in  24 scf cycles and  23 bfgs steps
     (criteria: energy <  1.0E-04 Ry, force <  1.0E-02 Ry/Bohr)

     End of BFGS Geometry Optimization

     Final energy             =   -2246.4528396751 Ry

     File ./MoS2-V-O.bfgs deleted, as requested
Begin final coordinates

ATOMIC_POSITIONS (angstrom)
Mo            6.5559033524        1.7934010077        2.7574222313
S             8.1232079294        0.8825192978        4.3736701153
S             8.1175719182        0.8607223865        1.1659804787
Mo            8.0922073369        4.5521541795        2.6845821394
S             6.5201246664        3.7129040287        4.2956984740
S             6.5402698371        3.5863942343        1.0920015913
Mo            6.5120481205        7.2216094645        2.6605489883
S             8.0772785866        6.3390315213        4.2958104579
S             8.1314918226        6.3807809354        1.0902342925
Mo            8.1212277348        9.9708901920        2.7731090320
S             6.5113595983        8.9758582399        4.3283125249
S             6.5775855840        9.0689530672        1.1274826722
Mo            3.4208496436        1.7932783853        2.7549052876
S             4.9864908650        0.8549241971        4.3482056486
S             4.9898567893        0.8713694793        1.1694571435
Mo            4.9891711991        4.5638569110        2.6419460365
S             3.4582636798        3.7123234384        4.2940974519
S             3.4390646203        3.5883167116        1.0899986665
Mo            3.4613518289        7.2237544755        2.6593831526
S             4.9878530021        6.3524576348        1.0370783007
Mo            4.9873594939        9.9395436369        2.7352910476
S             3.4618743958        8.9784965991        4.3282962547
S             3.3959949412        9.0720495651        1.1263643951
Mo            0.2599139199        1.7381349366        2.7525545447
S             1.8533449354        0.8845650008        4.3712779152
S             1.8582823435        0.8615408080        1.1648637305
Mo            1.8867261936        4.5516181781        2.6819645864
S             0.2647378564        3.6431018506        4.2054901917
S             0.2585845061        3.5865146746        1.1519612086
Mo            0.2583290386        7.2476897924        2.7309424767
S             1.8977022359        6.3390397816        4.2946217893
S             1.8412265209        6.3803020078        1.0904510213
Mo            1.8521769999        9.9719999468        2.7722839844
S             0.2578500034        9.0556455738        4.3613835352
S             0.2579480413        9.0927003892        1.1793538548
O             9.7238774706        3.6897927701        5.7037223546
End final coordinates



     Writing all to output data dir ./MoS2-V-O.save/
 
     init_run     :      4.64s CPU      5.17s WALL (       1 calls)
     electrons    :   2255.99s CPU   2555.36s WALL (      24 calls)
     update_pot   :     70.08s CPU     74.72s WALL (      23 calls)
     forces       :     65.66s CPU     74.68s WALL (      24 calls)

     Called by init_run:
     wfcinit      :      0.48s CPU      0.54s WALL (       1 calls)
     potinit      :      2.40s CPU      2.67s WALL (       1 calls)
     hinit0       :      0.44s CPU      0.46s WALL (       1 calls)

     Called by electrons:
     c_bands      :    326.82s CPU    334.73s WALL (     227 calls)
     sum_band     :    127.76s CPU    164.21s WALL (     227 calls)
     v_of_rho     :    213.19s CPU    259.36s WALL (     243 calls)
     newd         :     75.05s CPU    109.67s WALL (     243 calls)
     PAW_pot      :      9.65s CPU      9.69s WALL (     266 calls)
     mix_rho      :   1527.37s CPU   1703.94s WALL (     227 calls)

     Called by c_bands:
     init_us_2    :      5.17s CPU      5.61s WALL (     478 calls)
     init_us_2:cp :      5.17s CPU      5.61s WALL (     478 calls)
     regterg      :    309.81s CPU    317.26s WALL (     227 calls)

     Called by *egterg:
     rdiaghg      :     21.44s CPU     21.66s WALL (    1209 calls)
     h_psi        :    200.36s CPU    202.16s WALL (    1241 calls)
     s_psi        :     19.19s CPU     19.26s WALL (    1241 calls)
     g_psi        :      0.97s CPU      0.98s WALL (    1013 calls)

     Called by h_psi:
     h_psi:calbec :     22.13s CPU     22.25s WALL (    1241 calls)
     vloc_psi     :    156.60s CPU    158.13s WALL (    1241 calls)
     add_vuspsi   :     19.14s CPU     19.26s WALL (    1241 calls)

     General routines
     calbec       :     32.15s CPU     32.34s WALL (    1587 calls)
     fft          :    144.45s CPU    167.76s WALL (   16222 calls)
     ffts         :    682.39s CPU    852.88s WALL (  376783 calls)
     fftw         :    100.35s CPU    101.20s WALL (  138728 calls)
     interpolate  :      3.02s CPU      3.48s WALL (     243 calls)
 
     Parallel routines
 
     PWSCF        :  40m 6.81s CPU  45m25.06s WALL

 
   This run was terminated on:  17:54:55   1Nov2023            

=------------------------------------------------------------------------------=
   JOB DONE.
=------------------------------------------------------------------------------=
