
     Program PWSCF v.7.2 starts on  1Nov2023 at 20:52:53 

     This program is part of the open-source Quantum ESPRESSO suite
     for quantum simulation of materials; please cite
         "P. Giannozzi et al., J. Phys.:Condens. Matter 21 395502 (2009);
         "P. Giannozzi et al., J. Phys.:Condens. Matter 29 465901 (2017);
         "P. Giannozzi et al., J. Chem. Phys. 152 154105 (2020);
          URL http://www.quantum-espresso.org", 
     in publications or presentations arising from this work. More details at
     http://www.quantum-espresso.org/quote

     Parallel version (MPI & OpenMP), running on      48 processor cores
     Number of MPI processes:                48
     Threads/MPI process:                     1

     MPI processes distributed on     1 nodes
     75169 MiB available memory on the printing compute node when the environment starts
 
     Waiting for input...
     Reading input from standard input
Warning: card &CELL ignored
Warning: card CELL_DYNAMICS = 'BFGS', ignored
Warning: card CELL_DOFREE = '2DXY' ignored
Warning: card / ignored

     Current dimensions of program PWSCF are:
     Max number of different atomic species (ntypx) = 10
     Max number of k-points (npk) =  40000
     Max angular momentum in pseudopotentials (lmaxx) =  4
     file O.pbe-n-kjpaw_psl.0.1.UPF: wavefunction(s)  2P renormalized

     IMPORTANT: XC functional enforced from input :
     Exchange-correlation= RVV10
                           (   1   4  13   4  26   0   0)
     Any further DFT definition will be discarded
     Please, verify this is what you really want


     gamma-point specific algorithms are used
     signal trapping enabled: kill the code with -SIGUSR1 to stop cleanly the simulation 
 
     R & G space division:  proc/nbgrp/npool/nimage =      48
     Subspace diagonalization in iterative solution of the eigenvalue problem:
     one sub-group per band group will be used
     scalapack distributed-memory algorithm (size of sub-group:  2*  2 procs)

 
     Parallelization info
     --------------------
     sticks:   dense  smooth     PW     G-vecs:    dense   smooth      PW
     Min         396     194     47               101632    35090    4376
     Max         398     196     50               101674    35128    4410
     Sum       19091    9389   2349              4879585  1685513  210763
 
     Using Slab Decomposition
 


     bravais-lattice index     =            0
     lattice parameter (alat)  =      17.8707  a.u.
     unit-cell volume          =   17436.2743 (a.u.)^3
     number of atoms/cell      =           36
     number of atomic types    =            3
     number of electrons       =       312.00
     number of Kohn-Sham states=          187
     kinetic-energy cutoff     =      80.0000  Ry
     charge density cutoff     =     650.0000  Ry
     scf convergence threshold =      1.0E-06
     mixing beta               =       0.7000
     number of iterations used =            8  local-TF  mixing
     energy convergence thresh.=      1.0E-04
     force convergence thresh. =      1.0E-02
     Exchange-correlation= RVV10
                           (   1   4  13   4  26   0   0)
     nstep                     =          200


     celldm(1)=  17.870686  celldm(2)=   0.000000  celldm(3)=   0.000000
     celldm(4)=   0.000000  celldm(5)=   0.000000  celldm(6)=   0.000000

     crystal axes: (cart. coord. in units of alat)
               a(1) = (   1.000000   0.000000   0.000000 )  
               a(2) = (   0.000000   1.155671   0.000000 )  
               a(3) = (   0.000000   0.000000   2.643601 )  

     reciprocal axes: (cart. coord. in units 2 pi/alat)
               b(1) = (  1.000000  0.000000  0.000000 )  
               b(2) = (  0.000000  0.865298  0.000000 )  
               b(3) = (  0.000000  0.000000  0.378272 )  


     PseudoPot. # 1 for Mo read from file:
     ../pseudo/Mo_ONCV_PBE-1.0.oncvpsp.upf
     MD5 check sum: 1b5d28e075c9ccadda658a603575cd1f
     Pseudo is Norm-conserving, Zval = 14.0
     Generated using ONCVPSP code by D. R. Hamann
     Using radial grid of 1526 points,  6 beta functions with: 
                l(1) =   0
                l(2) =   0
                l(3) =   1
                l(4) =   1
                l(5) =   2
                l(6) =   2

     PseudoPot. # 2 for S  read from file:
     ../pseudo/s_pbe_v1.4.uspp.F.UPF
     MD5 check sum: 88d86576ff6df21479756cfb9bdac1df
     Pseudo is Ultrasoft + core correction, Zval =  6.0
     Generated by new atomic code, or converted to UPF format
     Using radial grid of  907 points,  6 beta functions with: 
                l(1) =   0
                l(2) =   0
                l(3) =   1
                l(4) =   1
                l(5) =   2
                l(6) =   2
     Q(r) pseudized with  8 coefficients,  rinner =    1.300   1.300   1.300
                                                       1.300   1.300

     PseudoPot. # 3 for O  read from file:
     ../pseudo/O.pbe-n-kjpaw_psl.0.1.UPF
     MD5 check sum: 0234752ac141de4415c5fc33072bef88
     Pseudo is Projector augmented-wave + core cor, Zval =  6.0
     Generated using "atomic" code by A. Dal Corso  v.5.0.99 svn rev. 10869
     Shape of augmentation charge: BESSEL
     Using radial grid of 1095 points,  4 beta functions with: 
                l(1) =   0
                l(2) =   0
                l(3) =   1
                l(4) =   1
     Q(r) pseudized with 0 coefficients 


     atomic species   valence    mass     pseudopotential
        Mo            14.00    95.94000     Mo( 1.00)
        S              6.00    32.06500     S ( 1.00)
        O              6.00    15.99940     O ( 1.00)

     No symmetry found



   Cartesian axes

     site n.     atom                  positions (alat units)
         1           Mo  tau(   1) = (   0.6952221   0.1890506   0.2985846  )
         2           S   tau(   2) = (   0.8646417   0.0856217   0.4689279  )
         3           S   tau(   3) = (   0.8663890   0.0857843   0.1351291  )
         4           Mo  tau(   4) = (   0.8560186   0.4753274   0.2873942  )
         5           S   tau(   5) = (   0.6873294   0.3936244   0.4596353  )
         6           S   tau(   6) = (   0.6929804   0.3713468   0.1185692  )
         7           Mo  tau(   7) = (   0.6862796   0.7633098   0.2825370  )
         8           S   tau(   8) = (   0.8545980   0.6708292   0.4486168  )
         9           S   tau(   9) = (   0.8545123   0.6666874   0.1146125  )
        10           Mo  tau(  10) = (   0.8629403   1.0471007   0.3006803  )
        11           S   tau(  11) = (   0.6868280   0.9456650   0.4634891  )
        12           S   tau(  12) = (   0.6998113   0.9568511   0.1205389  )
        13           Mo  tau(  13) = (   0.3618216   0.1847309   0.2935964  )
        14           S   tau(  14) = (   0.5260962   0.0863870   0.4600448  )
        15           S   tau(  15) = (   0.5348379   0.0894875   0.1297123  )
        16           Mo  tau(  16) = (   0.5265817   0.4772436   0.2784130  )
        17           S   tau(  17) = (   0.3624753   0.3882513   0.4525556  )
        18           S   tau(  18) = (   0.3635411   0.3752055   0.1119148  )
        19           Mo  tau(  19) = (   0.3652268   0.7630864   0.2781795  )
        20           S   tau(  20) = (   0.5269494   0.6690381   0.1096838  )
        21           Mo  tau(  21) = (   0.5300192   1.0470394   0.2900995  )
        22           S   tau(  22) = (   0.3670346   0.9457522   0.4574073  )
        23           S   tau(  23) = (   0.3604225   0.9585725   0.1159032  )
        24           Mo  tau(  24) = (   0.0313099   0.1847895   0.3013130  )
        25           S   tau(  25) = (   0.1956761   0.0838230   0.4650863  )
        26           S   tau(  26) = (   0.1967693   0.0903508   0.1278874  )
        27           Mo  tau(  27) = (   0.1967578   0.4753919   0.2813011  )
        28           S   tau(  28) = (   0.0287851   0.3864324   0.4586755  )
        29           S   tau(  29) = (   0.0244514   0.3729871   0.1239344  )
        30           Mo  tau(  30) = (   0.0286728   0.7631204   0.2856894  )
        31           S   tau(  31) = (   0.2011512   0.6675435   0.4465001  )
        32           S   tau(  32) = (   0.1969214   0.6672839   0.1104564  )
        33           Mo  tau(  33) = (   0.1950294   1.0511147   0.2932237  )
        34           S   tau(  34) = (   0.0312912   0.9612169   0.4667423  )
        35           S   tau(  35) = (   0.0292670   0.9563028   0.1216485  )
        36           O   tau(  36) = (   0.5555556   0.8988550   0.5391074  )

     number of k points=     1  Gaussian smearing, width (Ry)=  0.0100
                       cart. coord. in units 2pi/alat
        k(    1) = (   0.0000000   0.0000000   0.0000000), wk =   2.0000000

     Dense  grid:  2439793 G-vectors     FFT dimensions: ( 150, 180, 384)

     Smooth grid:   842757 G-vectors     FFT dimensions: ( 108, 120, 270)

     Estimated max dynamical RAM per process >     269.22 MB

     Estimated total dynamical RAM >      12.62 GB

     Initial potential from superposition of free atoms

     starting charge     311.9873, renormalised to     312.0000

     negative rho (up, down):  2.744E-04 0.000E+00


---------------------------------------------------------------------------------
Carrying out rVV10 run using the following parameters:
Nqs =      20    Nr_points =    1024   r_max =   100.000
b_value =  6.30000    beta =  0.00901
     q_mesh =  0.00010000  0.00030000  0.00058939  0.00100810
               0.00161396  0.00249058  0.00375900  0.00559430
               0.00824984  0.01209221  0.01765183  0.02569619
               0.03733578  0.05417739  0.07854596  0.11380545
               0.16482331  0.23864234  0.34545298  0.50000000

Gradients computed in Reciprocal space

---------------------------------------------------------------------------------


     Starting wfcs are  216 randomized atomic wfcs
     Checking if some PAW data can be deallocated... 

     total cpu time spent up to now is        5.3 secs

     Self-consistent Calculation

     iteration #  1     ecut=    80.00 Ry     beta= 0.70
     Davidson diagonalization with overlap
     ethr =  1.00E-02,  avg # of iterations =  2.0

     Threshold (ethr) on eigenvalues was too large:
     Diagonalizing with lowered threshold

     Davidson diagonalization with overlap
     ethr =  4.47E-04,  avg # of iterations =  4.0

     negative rho (up, down):  3.351E-08 0.000E+00

     total cpu time spent up to now is       21.6 secs

     total energy              =   -2246.17445201 Ry
     estimated scf accuracy    <       1.65359537 Ry

     iteration #  2     ecut=    80.00 Ry     beta= 0.70
     Davidson diagonalization with overlap
     ethr =  5.30E-04,  avg # of iterations =  4.0

     total cpu time spent up to now is       26.3 secs

     total energy              =   -2246.16434591 Ry
     estimated scf accuracy    <       0.62303725 Ry

     iteration #  3     ecut=    80.00 Ry     beta= 0.70
     Davidson diagonalization with overlap
     ethr =  2.00E-04,  avg # of iterations =  5.0

     total cpu time spent up to now is       30.3 secs

     total energy              =   -2246.16003024 Ry
     estimated scf accuracy    <       0.17929999 Ry

     iteration #  4     ecut=    80.00 Ry     beta= 0.70
     Davidson diagonalization with overlap
     c_bands:  1 eigenvalues not converged
     ethr =  5.75E-05,  avg # of iterations = 20.0

     total cpu time spent up to now is       35.3 secs

     total energy              =   -2246.19152071 Ry
     estimated scf accuracy    <       0.03298487 Ry

     iteration #  5     ecut=    80.00 Ry     beta= 0.70
     Davidson diagonalization with overlap
     ethr =  1.06E-05,  avg # of iterations =  9.0

     total cpu time spent up to now is       39.5 secs

     total energy              =   -2246.19241877 Ry
     estimated scf accuracy    <       0.01801114 Ry

     iteration #  6     ecut=    80.00 Ry     beta= 0.70
     Davidson diagonalization with overlap
     ethr =  5.77E-06,  avg # of iterations =  4.0

     total cpu time spent up to now is       43.3 secs

     total energy              =   -2246.19144384 Ry
     estimated scf accuracy    <       0.01170733 Ry

     iteration #  7     ecut=    80.00 Ry     beta= 0.70
     Davidson diagonalization with overlap
     ethr =  3.75E-06,  avg # of iterations =  2.0

     total cpu time spent up to now is       47.0 secs

     total energy              =   -2246.19040585 Ry
     estimated scf accuracy    <       0.00700240 Ry

     iteration #  8     ecut=    80.00 Ry     beta= 0.70
     Davidson diagonalization with overlap
     ethr =  2.24E-06,  avg # of iterations = 13.0

     negative rho (up, down):  5.947E-03 0.000E+00

     total cpu time spent up to now is       53.1 secs

     total energy              =   -2246.18943607 Ry
     estimated scf accuracy    <       0.00408070 Ry

     iteration #  9     ecut=    80.00 Ry     beta= 0.70
     Davidson diagonalization with overlap
     ethr =  1.31E-06,  avg # of iterations =  2.0

     negative rho (up, down):  2.236E-02 0.000E+00

     total cpu time spent up to now is       58.7 secs

     total energy              =   -2246.18924110 Ry
     estimated scf accuracy    <       0.00218003 Ry

     iteration # 10     ecut=    80.00 Ry     beta= 0.70
     Davidson diagonalization with overlap
     ethr =  6.99E-07,  avg # of iterations =  2.0

     negative rho (up, down):  2.544E-02 0.000E+00

     total cpu time spent up to now is       64.8 secs

     total energy              =   -2246.18923497 Ry
     estimated scf accuracy    <       0.00105528 Ry

     iteration # 11     ecut=    80.00 Ry     beta= 0.70
     Davidson diagonalization with overlap
     ethr =  3.38E-07,  avg # of iterations =  2.0

     negative rho (up, down):  1.834E-02 0.000E+00

     total cpu time spent up to now is       71.9 secs

     total energy              =   -2246.18925734 Ry
     estimated scf accuracy    <       0.00027245 Ry

     iteration # 12     ecut=    80.00 Ry     beta= 0.70
     Davidson diagonalization with overlap
     ethr =  8.73E-08,  avg # of iterations =  5.0

     negative rho (up, down):  6.259E-03 0.000E+00

     total cpu time spent up to now is       79.2 secs

     total energy              =   -2246.18927317 Ry
     estimated scf accuracy    <       0.00005211 Ry

     iteration # 13     ecut=    80.00 Ry     beta= 0.70
     Davidson diagonalization with overlap
     ethr =  1.67E-08,  avg # of iterations =  5.0

     negative rho (up, down):  1.178E-03 0.000E+00

     total cpu time spent up to now is       87.3 secs

     total energy              =   -2246.18930030 Ry
     estimated scf accuracy    <       0.00000865 Ry

     iteration # 14     ecut=    80.00 Ry     beta= 0.70
     Davidson diagonalization with overlap
     ethr =  2.77E-09,  avg # of iterations =  4.0

     negative rho (up, down):  3.969E-04 0.000E+00

     total cpu time spent up to now is       97.6 secs

     total energy              =   -2246.18930294 Ry
     estimated scf accuracy    <       0.00000158 Ry

     iteration # 15     ecut=    80.00 Ry     beta= 0.70
     Davidson diagonalization with overlap
     ethr =  5.08E-10,  avg # of iterations =  6.0

     negative rho (up, down):  2.126E-04 0.000E+00

     total cpu time spent up to now is      101.5 secs

     End of self-consistent calculation

          k = 0.0000 0.0000 0.0000 (105382 PWs)   bands (ev):

   -63.0745 -62.8925 -62.8792 -62.8740 -62.8583 -62.8534 -62.8325 -62.8195
   -62.8114 -62.7883 -62.7671 -62.6990 -37.3483 -37.2887 -37.2300 -37.2058
   -37.1752 -37.1513 -37.1395 -37.1215 -37.0938 -37.0864 -37.0683 -37.0600
   -37.0568 -37.0489 -37.0436 -37.0339 -37.0300 -37.0238 -37.0008 -36.9999
   -36.9909 -36.9802 -36.9726 -36.9571 -36.9533 -36.9507 -36.9447 -36.9244
   -36.8815 -36.8757 -36.8656 -36.8495 -36.8455 -36.8208 -36.7585 -36.7105
   -23.4021 -15.9583 -15.3299 -15.1644 -15.1357 -14.9282 -14.7993 -14.7428
   -14.5118 -14.4830 -14.4431 -14.3933 -14.3782 -14.3315 -14.2506 -14.1978
   -14.1480 -14.1407 -14.0760 -13.9292 -13.9118 -13.8689 -13.8407 -13.5072
    -9.1005  -8.2009  -8.0247  -7.5407  -7.4320  -7.3185  -7.2689  -7.2575
    -7.1408  -7.0773  -6.9939  -6.8199  -6.7876  -6.7585  -6.6601  -6.6052
    -6.5380  -6.4526  -6.3902  -6.2690  -6.1740  -6.0848  -5.9429  -5.8835
    -5.8317  -5.8164  -5.7669  -5.7385  -5.6866  -5.6636  -5.6212  -5.5812
    -5.5407  -5.4877  -5.4035  -5.3878  -5.2910  -5.1212  -5.0859  -5.0544
    -5.0108  -4.9628  -4.9071  -4.8771  -4.6819  -4.5461  -4.4462  -4.3364
    -4.2686  -4.2251  -4.1516  -4.0880  -4.0563  -3.9610  -3.8790  -3.7882
    -3.7571  -3.6943  -3.6791  -3.6126  -3.5932  -3.5588  -3.5137  -3.5043
    -3.4383  -3.3964  -3.2517  -3.2439  -3.1328  -3.0569  -2.9878  -2.8294
    -2.8017  -2.7316  -2.7238  -2.7006  -2.6608  -2.6063  -2.5403  -2.2647
    -2.1111  -2.0220  -1.7286  -1.6892  -1.2853  -0.7516  -0.6552  -0.2117
    -0.1546  -0.0974  -0.0403   0.0507   0.0640   0.1394   0.1954   0.2353
     0.3106   0.3424   0.3932   0.4176   0.4992   0.5296   0.5631   0.6415
     0.6765   0.7034   0.7372   0.7580   0.8027   0.8507   0.9037   0.9427
     0.9695   1.0714   1.2266

     the Fermi energy is    -1.4816 ev

!    total energy              =   -2246.18930519 Ry
     estimated scf accuracy    <       0.00000029 Ry
     smearing contrib. (-TS)   =      -0.00146181 Ry
     internal energy E=F+TS    =   -2246.18784339 Ry

     The total energy is F=E-TS. E is the sum of the following terms:
     one-electron contribution =  -18494.45241643 Ry
     hartree contribution      =    9235.62357935 Ry
     xc contribution           =    -392.23182462 Ry
     ewald contribution        =    7414.73225906 Ry
     one-center paw contrib.   =      -9.85944075 Ry

     convergence has been achieved in  15 iterations

     negative rho (up, down):  2.126E-04 0.000E+00

     Forces acting on atoms (cartesian axes, Ry/au):

     atom    1 type  1   force =     0.00905799   -0.02853450    0.00480698
     atom    2 type  2   force =    -0.01056160    0.02111657   -0.00295625
     atom    3 type  2   force =    -0.00744176    0.00434534   -0.00771770
     atom    4 type  1   force =     0.00722153   -0.00011064   -0.00315590
     atom    5 type  2   force =    -0.00281017   -0.00514360   -0.00602932
     atom    6 type  2   force =     0.00266710    0.01088793    0.00233722
     atom    7 type  1   force =     0.02690802   -0.01792724   -0.02024170
     atom    8 type  2   force =    -0.00096299   -0.00312971    0.02243826
     atom    9 type  2   force =     0.01179888    0.00435609    0.01202691
     atom   10 type  1   force =     0.00583152    0.03344679   -0.02592334
     atom   11 type  2   force =     0.04998915   -0.00406317   -0.09571218
     atom   12 type  2   force =     0.00005615    0.00312866    0.00466607
     atom   13 type  1   force =     0.00510077    0.00485787   -0.00740696
     atom   14 type  2   force =     0.00835154   -0.00213824    0.01825524
     atom   15 type  2   force =    -0.01253715   -0.00064417   -0.00882518
     atom   16 type  1   force =    -0.00003399    0.01060800   -0.00067701
     atom   17 type  2   force =     0.00545680    0.00161708    0.00333991
     atom   18 type  2   force =    -0.00475775   -0.00692160    0.01413093
     atom   19 type  1   force =    -0.00089805   -0.00856663   -0.00657071
     atom   20 type  2   force =     0.00077932   -0.00265250    0.00282494
     atom   21 type  1   force =    -0.00230550    0.05249605   -0.06964023
     atom   22 type  2   force =    -0.05569125    0.01264959   -0.03668441
     atom   23 type  2   force =    -0.00420798    0.00129712    0.00789150
     atom   24 type  1   force =    -0.00996125    0.00334558   -0.02062945
     atom   25 type  2   force =     0.01603377    0.01829106    0.01167908
     atom   26 type  2   force =    -0.01328307   -0.00157805   -0.00776157
     atom   27 type  1   force =    -0.00257474   -0.00200102    0.00634918
     atom   28 type  2   force =     0.00145709   -0.00078808   -0.00454445
     atom   29 type  2   force =     0.00247125   -0.00084981   -0.00309653
     atom   30 type  1   force =    -0.01025050    0.01053237   -0.00235645
     atom   31 type  2   force =     0.00108190    0.00021764    0.01871881
     atom   32 type  2   force =    -0.01022728    0.00545369    0.00533158
     atom   33 type  1   force =     0.00580754   -0.00145088   -0.02285858
     atom   34 type  2   force =     0.01014530   -0.04436761   -0.01066321
     atom   35 type  2   force =    -0.00996374    0.00964472    0.01080384
     atom   36 type  3   force =    -0.01174687   -0.07742467    0.21785068
     The non-local contrib.  to forces
     atom    1 type  1   force =    -0.00492376    0.03972582   -0.01303142
     atom    2 type  2   force =    -0.00456198    0.00040295   -0.26453226
     atom    3 type  2   force =    -0.00954169   -0.01095891    0.27448508
     atom    4 type  1   force =    -0.00103268    0.00473466    0.00353218
     atom    5 type  2   force =     0.00538861   -0.03234840   -0.25384482
     atom    6 type  2   force =    -0.00025374    0.01058037    0.26126476
     atom    7 type  1   force =    -0.01422302    0.03242635   -0.01441699
     atom    8 type  2   force =    -0.00488227    0.00353298   -0.25155159
     atom    9 type  2   force =     0.00567993   -0.00464462    0.27789712
     atom   10 type  1   force =     0.01365452    0.00802889   -0.00588010
     atom   11 type  2   force =    -0.32262476   -0.07945596    0.05823132
     atom   12 type  2   force =    -0.01032580   -0.01750492    0.26366945
     atom   13 type  1   force =     0.00002014    0.01961248   -0.00298887
     atom   14 type  2   force =     0.01219920   -0.02043463   -0.26434571
     atom   15 type  2   force =    -0.01319033   -0.00634111    0.26282998
     atom   16 type  1   force =    -0.00259359    0.03690511   -0.01783452
     atom   17 type  2   force =     0.00275559   -0.02781470   -0.25207610
     atom   18 type  2   force =    -0.00626496   -0.00301958    0.27364778
     atom   19 type  1   force =     0.00640239    0.00095815   -0.02004461
     atom   20 type  2   force =    -0.00038653   -0.02050687    0.26176485
     atom   21 type  1   force =     0.01206473    0.02201189    0.02574261
     atom   22 type  2   force =     0.10095507   -0.02009870   -0.20218558
     atom   23 type  2   force =     0.00236676   -0.01704111    0.26655817
     atom   24 type  1   force =     0.01003466    0.01906289   -0.01107357
     atom   25 type  2   force =     0.00708136    0.00738707   -0.25648944
     atom   26 type  2   force =    -0.00321793   -0.01176030    0.26462106
     atom   27 type  1   force =     0.00104534    0.00935956    0.00690323
     atom   28 type  2   force =    -0.00159993   -0.02678910   -0.27292111
     atom   29 type  2   force =     0.00490003    0.00099984    0.26450304
     atom   30 type  1   force =     0.00709071    0.01568918    0.00657509
     atom   31 type  2   force =    -0.01180136    0.00248227   -0.25453651
     atom   32 type  2   force =    -0.00451380   -0.00803378    0.27352125
     atom   33 type  1   force =     0.00897859    0.00199672    0.01111702
     atom   34 type  2   force =     0.00537961   -0.04062051   -0.27471879
     atom   35 type  2   force =    -0.00601653   -0.00821207    0.27233904
     atom   36 type  3   force =     1.47148467    0.67162234   -0.80197592
     The ionic contribution  to forces
     atom    1 type  1   force =     0.74888030    1.10323710    4.48253912
     atom    2 type  2   force =    -0.23163903    1.00088211   39.09133932
     atom    3 type  2   force =    -0.03421283    0.22081029  -36.67853646
     atom    4 type  1   force =     0.51983206   -0.06150041   -0.39585020
     atom    5 type  2   force =    -0.80214317    1.18741310   38.57034914
     atom    6 type  2   force =     0.40463293   -0.56745399  -38.56642451
     atom    7 type  1   force =    -0.74863863   -4.82502507   -1.83709414
     atom    8 type  2   force =    -0.12539867   -0.77406876   36.99099186
     atom    9 type  2   force =     0.51768366   -0.24414137  -38.71249892
     atom   10 type  1   force =     0.43768848    0.66652736    3.61571248
     atom   11 type  2   force =     6.72036836    1.01755944   34.84717273
     atom   12 type  2   force =     0.70591954    0.81675352  -39.04614103
     atom   13 type  1   force =     0.05290935    1.77082161    1.68626143
     atom   14 type  2   force =    -0.07055448    1.48535897   38.08690481
     atom   15 type  2   force =     0.13794883    0.25853924  -37.56260535
     atom   16 type  1   force =    -0.11529620    2.84070908   -0.97511529
     atom   17 type  2   force =     0.61437973    1.25553226   37.75421179
     atom   18 type  2   force =    -0.23122547   -0.71010368  -39.09279823
     atom   19 type  1   force =     0.78637824   -3.95667280   -2.78697273
     atom   20 type  2   force =     0.19075678   -0.53395280  -39.44997242
     atom   21 type  1   force =    -0.45502748    3.02675740   -4.34669398
     atom   22 type  2   force =    -3.87410763   -0.60692474   36.43972921
     atom   23 type  2   force =    -0.37224351    0.77403528  -39.35493054
     atom   24 type  1   force =    -0.48940337    1.55304560    4.98278296
     atom   25 type  2   force =     0.32393191    0.76659210   39.09322447
     atom   26 type  2   force =    -0.38902333    0.24129704  -37.89413986
     atom   27 type  1   force =    -0.30601079   -0.13047928   -3.25866860
     atom   28 type  2   force =     0.08224628    0.88939811   38.08493750
     atom   29 type  2   force =    -0.25108209   -0.46967198  -37.72414035
     atom   30 type  1   force =    -0.13377172   -1.38893989   -1.44216041
     atom   31 type  2   force =     0.62406607   -0.64057933   37.01216771
     atom   32 type  2   force =    -0.61517648   -0.18188822  -39.28734971
     atom   33 type  1   force =    -0.27637515   -0.10305465    0.37275841
     atom   34 type  2   force =     0.40573777   -1.27976795   39.11827499
     atom   35 type  2   force =    -0.26016542    0.53227528  -38.49599358
     atom   36 type  3   force =    -3.49186485   -4.93331996   46.67872838
     The local contribution  to forces
     atom    1 type  1   force =    -0.73509972   -1.17144596   -4.46504013
     atom    2 type  2   force =     0.22552673   -0.98034632  -38.85037883
     atom    3 type  2   force =     0.03590124   -0.20597597   36.41725829
     atom    4 type  1   force =    -0.51164575    0.05703542    0.38876815
     atom    5 type  2   force =     0.79451048   -1.16195772  -38.34314611
     atom    6 type  2   force =    -0.40192070    0.56890286   38.32812601
     atom    7 type  1   force =     0.78994109    4.77460204    1.83107869
     atom    8 type  2   force =     0.12890752    0.76747821  -36.73744965
     atom    9 type  2   force =    -0.51150890    0.25287537   38.46759302
     atom   10 type  1   force =    -0.44540796   -0.64138156   -3.63593039
     atom   11 type  2   force =    -6.36605407   -0.94689355  -35.00435525
     atom   12 type  2   force =    -0.69654621   -0.79766170   38.80788683
     atom   13 type  1   force =    -0.04764049   -1.78561408   -1.69105036
     atom   14 type  2   force =     0.06743315   -1.46780588  -37.82505110
     atom   15 type  2   force =    -0.13801613   -0.25316023   37.31145584
     atom   16 type  1   force =     0.11786934   -2.86698778    0.99188635
     atom   17 type  2   force =    -0.61160576   -1.22754451  -37.51932934
     atom   18 type  2   force =     0.23257900    0.70679186   38.85413403
     atom   19 type  1   force =    -0.79396071    3.94736063    2.80020322
     atom   20 type  2   force =    -0.18974077    0.55103154   39.21185271
     atom   21 type  1   force =     0.44037542   -2.99637928    4.25109964
     atom   22 type  2   force =     3.72243991    0.63893979  -36.29209846
     atom   23 type  2   force =     0.36586058   -0.75715064   39.11706163
     atom   24 type  1   force =     0.46938177   -1.56884459   -4.99271430
     atom   25 type  2   force =    -0.31495207   -0.75529271  -38.84576163
     atom   26 type  2   force =     0.37909902   -0.23178671   37.64257183
     atom   27 type  1   force =     0.30241697    0.11944603    3.25763336
     atom   28 type  2   force =    -0.07937669   -0.86522735  -37.83760409
     atom   29 type  2   force =     0.24912662    0.46850710   37.47696063
     atom   30 type  1   force =     0.11650756    1.38372760    1.43289370
     atom   31 type  2   force =    -0.61188453    0.63845744  -36.75970834
     atom   32 type  2   force =     0.60948151    0.19492795   39.04007700
     atom   33 type  1   force =     0.27334037    0.09925361   -0.40697303
     atom   34 type  2   force =    -0.40116712    1.27457678  -38.87559673
     atom   35 type  2   force =     0.25612456   -0.51532974   38.25554913
     atom   36 type  3   force =     2.02445145    4.19102099  -45.66632685
     The core correction contribution to forces
     atom    1 type  1   force =     0.00000000    0.00000000    0.00000000
     atom    2 type  2   force =     0.00007789    0.00014490    0.02048282
     atom    3 type  2   force =     0.00041774    0.00050758   -0.02109686
     atom    4 type  1   force =     0.00000000    0.00000000    0.00000000
     atom    5 type  2   force =    -0.00061283    0.00184731    0.02041747
     atom    6 type  2   force =     0.00015417   -0.00103585   -0.02077818
     atom    7 type  1   force =     0.00000000    0.00000000    0.00000000
     atom    8 type  2   force =     0.00037670    0.00001238    0.02024921
     atom    9 type  2   force =    -0.00004465    0.00027973   -0.02104905
     atom   10 type  1   force =     0.00000000    0.00000000    0.00000000
     atom   11 type  2   force =     0.01827145    0.00459315    0.00334347
     atom   12 type  2   force =     0.00096897    0.00140683   -0.02091444
     atom   13 type  1   force =     0.00000000    0.00000000    0.00000000
     atom   14 type  2   force =    -0.00075130    0.00067217    0.02060571
     atom   15 type  2   force =     0.00068710    0.00032160   -0.02062344
     atom   16 type  1   force =     0.00000000    0.00000000    0.00000000
     atom   17 type  2   force =    -0.00000352    0.00151040    0.02034591
     atom   18 type  2   force =     0.00020406   -0.00051248   -0.02101662
     atom   19 type  1   force =     0.00000000    0.00000000    0.00000000
     atom   20 type  2   force =     0.00013740    0.00076431   -0.02098741
     atom   21 type  1   force =     0.00000000    0.00000000    0.00000000
     atom   22 type  2   force =    -0.00498984    0.00067611    0.01776034
     atom   23 type  2   force =    -0.00026376    0.00137986   -0.02083661
     atom   24 type  1   force =     0.00000000    0.00000000    0.00000000
     atom   25 type  2   force =     0.00003274   -0.00054034    0.02049850
     atom   26 type  2   force =    -0.00009756    0.00060165   -0.02090985
     atom   27 type  1   force =     0.00000000    0.00000000    0.00000000
     atom   28 type  2   force =     0.00017204    0.00194186    0.02088791
     atom   29 type  2   force =    -0.00046689   -0.00056824   -0.02060954
     atom   30 type  1   force =     0.00000000    0.00000000    0.00000000
     atom   31 type  2   force =     0.00070949   -0.00001559    0.02058957
     atom   32 type  2   force =    -0.00001994    0.00049546   -0.02101160
     atom   33 type  1   force =     0.00000000    0.00000000    0.00000000
     atom   34 type  2   force =     0.00029425    0.00134379    0.02119379
     atom   35 type  2   force =     0.00020662    0.00079972   -0.02115964
     atom   36 type  3   force =    -0.01577051   -0.00678460    0.00729962
     The Hubbard contrib.    to forces
     atom    1 type  1   force =     0.00000000    0.00000000    0.00000000
     atom    2 type  2   force =     0.00000000    0.00000000    0.00000000
     atom    3 type  2   force =     0.00000000    0.00000000    0.00000000
     atom    4 type  1   force =     0.00000000    0.00000000    0.00000000
     atom    5 type  2   force =     0.00000000    0.00000000    0.00000000
     atom    6 type  2   force =     0.00000000    0.00000000    0.00000000
     atom    7 type  1   force =     0.00000000    0.00000000    0.00000000
     atom    8 type  2   force =     0.00000000    0.00000000    0.00000000
     atom    9 type  2   force =     0.00000000    0.00000000    0.00000000
     atom   10 type  1   force =     0.00000000    0.00000000    0.00000000
     atom   11 type  2   force =     0.00000000    0.00000000    0.00000000
     atom   12 type  2   force =     0.00000000    0.00000000    0.00000000
     atom   13 type  1   force =     0.00000000    0.00000000    0.00000000
     atom   14 type  2   force =     0.00000000    0.00000000    0.00000000
     atom   15 type  2   force =     0.00000000    0.00000000    0.00000000
     atom   16 type  1   force =     0.00000000    0.00000000    0.00000000
     atom   17 type  2   force =     0.00000000    0.00000000    0.00000000
     atom   18 type  2   force =     0.00000000    0.00000000    0.00000000
     atom   19 type  1   force =     0.00000000    0.00000000    0.00000000
     atom   20 type  2   force =     0.00000000    0.00000000    0.00000000
     atom   21 type  1   force =     0.00000000    0.00000000    0.00000000
     atom   22 type  2   force =     0.00000000    0.00000000    0.00000000
     atom   23 type  2   force =     0.00000000    0.00000000    0.00000000
     atom   24 type  1   force =     0.00000000    0.00000000    0.00000000
     atom   25 type  2   force =     0.00000000    0.00000000    0.00000000
     atom   26 type  2   force =     0.00000000    0.00000000    0.00000000
     atom   27 type  1   force =     0.00000000    0.00000000    0.00000000
     atom   28 type  2   force =     0.00000000    0.00000000    0.00000000
     atom   29 type  2   force =     0.00000000    0.00000000    0.00000000
     atom   30 type  1   force =     0.00000000    0.00000000    0.00000000
     atom   31 type  2   force =     0.00000000    0.00000000    0.00000000
     atom   32 type  2   force =     0.00000000    0.00000000    0.00000000
     atom   33 type  1   force =     0.00000000    0.00000000    0.00000000
     atom   34 type  2   force =     0.00000000    0.00000000    0.00000000
     atom   35 type  2   force =     0.00000000    0.00000000    0.00000000
     atom   36 type  3   force =     0.00000000    0.00000000    0.00000000
     The SCF correction term to forces
     atom    1 type  1   force =     0.00020005   -0.00005149    0.00033496
     atom    2 type  2   force =     0.00003368    0.00003290    0.00012824
     atom    3 type  2   force =    -0.00000733   -0.00003766    0.00016781
     atom    4 type  1   force =     0.00006677   -0.00038034    0.00038952
     atom    5 type  2   force =     0.00004560   -0.00009792    0.00019055
     atom    6 type  2   force =     0.00005332   -0.00010549    0.00014469
     atom    7 type  1   force =    -0.00017254    0.00006942    0.00018629
     atom    8 type  2   force =     0.00003261   -0.00008453    0.00019399
     atom    9 type  2   force =    -0.00001228   -0.00001306    0.00008030
     atom   10 type  1   force =    -0.00010464    0.00027207    0.00017023
     atom   11 type  2   force =     0.00002704    0.00013372   -0.00010890
     atom   12 type  2   force =     0.00003852    0.00013490    0.00016081
     atom   13 type  1   force =    -0.00018934    0.00003783    0.00036639
     atom   14 type  2   force =     0.00002385    0.00007110    0.00013708
     atom   15 type  2   force =     0.00003225   -0.00000370    0.00011334
     atom   16 type  1   force =    -0.00001466   -0.00001845    0.00038199
     atom   17 type  2   force =    -0.00007037   -0.00006639    0.00018320
     atom   18 type  2   force =    -0.00005150   -0.00007774    0.00015952
     atom   19 type  1   force =     0.00028090   -0.00021264    0.00023896
     atom   20 type  2   force =     0.00001131    0.00001129    0.00016276
     atom   21 type  1   force =     0.00028070    0.00010601    0.00020705
     atom   22 type  2   force =     0.00001013    0.00005710    0.00010563
     atom   23 type  2   force =     0.00007083    0.00007370    0.00003440
     atom   24 type  1   force =     0.00002457    0.00008164    0.00037102
     atom   25 type  2   force =    -0.00006130    0.00014492    0.00020272
     atom   26 type  2   force =    -0.00004440    0.00007023    0.00009081
     atom   27 type  1   force =    -0.00002738   -0.00032736    0.00047674
     atom   28 type  2   force =     0.00001426   -0.00011163    0.00015089
     atom   29 type  2   force =    -0.00000755   -0.00011656    0.00018524
     atom   30 type  1   force =    -0.00007817    0.00005543    0.00033071
     atom   31 type  2   force =    -0.00000890   -0.00012718    0.00020194
     atom   32 type  2   force =     0.00000031   -0.00004775    0.00009019
     atom   33 type  1   force =    -0.00013739    0.00035341    0.00023458
     atom   34 type  2   force =    -0.00010034    0.00010024    0.00017907
     atom   35 type  2   force =    -0.00011409    0.00011151    0.00006444
     atom   36 type  3   force =    -0.00004875    0.00003652    0.00012100

     Total force =     0.300448     Total SCF correction =     0.001682

     BFGS Geometry Optimization
     Energy error            =      0.0E+00 Ry
     Gradient error          =      2.2E-01 Ry/Bohr

     number of scf cycles    =   1
     number of bfgs steps    =   0

     energy             new  =   -2246.1893051924 Ry

     new trust radius        =       0.2314983505 bohr
     new conv_thr            =       0.0000010000 Ry


ATOMIC_POSITIONS (angstrom)
Mo            6.5793416912        1.7727064222        2.8261867761
S             8.1711203820        0.8208784321        4.4329739704
S             8.1892950786        0.8135412019        1.2737993964
Mo            8.0989840355        4.4949983939        2.7161483622
S             6.4984221765        3.7196896116        4.3434700724
S             6.5547611682        3.5174991984        1.1225170321
Mo            6.5042208077        7.2089505995        2.6611730386
S             8.0812181352        6.3422148235        4.2543353783
S             8.0871613469        6.3070074594        1.0902273664
Mo            8.1637049580        9.9198796905        2.8297437216
S             6.5216207122        8.9407766797        4.3324568267
S             6.6179769107        9.0503668302        1.1423764786
Mo            3.4243588747        1.7495265232        2.7725515689
S             4.9795849366        0.8158096996        4.3601933515
S             5.0511993804        0.8459212261        1.2219883778
Mo            4.9797386969        4.5187915136        2.6325262906
S             3.4307292738        3.6724554087        4.2814769845
S             3.4354028894        3.5445659467        1.0658294471
Mo            3.4533865119        7.2117912734        2.6271997924
S             4.9836465915        6.3255286420        1.0387486256
Mo            5.0110439015        9.9293797623        2.7065489400
S             3.4414875791        8.9504451426        4.3061787579
S             3.4062023971        9.0656763886        1.1002442991
Mo            0.2908192229        1.7492799374        2.8385280764
S             1.8589469204        0.8023732205        4.4043897410
S             1.8537709387        0.8535908492        1.2052936081
Mo            1.8593288164        4.4946078667        2.6635572217
S             0.2729849060        3.6539817925        4.3351792800
S             0.2325389354        3.5267995271        1.1703792690
Mo            0.2657278191        7.2222195817        2.7004494459
S             1.9028107624        6.3129140032        4.2323496900
S             1.8568261725        6.3132297799        1.0473806324
Mo            1.8474198819        9.9393713783        2.7608500138
S             0.3012815603        9.0665194992        4.4082267357
S             0.2714988147        9.0486294783        1.1561179281
O             5.2475393811        8.4592841823        5.2134910521



     Writing config-only to output data dir ./MoS2-V-O.save/
     NEW-OLD atomic charge density approx. for the potential

     negative rho (up, down):  1.959E-04 0.000E+00

     total cpu time spent up to now is      109.0 secs

     Self-consistent Calculation

     iteration #  1     ecut=    80.00 Ry     beta= 0.70
     Davidson diagonalization with overlap
     ethr =  1.00E-06,  avg # of iterations = 14.0

     negative rho (up, down):  1.184E-03 0.000E+00

     total cpu time spent up to now is      124.4 secs

     total energy              =   -2246.24393931 Ry
     estimated scf accuracy    <       0.01400633 Ry

     iteration #  2     ecut=    80.00 Ry     beta= 0.70
     Davidson diagonalization with overlap
     ethr =  4.49E-06,  avg # of iterations =  5.0

     negative rho (up, down):  1.803E-03 0.000E+00

     total cpu time spent up to now is      136.3 secs

     total energy              =   -2246.24581780 Ry
     estimated scf accuracy    <       0.01074056 Ry

     iteration #  3     ecut=    80.00 Ry     beta= 0.70
     Davidson diagonalization with overlap
     ethr =  3.44E-06,  avg # of iterations =  3.0

     negative rho (up, down):  3.204E-03 0.000E+00

     total cpu time spent up to now is      151.8 secs

     total energy              =   -2246.24569303 Ry
     estimated scf accuracy    <       0.00159153 Ry

     iteration #  4     ecut=    80.00 Ry     beta= 0.70
     Davidson diagonalization with overlap
     ethr =  5.10E-07,  avg # of iterations =  5.0

     negative rho (up, down):  3.457E-03 0.000E+00

     total cpu time spent up to now is      162.8 secs

     total energy              =   -2246.24593212 Ry
     estimated scf accuracy    <       0.00063538 Ry

     iteration #  5     ecut=    80.00 Ry     beta= 0.70
     Davidson diagonalization with overlap
     ethr =  2.04E-07,  avg # of iterations =  2.0

     negative rho (up, down):  3.410E-03 0.000E+00

     total cpu time spent up to now is      172.8 secs

     total energy              =   -2246.24586083 Ry
     estimated scf accuracy    <       0.00034761 Ry

     iteration #  6     ecut=    80.00 Ry     beta= 0.70
     Davidson diagonalization with overlap
     ethr =  1.11E-07,  avg # of iterations =  6.0

     negative rho (up, down):  2.901E-03 0.000E+00

     total cpu time spent up to now is      183.7 secs

     total energy              =   -2246.24591524 Ry
     estimated scf accuracy    <       0.00006922 Ry

     iteration #  7     ecut=    80.00 Ry     beta= 0.70
     Davidson diagonalization with overlap
     ethr =  2.22E-08,  avg # of iterations =  4.0

     negative rho (up, down):  2.209E-03 0.000E+00

     total cpu time spent up to now is      194.3 secs

     total energy              =   -2246.24591367 Ry
     estimated scf accuracy    <       0.00001173 Ry

     iteration #  8     ecut=    80.00 Ry     beta= 0.70
     Davidson diagonalization with overlap
     ethr =  3.76E-09,  avg # of iterations =  5.0

     negative rho (up, down):  1.481E-03 0.000E+00

     total cpu time spent up to now is      204.7 secs

     total energy              =   -2246.24591101 Ry
     estimated scf accuracy    <       0.00000377 Ry

     iteration #  9     ecut=    80.00 Ry     beta= 0.70
     Davidson diagonalization with overlap
     ethr =  1.21E-09,  avg # of iterations =  2.0

     negative rho (up, down):  7.569E-04 0.000E+00

     total cpu time spent up to now is      215.5 secs

     total energy              =   -2246.24590695 Ry
     estimated scf accuracy    <       0.00000240 Ry

     iteration # 10     ecut=    80.00 Ry     beta= 0.70
     Davidson diagonalization with overlap
     ethr =  7.68E-10,  avg # of iterations =  2.0

     negative rho (up, down):  2.081E-04 0.000E+00

     total cpu time spent up to now is      218.8 secs

     End of self-consistent calculation

          k = 0.0000 0.0000 0.0000 (105382 PWs)   bands (ev):

   -63.0951 -62.9371 -62.9225 -62.9171 -62.8973 -62.8944 -62.8864 -62.8635
   -62.8607 -62.8465 -62.8167 -62.7490 -37.3798 -37.3250 -37.2666 -37.2416
   -37.2203 -37.1960 -37.1781 -37.1657 -37.1363 -37.1299 -37.1153 -37.1035
   -37.1015 -37.0927 -37.0893 -37.0761 -37.0740 -37.0712 -37.0446 -37.0429
   -37.0371 -37.0259 -37.0211 -37.0072 -36.9970 -36.9966 -36.9948 -36.9705
   -36.9391 -36.9281 -36.9144 -36.8981 -36.8942 -36.8662 -36.8112 -36.7608
   -21.7264 -16.0071 -15.2197 -15.2064 -15.1953 -14.9662 -14.7960 -14.7576
   -14.5517 -14.5140 -14.4927 -14.4481 -14.4396 -14.3764 -14.2807 -14.2570
   -14.1882 -14.1855 -14.1345 -13.9554 -13.9375 -13.9187 -13.9100 -13.7433
    -8.4481  -7.9025  -7.7021  -7.5260  -7.4434  -7.3685  -7.3076  -7.3033
    -7.1977  -7.0213  -6.9416  -6.8657  -6.8366  -6.7928  -6.6788  -6.6460
    -6.5814  -6.4896  -6.4028  -6.3060  -6.1799  -6.1003  -5.9952  -5.9127
    -5.8529  -5.8374  -5.8227  -5.7831  -5.7392  -5.7183  -5.6849  -5.6166
    -5.5806  -5.5278  -5.4245  -5.4026  -5.2882  -5.1622  -5.1130  -5.0937
    -5.0588  -5.0031  -4.9492  -4.9199  -4.6865  -4.5748  -4.4353  -4.3957
    -4.3109  -4.2613  -4.2054  -4.0996  -4.0744  -3.9868  -3.9345  -3.8373
    -3.7957  -3.7412  -3.7112  -3.6533  -3.6313  -3.5994  -3.5699  -3.5375
    -3.4915  -3.4387  -3.2903  -3.2494  -3.1742  -3.0908  -2.9852  -2.8818
    -2.8639  -2.7932  -2.7784  -2.7447  -2.7057  -2.6481  -2.5993  -2.2880
    -2.2023  -2.0664  -1.8012  -1.7523  -1.2779  -0.8193  -0.6922  -0.2418
    -0.2040  -0.1171  -0.0789   0.0151   0.0413   0.0871   0.1546   0.2093
     0.2820   0.3104   0.3492   0.3725   0.4653   0.4980   0.5239   0.6043
     0.6108   0.6393   0.7243   0.7289   0.7714   0.8060   0.8785   0.8984
     0.9340   0.9885   1.1699

     the Fermi energy is    -1.5118 ev

!    total energy              =   -2246.24590548 Ry
     estimated scf accuracy    <       0.00000042 Ry
     smearing contrib. (-TS)   =      -0.00060332 Ry
     internal energy E=F+TS    =   -2246.24530215 Ry

     The total energy is F=E-TS. E is the sum of the following terms:
     one-electron contribution =  -18479.22047170 Ry
     hartree contribution      =    9227.65815401 Ry
     xc contribution           =    -392.10635105 Ry
     ewald contribution        =    7407.28993965 Ry
     one-center paw contrib.   =      -9.86657306 Ry

     convergence has been achieved in  10 iterations

     negative rho (up, down):  2.081E-04 0.000E+00

     Forces acting on atoms (cartesian axes, Ry/au):

     atom    1 type  1   force =     0.00175529   -0.01463107    0.00008667
     atom    2 type  2   force =    -0.00509320    0.01635185   -0.00220315
     atom    3 type  2   force =    -0.00697191    0.00758263   -0.01433215
     atom    4 type  1   force =     0.00600831    0.00209085    0.00152862
     atom    5 type  2   force =    -0.00143774   -0.00548594   -0.00643850
     atom    6 type  2   force =     0.00204978    0.00668922    0.00328486
     atom    7 type  1   force =     0.01083329   -0.01379396   -0.00977321
     atom    8 type  2   force =     0.00125311   -0.00521112    0.01635728
     atom    9 type  2   force =     0.01371249    0.00275527    0.00409960
     atom   10 type  1   force =     0.01250937    0.02704593   -0.01096159
     atom   11 type  2   force =    -0.09013295   -0.04929427   -0.00361213
     atom   12 type  2   force =     0.00336846    0.00371891   -0.00516559
     atom   13 type  1   force =     0.00596632    0.00286482   -0.00145852
     atom   14 type  2   force =     0.00539578   -0.00214392    0.00846561
     atom   15 type  2   force =    -0.00895404    0.01203691   -0.01812088
     atom   16 type  1   force =     0.00031942    0.00620654    0.00065128
     atom   17 type  2   force =     0.00529011    0.00187702    0.00232318
     atom   18 type  2   force =    -0.00354503   -0.00430467    0.01072986
     atom   19 type  1   force =    -0.00076629   -0.00717877   -0.00044413
     atom   20 type  2   force =     0.00205424   -0.00268278   -0.00178433
     atom   21 type  1   force =    -0.00952339    0.01201735   -0.01206597
     atom   22 type  2   force =    -0.01214191    0.00801057   -0.02863576
     atom   23 type  2   force =    -0.00380727    0.00025539   -0.00229297
     atom   24 type  1   force =    -0.00516368    0.00226823   -0.00967223
     atom   25 type  2   force =     0.01023189    0.01380264    0.00170746
     atom   26 type  2   force =    -0.00985362    0.00070357   -0.00892368
     atom   27 type  1   force =    -0.00211147    0.00011411    0.00658913
     atom   28 type  2   force =     0.00061983   -0.00169143   -0.00458491
     atom   29 type  2   force =     0.00241362    0.00099112   -0.00488160
     atom   30 type  1   force =    -0.00546830    0.00302425    0.00452563
     atom   31 type  2   force =    -0.00006683   -0.00017982    0.01253051
     atom   32 type  2   force =    -0.00872589    0.00484463    0.00448978
     atom   33 type  1   force =    -0.00310048    0.00258940   -0.00945235
     atom   34 type  2   force =     0.00643220   -0.03132975   -0.01582817
     atom   35 type  2   force =    -0.00818459    0.00835868    0.00282699
     atom   36 type  3   force =     0.09483507   -0.00827241    0.09043535
     The non-local contrib.  to forces
     atom    1 type  1   force =    -0.00388109    0.03356059   -0.01338237
     atom    2 type  2   force =    -0.00217401   -0.00181856   -0.26452194
     atom    3 type  2   force =    -0.00740345   -0.00993725    0.26855948
     atom    4 type  1   force =     0.00053709    0.00532444    0.00275925
     atom    5 type  2   force =     0.00682493   -0.03428074   -0.25724328
     atom    6 type  2   force =    -0.00036289    0.00657937    0.26422549
     atom    7 type  1   force =    -0.01164525    0.02606156   -0.02014925
     atom    8 type  2   force =    -0.00008412    0.00060891   -0.25707523
     atom    9 type  2   force =     0.00618038   -0.00691865    0.27365142
     atom   10 type  1   force =     0.01374095    0.00818245   -0.00654574
     atom   11 type  2   force =    -0.36966979   -0.08875905    0.14958427
     atom   12 type  2   force =    -0.00945319   -0.01614508    0.26174775
     atom   13 type  1   force =     0.00118866    0.02010944   -0.00509270
     atom   14 type  2   force =     0.00923232   -0.01329702   -0.26884966
     atom   15 type  2   force =    -0.01041932    0.00125967    0.25509550
     atom   16 type  1   force =    -0.00369122    0.03743973   -0.01917609
     atom   17 type  2   force =     0.00251906   -0.02751161   -0.25426517
     atom   18 type  2   force =    -0.00509982   -0.00060542    0.27221721
     atom   19 type  1   force =     0.00729803    0.00423172   -0.02260256
     atom   20 type  2   force =     0.00150641   -0.01840237    0.26082142
     atom   21 type  1   force =     0.00680738    0.02763715    0.02581082
     atom   22 type  2   force =     0.10111855   -0.01447274   -0.20614260
     atom   23 type  2   force =     0.00537011   -0.01614952    0.26255325
     atom   24 type  1   force =     0.00791337    0.01995460   -0.00990160
     atom   25 type  2   force =     0.00252310    0.00504027   -0.26339177
     atom   26 type  2   force =    -0.00060580   -0.01091122    0.26463300
     atom   27 type  1   force =     0.00001831    0.00862785    0.00612809
     atom   28 type  2   force =    -0.00240892   -0.02635757   -0.27414282
     atom   29 type  2   force =     0.00458325    0.00113744    0.26401570
     atom   30 type  1   force =     0.00591250    0.01671909    0.00545344
     atom   31 type  2   force =    -0.01381857    0.00328730   -0.26044512
     atom   32 type  2   force =    -0.00290260   -0.00808226    0.27449329
     atom   33 type  1   force =     0.00945313    0.00082742    0.01455754
     atom   34 type  2   force =     0.00057262   -0.02943660   -0.27937600
     atom   35 type  2   force =    -0.00478653   -0.00903709    0.26765962
     atom   36 type  3   force =     1.26182276    0.59699920   -0.83575576
     The ionic contribution  to forces
     atom    1 type  1   force =     0.49868690    1.55603493    4.74797775
     atom    2 type  2   force =    -0.11227253    0.86968354   39.25838265
     atom    3 type  2   force =    -0.02897070    0.31904525  -36.85455018
     atom    4 type  1   force =     0.40143154   -0.09112962   -0.30683277
     atom    5 type  2   force =    -0.81936127    1.18247540   38.48458498
     atom    6 type  2   force =     0.34732768   -0.59977476  -38.44323973
     atom    7 type  1   force =    -1.36734108   -4.31977412   -1.88759937
     atom    8 type  2   force =    -0.18413300   -0.75276878   37.17973246
     atom    9 type  2   force =     0.54386641   -0.30242013  -38.71969644
     atom   10 type  1   force =     0.47413118    0.41608249    3.46502671
     atom   11 type  2   force =     4.96165818    0.67667953   34.45001767
     atom   12 type  2   force =     0.67211453    0.63105216  -38.92315472
     atom   13 type  1   force =    -0.02109011    1.77278234    1.80644518
     atom   14 type  2   force =    -0.14491275    1.25926032   38.28965872
     atom   15 type  2   force =     0.14522237    0.54690944  -37.72864813
     atom   16 type  1   force =    -0.08387736    2.79283815   -0.84316759
     atom   17 type  2   force =     0.63775951    1.24144980   37.77871215
     atom   18 type  2   force =    -0.20755076   -0.62944211  -38.99431238
     atom   19 type  1   force =     1.20042451   -3.68065000   -2.56311717
     atom   20 type  2   force =     0.15246576   -0.47502475  -39.38145140
     atom   21 type  1   force =    -0.46749111    1.88552186   -4.81950847
     atom   22 type  2   force =    -2.96363602   -0.59629344   36.15572696
     atom   23 type  2   force =    -0.35833544    0.57569162  -39.26393457
     atom   24 type  1   force =    -0.20659968    1.47804783    4.78883559
     atom   25 type  2   force =     0.25642791    0.67277811   39.10580788
     atom   26 type  2   force =    -0.33918417    0.29477019  -37.87688241
     atom   27 type  1   force =    -0.22198360    0.00566136   -2.97676590
     atom   28 type  2   force =     0.08702161    0.83863586   38.11058235
     atom   29 type  2   force =    -0.21823050   -0.38967708  -37.76107159
     atom   30 type  1   force =     0.03180854   -1.50215208   -1.31867885
     atom   31 type  2   force =     0.66293283   -0.59900462   37.07614625
     atom   32 type  2   force =    -0.58336129   -0.21184756  -39.20555181
     atom   33 type  1   force =    -0.29729581    0.05228631    0.20053888
     atom   34 type  2   force =     0.34077785   -1.09401876   39.06733041
     atom   35 type  2   force =    -0.22415082    0.44858238  -38.45604884
     atom   36 type  3   force =    -2.56427931   -4.27229107   46.35870570
     The local contribution  to forces
     atom    1 type  1   force =    -0.49284398   -1.60431804   -4.73445474
     atom    2 type  2   force =     0.10931315   -0.85160561  -39.01653390
     atom    3 type  2   force =     0.02911175   -0.30202078   36.59256513
     atom    4 type  1   force =    -0.39577339    0.08779926    0.30557842
     atom    5 type  2   force =     0.81182852   -1.15559352  -38.25410952
     atom    6 type  2   force =    -0.34501075    0.60082084   38.20297306
     atom    7 type  1   force =     1.38975097    4.27955742    1.89808196
     atom    8 type  2   force =     0.18533289    0.74671182  -36.92669708
     atom    9 type  2   force =    -0.53632720    0.31171463   38.47101572
     atom   10 type  1   force =    -0.47520627   -0.39693719   -3.46966098
     atom   11 type  2   force =    -4.70373723   -0.64286330  -34.60094694
     atom   12 type  2   force =    -0.66025332   -0.61238167   38.67682905
     atom   13 type  1   force =     0.02576867   -1.78989122   -1.80292261
     atom   14 type  2   force =     0.14175040   -1.24829101  -38.03307704
     atom   15 type  2   force =    -0.14436312   -0.53639137   37.47576447
     atom   16 type  1   force =     0.08779034   -2.82401402    0.86294653
     atom   17 type  2   force =    -0.63508838   -1.21353262  -37.54239670
     atom   18 type  2   force =     0.20890275    0.62633469   38.75369617
     atom   19 type  1   force =    -1.20853184    3.66904158    2.58526379
     atom   20 type  2   force =    -0.15196995    0.48999392   39.13967399
     atom   21 type  1   force =     0.45105175   -1.90092937    4.78163386
     atom   22 type  2   force =     2.85477146    0.61828732  -35.99611434
     atom   23 type  2   force =     0.34958224   -0.56047498   39.01963193
     atom   24 type  1   force =     0.19341669   -1.49549778   -4.78864138
     atom   25 type  2   force =    -0.24893504   -0.66346833  -38.86118427
     atom   26 type  2   force =     0.33011318   -0.28369622   37.62407228
     atom   27 type  1   force =     0.21977369   -0.01435114    2.97722864
     atom   28 type  2   force =    -0.08418662   -0.81584077  -37.86186626
     atom   29 type  2   force =     0.21649023    0.39004930   37.51273159
     atom   30 type  1   force =    -0.04319065    1.48830552    1.31763601
     atom   31 type  2   force =    -0.64993065    0.59546685  -36.82378085
     atom   32 type  2   force =     0.57768807    0.22425814   38.95644172
     atom   33 type  1   force =     0.28477717   -0.05047742   -0.22467989
     atom   34 type  2   force =    -0.33535271    1.09122024  -38.82494952
     atom   35 type  2   force =     0.22061428   -0.43196188   38.21205791
     atom   36 type  3   force =     1.41156105    3.67334106  -45.44057748
     The core correction contribution to forces
     atom    1 type  1   force =     0.00000000    0.00000000    0.00000000
     atom    2 type  2   force =     0.00005787    0.00021104    0.02060974
     atom    3 type  2   force =     0.00030770    0.00054762   -0.02098967
     atom    4 type  1   force =     0.00000000    0.00000000    0.00000000
     atom    5 type  2   force =    -0.00068242    0.00190892    0.02052313
     atom    6 type  2   force =     0.00013593   -0.00092354   -0.02083408
     atom    7 type  1   force =     0.00000000    0.00000000    0.00000000
     atom    8 type  2   force =     0.00011507    0.00014205    0.02056200
     atom    9 type  2   force =     0.00001247    0.00031101   -0.02101050
     atom   10 type  1   force =     0.00000000    0.00000000    0.00000000
     atom   11 type  2   force =     0.02130914    0.00548348   -0.00177455
     atom   12 type  2   force =     0.00098947    0.00122031   -0.02082814
     atom   13 type  1   force =     0.00000000    0.00000000    0.00000000
     atom   14 type  2   force =    -0.00067328    0.00021133    0.02090085
     atom   15 type  2   force =     0.00059021    0.00028638   -0.02046117
     atom   16 type  1   force =     0.00000000    0.00000000    0.00000000
     atom   17 type  2   force =     0.00002497    0.00147939    0.02044792
     atom   18 type  2   force =     0.00014724   -0.00059309   -0.02100105
     atom   19 type  1   force =     0.00000000    0.00000000    0.00000000
     atom   20 type  2   force =     0.00002209    0.00069360   -0.02099269
     atom   21 type  1   force =     0.00000000    0.00000000    0.00000000
     atom   22 type  2   force =    -0.00424783    0.00038796    0.01820672
     atom   23 type  2   force =    -0.00046060    0.00118561   -0.02072735
     atom   24 type  1   force =     0.00000000    0.00000000    0.00000000
     atom   25 type  2   force =     0.00019496   -0.00045522    0.02069953
     atom   26 type  2   force =    -0.00018802    0.00060270   -0.02089829
     atom   27 type  1   force =     0.00000000    0.00000000    0.00000000
     atom   28 type  2   force =     0.00020580    0.00186270    0.02098998
     atom   29 type  2   force =    -0.00042299   -0.00052364   -0.02063178
     atom   30 type  1   force =     0.00000000    0.00000000    0.00000000
     atom   31 type  2   force =     0.00078283   -0.00001655    0.02079995
     atom   32 type  2   force =    -0.00013857    0.00045900   -0.02105953
     atom   33 type  1   force =     0.00000000    0.00000000    0.00000000
     atom   34 type  2   force =     0.00046565    0.00091071    0.02137894
     atom   35 type  2   force =     0.00014071    0.00078957   -0.02102340
     atom   36 type  3   force =    -0.01421974   -0.00635546    0.00832702
     The Hubbard contrib.    to forces
     atom    1 type  1   force =     0.00000000    0.00000000    0.00000000
     atom    2 type  2   force =     0.00000000    0.00000000    0.00000000
     atom    3 type  2   force =     0.00000000    0.00000000    0.00000000
     atom    4 type  1   force =     0.00000000    0.00000000    0.00000000
     atom    5 type  2   force =     0.00000000    0.00000000    0.00000000
     atom    6 type  2   force =     0.00000000    0.00000000    0.00000000
     atom    7 type  1   force =     0.00000000    0.00000000    0.00000000
     atom    8 type  2   force =     0.00000000    0.00000000    0.00000000
     atom    9 type  2   force =     0.00000000    0.00000000    0.00000000
     atom   10 type  1   force =     0.00000000    0.00000000    0.00000000
     atom   11 type  2   force =     0.00000000    0.00000000    0.00000000
     atom   12 type  2   force =     0.00000000    0.00000000    0.00000000
     atom   13 type  1   force =     0.00000000    0.00000000    0.00000000
     atom   14 type  2   force =     0.00000000    0.00000000    0.00000000
     atom   15 type  2   force =     0.00000000    0.00000000    0.00000000
     atom   16 type  1   force =     0.00000000    0.00000000    0.00000000
     atom   17 type  2   force =     0.00000000    0.00000000    0.00000000
     atom   18 type  2   force =     0.00000000    0.00000000    0.00000000
     atom   19 type  1   force =     0.00000000    0.00000000    0.00000000
     atom   20 type  2   force =     0.00000000    0.00000000    0.00000000
     atom   21 type  1   force =     0.00000000    0.00000000    0.00000000
     atom   22 type  2   force =     0.00000000    0.00000000    0.00000000
     atom   23 type  2   force =     0.00000000    0.00000000    0.00000000
     atom   24 type  1   force =     0.00000000    0.00000000    0.00000000
     atom   25 type  2   force =     0.00000000    0.00000000    0.00000000
     atom   26 type  2   force =     0.00000000    0.00000000    0.00000000
     atom   27 type  1   force =     0.00000000    0.00000000    0.00000000
     atom   28 type  2   force =     0.00000000    0.00000000    0.00000000
     atom   29 type  2   force =     0.00000000    0.00000000    0.00000000
     atom   30 type  1   force =     0.00000000    0.00000000    0.00000000
     atom   31 type  2   force =     0.00000000    0.00000000    0.00000000
     atom   32 type  2   force =     0.00000000    0.00000000    0.00000000
     atom   33 type  1   force =     0.00000000    0.00000000    0.00000000
     atom   34 type  2   force =     0.00000000    0.00000000    0.00000000
     atom   35 type  2   force =     0.00000000    0.00000000    0.00000000
     atom   36 type  3   force =     0.00000000    0.00000000    0.00000000
     The SCF correction term to forces
     atom    1 type  1   force =    -0.00020943    0.00009007   -0.00002815
     atom    2 type  2   force =    -0.00002056   -0.00011994   -0.00011385
     atom    3 type  2   force =    -0.00002010   -0.00005359    0.00010891
     atom    4 type  1   force =    -0.00018981    0.00009538    0.00004955
     atom    5 type  2   force =    -0.00005038    0.00000263   -0.00016797
     atom    6 type  2   force =    -0.00004308   -0.00001407    0.00018595
     atom    7 type  1   force =     0.00006577    0.00035979   -0.00008072
     atom    8 type  2   force =     0.00001940    0.00009350   -0.00013905
     atom    9 type  2   force =    -0.00002245    0.00006702    0.00016522
     atom   10 type  1   force =    -0.00015937   -0.00028320    0.00024425
     atom   11 type  2   force =     0.00030387    0.00016369   -0.00046675
     atom   12 type  2   force =    -0.00003192   -0.00002820    0.00026631
     atom   13 type  1   force =     0.00009621   -0.00013713    0.00013744
     atom   14 type  2   force =    -0.00000379   -0.00002893   -0.00014143
     atom   15 type  2   force =     0.00001294   -0.00002859    0.00015428
     atom   16 type  1   force =     0.00009477   -0.00005870    0.00007426
     atom   17 type  2   force =     0.00007206   -0.00000931   -0.00014921
     atom   18 type  2   force =     0.00005267   -0.00000012    0.00015574
     atom   19 type  1   force =     0.00004013    0.00019655    0.00003764
     atom   20 type  2   force =     0.00002705    0.00005544    0.00019019
     atom   21 type  1   force =     0.00010570   -0.00021367    0.00002365
     atom   22 type  2   force =    -0.00015095    0.00010008   -0.00028667
     atom   23 type  2   force =     0.00003354    0.00000128    0.00020961
     atom   24 type  1   force =     0.00010305   -0.00023779    0.00006100
     atom   25 type  2   force =     0.00001807   -0.00009359   -0.00019807
     atom   26 type  2   force =     0.00000831   -0.00006327    0.00017758
     atom   27 type  1   force =     0.00007724    0.00017466    0.00002412
     atom   28 type  2   force =    -0.00001493    0.00000697   -0.00012233
     atom   29 type  2   force =    -0.00000926    0.00000371    0.00010031
     atom   30 type  1   force =    -0.00000158    0.00015033    0.00014086
     atom   31 type  2   force =    -0.00003615    0.00008582   -0.00016387
     atom   32 type  2   force =    -0.00001438    0.00005592    0.00019194
     atom   33 type  1   force =    -0.00003784   -0.00004829    0.00015696
     atom   34 type  2   force =    -0.00003409   -0.00000672   -0.00018615
     atom   35 type  2   force =    -0.00000511   -0.00001569    0.00020754
     atom   36 type  3   force =    -0.00005257    0.00003249   -0.00023829

     Total force =     0.189135     Total SCF correction =     0.001398
     Energy error            =      5.7E-02 Ry
     Gradient error          =      9.5E-02 Ry/Bohr

     number of scf cycles    =   2
     number of bfgs steps    =   1

     energy             old  =   -2246.1893051924 Ry
     energy             new  =   -2246.2459054761 Ry

     CASE: energy            _new < energy            _old

     new trust radius        =       0.2994504289 bohr
     new conv_thr            =       0.0000000948 Ry


ATOMIC_POSITIONS (angstrom)
Mo            6.5836479862        1.7522958865        2.8278367137
S             8.1638081002        0.8401375579        4.4303424768
S             8.1815984515        0.8206763026        1.2604765092
Mo            8.1058833805        4.4965343419        2.7162575341
S             6.4964144689        3.7138681665        4.3366402499
S             6.5571819962        3.5261193530        1.1257579465
Mo            6.5212390017        7.1926665992        2.6471498202
S             8.0818430631        6.3372639938        4.2740343205
S             8.1013636938        6.3105156738        1.0972754930
Mo            8.1750351851        9.9512463305        2.8129536677
S             6.4703163675        8.9023652770        4.2981860730
S             6.6205286762        9.0541950944        1.1400299870
Mo            3.4305274701        1.7532825517        2.7690127675
S             4.9863961696        0.8134924245        4.3725782943
S             5.0403322479        0.8547612381        1.2054510586
Mo            4.9799677105        4.5269563845        2.6327928933
S             3.4365066983        3.6744001453        4.2843252303
S             3.4311683169        3.5390467113        1.0785575261
Mo            3.4525141562        7.2035682322        2.6246995646
S             4.9854484150        6.3226365795        1.0383380413
Mo            5.0031217405        9.9557242544        2.6745158174
S             3.4139960288        8.9606398070        4.2725491075
S             3.4019518488        9.0662960884        1.1011215221
Mo            0.2836518553        1.7520887338        2.8244529717
S             1.8719278234        0.8187836923        4.4095241795
S             1.8419813589        0.8535997201        1.1960237147
Mo            1.8568920482        4.4940339918        2.6706057764
S             0.2739314234        3.6524499330        4.3302329771
S             0.2351688208        3.5272647397        1.1656871907
Mo            0.2582360041        7.2279662693        2.7030760873
S             1.9031171806        6.3128505195        4.2479444804
S             1.8468921325        6.3186711548        1.0525148841
Mo            1.8470027823        9.9408404185        2.7462053741
S             0.3094635945        9.0283308474        4.3928076949
S             0.2620587469        9.0580952970        1.1618057704
O             5.3149876231        8.4275376551        5.3533238335



     Writing config-only to output data dir ./MoS2-V-O.save/
     NEW-OLD atomic charge density approx. for the potential

     negative rho (up, down):  2.220E-04 0.000E+00

     total cpu time spent up to now is      226.3 secs

     Self-consistent Calculation

     iteration #  1     ecut=    80.00 Ry     beta= 0.70
     Davidson diagonalization with overlap
     ethr =  1.00E-06,  avg # of iterations = 17.0

     negative rho (up, down):  6.114E-04 0.000E+00

     total cpu time spent up to now is      241.9 secs

     total energy              =   -2246.28264846 Ry
     estimated scf accuracy    <       0.04899088 Ry

     iteration #  2     ecut=    80.00 Ry     beta= 0.70
     Davidson diagonalization with overlap
     ethr =  1.57E-05,  avg # of iterations =  6.0

     negative rho (up, down):  1.027E-03 0.000E+00

     total cpu time spent up to now is      255.7 secs

     total energy              =   -2246.29627100 Ry
     estimated scf accuracy    <       0.05087044 Ry

     iteration #  3     ecut=    80.00 Ry     beta= 0.70
     Davidson diagonalization with overlap
     ethr =  1.57E-05,  avg # of iterations =  3.0

     negative rho (up, down):  1.822E-03 0.000E+00

     total cpu time spent up to now is      271.1 secs

     total energy              =   -2246.29811527 Ry
     estimated scf accuracy    <       0.00414957 Ry

     iteration #  4     ecut=    80.00 Ry     beta= 0.70
     Davidson diagonalization with overlap
     ethr =  1.33E-06,  avg # of iterations =  6.0

     negative rho (up, down):  2.105E-03 0.000E+00

     total cpu time spent up to now is      283.4 secs

     total energy              =   -2246.29908252 Ry
     estimated scf accuracy    <       0.00113531 Ry

     iteration #  5     ecut=    80.00 Ry     beta= 0.70
     Davidson diagonalization with overlap
     ethr =  3.64E-07,  avg # of iterations =  2.0

     negative rho (up, down):  2.126E-03 0.000E+00

     total cpu time spent up to now is      294.4 secs

     total energy              =   -2246.29898665 Ry
     estimated scf accuracy    <       0.00063300 Ry

     iteration #  6     ecut=    80.00 Ry     beta= 0.70
     Davidson diagonalization with overlap
     ethr =  2.03E-07,  avg # of iterations =  4.0

     negative rho (up, down):  1.966E-03 0.000E+00

     total cpu time spent up to now is      308.1 secs

     total energy              =   -2246.29903813 Ry
     estimated scf accuracy    <       0.00004188 Ry

     iteration #  7     ecut=    80.00 Ry     beta= 0.70
     Davidson diagonalization with overlap
     ethr =  1.34E-08,  avg # of iterations =  6.0

     negative rho (up, down):  1.617E-03 0.000E+00

     total cpu time spent up to now is      319.5 secs

     total energy              =   -2246.29904060 Ry
     estimated scf accuracy    <       0.00004059 Ry

     iteration #  8     ecut=    80.00 Ry     beta= 0.70
     Davidson diagonalization with overlap
     ethr =  1.30E-08,  avg # of iterations =  3.0

     negative rho (up, down):  1.204E-03 0.000E+00

     total cpu time spent up to now is      330.0 secs

     total energy              =   -2246.29904097 Ry
     estimated scf accuracy    <       0.00000469 Ry

     iteration #  9     ecut=    80.00 Ry     beta= 0.70
     Davidson diagonalization with overlap
     ethr =  1.50E-09,  avg # of iterations =  6.0

     negative rho (up, down):  8.947E-04 0.000E+00

     total cpu time spent up to now is      340.1 secs

     total energy              =   -2246.29904017 Ry
     estimated scf accuracy    <       0.00000212 Ry

     iteration # 10     ecut=    80.00 Ry     beta= 0.70
     Davidson diagonalization with overlap
     ethr =  6.80E-10,  avg # of iterations =  4.0

     negative rho (up, down):  5.604E-04 0.000E+00

     total cpu time spent up to now is      351.3 secs

     total energy              =   -2246.29903905 Ry
     estimated scf accuracy    <       0.00000053 Ry

     iteration # 11     ecut=    80.00 Ry     beta= 0.70
     Davidson diagonalization with overlap
     ethr =  1.70E-10,  avg # of iterations =  5.0

     negative rho (up, down):  3.732E-04 0.000E+00

     total cpu time spent up to now is      362.0 secs

     total energy              =   -2246.29903859 Ry
     estimated scf accuracy    <       0.00000029 Ry

     iteration # 12     ecut=    80.00 Ry     beta= 0.70
     Davidson diagonalization with overlap
     ethr =  9.33E-11,  avg # of iterations =  2.0

     negative rho (up, down):  2.027E-04 0.000E+00

     total cpu time spent up to now is      365.4 secs

     End of self-consistent calculation

          k = 0.0000 0.0000 0.0000 (105382 PWs)   bands (ev):

   -63.1087 -62.9822 -62.9648 -62.9544 -62.9303 -62.9233 -62.9052 -62.8973
   -62.8906 -62.8738 -62.8608 -62.8145 -37.3875 -37.3506 -37.2975 -37.2588
   -37.2571 -37.2361 -37.2104 -37.1943 -37.1725 -37.1688 -37.1542 -37.1423
   -37.1389 -37.1337 -37.1267 -37.1092 -37.1036 -37.0951 -37.0786 -37.0772
   -37.0688 -37.0635 -37.0511 -37.0412 -37.0338 -37.0318 -37.0256 -37.0032
   -36.9768 -36.9720 -36.9699 -36.9463 -36.9380 -36.9047 -36.8436 -36.8178
   -21.2134 -16.0474 -15.2536 -15.2361 -15.1297 -14.9935 -14.8352 -14.6388
   -14.5793 -14.5341 -14.5212 -14.4920 -14.4832 -14.4141 -14.3219 -14.2693
   -14.2252 -14.2110 -14.1767 -13.9889 -13.9751 -13.9580 -13.9282 -13.8400
    -7.9913  -7.8477  -7.6118  -7.5404  -7.4577  -7.4076  -7.3422  -7.3328
    -7.2259  -7.0174  -6.9152  -6.9034  -6.8714  -6.8112  -6.7217  -6.6700
    -6.6118  -6.4987  -6.4333  -6.3393  -6.1912  -6.1293  -6.0255  -5.9370
    -5.8840  -5.8800  -5.8429  -5.8116  -5.7899  -5.7622  -5.7328  -5.6373
    -5.6210  -5.5477  -5.4299  -5.4018  -5.2842  -5.2097  -5.1351  -5.1126
    -5.0958  -5.0305  -4.9865  -4.9481  -4.6986  -4.6086  -4.4668  -4.4225
    -4.3557  -4.3113  -4.2539  -4.1602  -4.0856  -4.0020  -3.9752  -3.8771
    -3.8119  -3.7764  -3.7186  -3.6946  -3.6544  -3.6287  -3.5821  -3.5492
    -3.5288  -3.4607  -3.3368  -3.2574  -3.1639  -3.0984  -2.9961  -2.9270
    -2.9060  -2.8479  -2.8179  -2.7719  -2.7321  -2.6709  -2.6421  -2.3281
    -2.3080  -2.0965  -1.9291  -1.8508  -1.1420  -0.8807  -0.7150  -0.2871
    -0.2204  -0.1409  -0.1065  -0.0100   0.0158   0.0558   0.1306   0.1912
     0.2469   0.2953   0.3077   0.3506   0.4496   0.4837   0.4953   0.5493
     0.5751   0.5867   0.6991   0.7117   0.7559   0.7736   0.8367   0.8948
     0.9086   0.9186   1.1296

     the Fermi energy is    -1.4960 ev

!    total energy              =   -2246.29903854 Ry
     estimated scf accuracy    <       0.00000005 Ry
     smearing contrib. (-TS)   =      -0.00001297 Ry
     internal energy E=F+TS    =   -2246.29902557 Ry

     The total energy is F=E-TS. E is the sum of the following terms:
     one-electron contribution =  -18458.16359666 Ry
     hartree contribution      =    9216.86689827 Ry
     xc contribution           =    -392.07164807 Ry
     ewald contribution        =    7396.93541357 Ry
     one-center paw contrib.   =      -9.86609268 Ry

     convergence has been achieved in  12 iterations

     negative rho (up, down):  2.027E-04 0.000E+00

     Forces acting on atoms (cartesian axes, Ry/au):

     atom    1 type  1   force =    -0.00514734    0.00311214   -0.00759540
     atom    2 type  2   force =     0.00126061    0.00812352   -0.00027580
     atom    3 type  2   force =    -0.00542307    0.01100512   -0.01811091
     atom    4 type  1   force =     0.00340233    0.00375664    0.00479459
     atom    5 type  2   force =     0.00057113   -0.00530301   -0.00559370
     atom    6 type  2   force =     0.00105829    0.00202512    0.00401527
     atom    7 type  1   force =    -0.00697248   -0.01211724   -0.00360583
     atom    8 type  2   force =     0.00131180   -0.00507125    0.00781687
     atom    9 type  2   force =     0.01539683    0.00002805   -0.00507738
     atom   10 type  1   force =    -0.00170457    0.00169594    0.01665689
     atom   11 type  2   force =    -0.10559833   -0.04299423    0.02703031
     atom   12 type  2   force =     0.00578443    0.00504074   -0.00670219
     atom   13 type  1   force =     0.00345105    0.00074470    0.00148012
     atom   14 type  2   force =     0.00190982   -0.00326989   -0.00132797
     atom   15 type  2   force =    -0.00468457    0.01966047   -0.02081308
     atom   16 type  1   force =     0.00149867    0.00066822    0.00211074
     atom   17 type  2   force =     0.00451995    0.00189870    0.00180586
     atom   18 type  2   force =    -0.00189650    0.00045037    0.00594746
     atom   19 type  1   force =     0.00016345   -0.00336779    0.00051224
     atom   20 type  2   force =     0.00194714   -0.00245885   -0.00660231
     atom   21 type  1   force =    -0.01514374   -0.02123722    0.02332930
     atom   22 type  2   force =     0.00639261    0.00866302   -0.01891374
     atom   23 type  2   force =    -0.00320756   -0.00269059   -0.01094651
     atom   24 type  1   force =     0.00005735    0.00111249    0.00067751
     atom   25 type  2   force =     0.00292052    0.00764441   -0.00865472
     atom   26 type  2   force =    -0.00283814    0.00457479   -0.00714691
     atom   27 type  1   force =    -0.00029742    0.00236009    0.00480814
     atom   28 type  2   force =    -0.00032546   -0.00287728   -0.00306765
     atom   29 type  2   force =     0.00246486    0.00360058   -0.00482365
     atom   30 type  1   force =    -0.00006483   -0.00435074    0.00813469
     atom   31 type  2   force =    -0.00057999   -0.00020241    0.00482527
     atom   32 type  2   force =    -0.00575509    0.00309201    0.00473337
     atom   33 type  1   force =    -0.00835996    0.00349710    0.00431450
     atom   34 type  2   force =    -0.00038592   -0.00972126   -0.01625935
     atom   35 type  2   force =    -0.00531308    0.00522081   -0.00485109
     atom   36 type  3   force =     0.11958723    0.01768673    0.02737504
     The non-local contrib.  to forces
     atom    1 type  1   force =    -0.00354176    0.02548209   -0.01321220
     atom    2 type  2   force =     0.00087539   -0.00601716   -0.26204891
     atom    3 type  2   force =    -0.00356625   -0.00698606    0.26138592
     atom    4 type  1   force =     0.00264492    0.00553427    0.00221107
     atom    5 type  2   force =     0.00879150   -0.03549742   -0.26028891
     atom    6 type  2   force =    -0.00061626    0.00224774    0.26728118
     atom    7 type  1   force =    -0.00985781    0.02674948   -0.01699405
     atom    8 type  2   force =     0.00061305   -0.00074761   -0.26211904
     atom    9 type  2   force =     0.00785155   -0.01140570    0.26644750
     atom   10 type  1   force =     0.01624519    0.00903280   -0.01007965
     atom   11 type  2   force =    -0.32161005   -0.07555853    0.22427700
     atom   12 type  2   force =    -0.00896271   -0.01497735    0.26610546
[...]
     atom   28 type  2   force =    -0.00117373   -0.01437902   -0.27716224
     atom   29 type  2   force =     0.00028487   -0.00739536    0.26879616
     atom   30 type  1   force =     0.00076726    0.02042535    0.00448156
     atom   31 type  2   force =    -0.00733122    0.00337834   -0.26784905
     atom   32 type  2   force =     0.00569028   -0.01243817    0.27036722
     atom   33 type  1   force =    -0.00255351    0.00664797    0.00864269
     atom   34 type  2   force =     0.00161966   -0.00419285   -0.27944174
     atom   35 type  2   force =    -0.00127881   -0.01492979    0.26275902
     atom   36 type  3   force =     0.02269840    0.05169156   -2.31505232
     The ionic contribution  to forces
     atom    1 type  1   force =    -0.12701028    1.46371852    1.21593385
     atom    2 type  2   force =     0.29356707    1.08533401   38.33647523
     atom    3 type  2   force =     0.10379187    0.08753341  -38.24980343
     atom    4 type  1   force =     0.23912070   -0.27840760   -0.45047821
     atom    5 type  2   force =    -0.84652984    1.07800705   38.01855544
     atom    6 type  2   force =     0.24898595   -0.42420291  -38.58193906
     atom    7 type  1   force =    -2.79865300   -2.74855762   -2.09489285
     atom    8 type  2   force =    -0.53145589   -0.93582882   37.58481938
     atom    9 type  2   force =     0.51773718   -0.07419279  -38.82826325
     atom   10 type  1   force =     0.62259778    0.37306714   -1.12256063
     atom   11 type  2   force =    -0.43099755   -1.37565472   28.34903249
     atom   12 type  2   force =     0.21515053    0.34200226  -38.58166332
     atom   13 type  1   force =    -0.28248985    1.19408117    1.86502833
     atom   14 type  2   force =    -0.50825607    1.01381081   38.05230289
     atom   15 type  2   force =    -0.05038907    0.03209192  -38.22534558
     atom   16 type  1   force =    -0.39863520    2.87400175    0.09054804
     atom   17 type  2   force =     0.70190660    1.17218963   38.09203480
     atom   18 type  2   force =    -0.32017181   -0.39719153  -38.47267384
     atom   19 type  1   force =     2.09273535   -2.45354228    1.14938588
     atom   20 type  2   force =    -0.15554189   -0.06812224  -39.54923739
     atom   21 type  1   force =    -1.03068153    0.37017229   -2.68043807
     atom   22 type  2   force =    -0.59277344   -1.49526460   37.84992656
     atom   23 type  2   force =    -0.27294350    0.34022839  -38.58840298
     atom   24 type  1   force =     0.46317346    0.94282411    1.70801400
     atom   25 type  2   force =     0.16674958    0.39917644   38.64028142
     atom   26 type  2   force =    -0.08021337    0.02806777  -37.76691500
     atom   27 type  1   force =     0.15684924    0.08855260   -0.22729455
     atom   28 type  2   force =     0.13210215    0.49909743   38.01327306
     atom   29 type  2   force =     0.07739918   -0.14909228  -38.00567443
     atom   30 type  1   force =     0.63231238   -1.21303824    0.52937268
     atom   31 type  2   force =     1.15563550   -0.18771741   37.89635144
     atom   32 type  2   force =    -0.35801008   -0.08006920  -38.33065139
     atom   33 type  1   force =     0.45732053   -0.01660166    2.27295523
     atom   34 type  2   force =     1.00769724   -0.48712983   38.23142916
     atom   35 type  2   force =     0.09556004    0.14747874  -38.21700361
     atom   36 type  3   force =    -0.59563992   -1.14682172   50.07751771
     The local contribution  to forces
     atom    1 type  1   force =     0.13080562   -1.48485252   -1.20790796
     atom    2 type  2   force =    -0.29215944   -1.07447546  -38.08611860
     atom    3 type  2   force =    -0.10190026   -0.07831369   38.00700066
     atom    4 type  1   force =    -0.24607900    0.27435894    0.44822467
     atom    5 type  2   force =     0.84167981   -1.05423672  -37.78273913
     atom    6 type  2   force =    -0.24882579    0.42715243   38.33618044
     atom    7 type  1   force =     2.81511905    2.73197860    2.10223844
     atom    8 type  2   force =     0.52890190    0.92967029  -37.33477144
     atom    9 type  2   force =    -0.51022986    0.08793097   38.58118495
     atom   10 type  1   force =    -0.61335995   -0.37728674    1.10309269
     atom   11 type  2   force =     0.44479469    1.36933220  -28.63759012
     atom   12 type  2   force =    -0.20779512   -0.32755545   38.32785209
     atom   13 type  1   force =     0.28054025   -1.21866948   -1.85899189
     atom   14 type  2   force =     0.50872166   -1.00632386  -37.80072147
     atom   15 type  2   force =     0.04921319   -0.02377739   37.98361639
     atom   16 type  1   force =     0.40312137   -2.90132741   -0.05691844
     atom   17 type  2   force =    -0.69763449   -1.15026234  -37.85588277
     atom   18 type  2   force =     0.31993022    0.39833167   38.22830123
     atom   19 type  1   force =    -2.10720178    2.44791369   -1.12637974
     atom   20 type  2   force =     0.15348493    0.08153646   39.30744087
     atom   21 type  1   force =     1.02104999   -0.38111950    2.65649174
     atom   22 type  2   force =     0.59760534    1.48826094  -37.60630955
     atom   23 type  2   force =     0.26517687   -0.32407138   38.34541220
     atom   24 type  1   force =    -0.46401953   -0.96009300   -1.71077406
     atom   25 type  2   force =    -0.16730712   -0.38738879  -38.39076263
     atom   26 type  2   force =     0.07814337   -0.01579277   37.51820853
     atom   27 type  1   force =    -0.15166349   -0.09368729    0.22532223
     atom   28 type  2   force =    -0.13101088   -0.48632294  -37.75777815
     atom   29 type  2   force =    -0.07703709    0.15612752   37.75890997
     atom   30 type  1   force =    -0.63350402    1.19308078   -0.53319983
     atom   31 type  2   force =    -1.14816661    0.18389932  -37.64851480
     atom   32 type  2   force =     0.35204078    0.09161930   38.08070002
     atom   33 type  1   force =    -0.45499755    0.00973532   -2.28191492
     atom   34 type  2   force =    -1.00980975    0.49191784  -37.97432612
     atom   35 type  2   force =    -0.09549081   -0.13380798   37.97516735
     atom   36 type  3   force =     0.57321791    1.09720877  -47.78758284
     The core correction contribution to forces
     atom    1 type  1   force =     0.00000000    0.00000000    0.00000000
     atom    2 type  2   force =    -0.00004312    0.00050134    0.02128107
     atom    3 type  2   force =     0.00013921    0.00048969   -0.02082571
     atom    4 type  1   force =     0.00000000    0.00000000    0.00000000
     atom    5 type  2   force =    -0.00048243    0.00117052    0.02052809
     atom    6 type  2   force =     0.00026318   -0.00036673   -0.02092064
     atom    7 type  1   force =     0.00000000    0.00000000    0.00000000
     atom    8 type  2   force =    -0.00016859    0.00000186    0.02132732
     atom    9 type  2   force =     0.00085011    0.00072716   -0.02100467
     atom   10 type  1   force =     0.00000000    0.00000000    0.00000000
     atom   11 type  2   force =     0.00093772   -0.00053920   -0.00989898
     atom   12 type  2   force =     0.00065012    0.00104222   -0.02125102
     atom   13 type  1   force =     0.00000000    0.00000000    0.00000000
     atom   14 type  2   force =     0.00004348    0.00008623    0.02129108
     atom   15 type  2   force =    -0.00007207    0.00045309   -0.02066438
     atom   16 type  1   force =     0.00000000    0.00000000    0.00000000
     atom   17 type  2   force =     0.00043375    0.00111622    0.02051883
     atom   18 type  2   force =    -0.00020365   -0.00044235   -0.02085862
     atom   19 type  1   force =     0.00000000    0.00000000    0.00000000
     atom   20 type  2   force =    -0.00026517    0.00067266   -0.02122184
     atom   21 type  1   force =     0.00000000    0.00000000    0.00000000
     atom   22 type  2   force =     0.00014025   -0.00064113    0.02109177
     atom   23 type  2   force =    -0.00063823    0.00109093   -0.02082651
     atom   24 type  1   force =     0.00000000    0.00000000    0.00000000
     atom   25 type  2   force =    -0.00002242    0.00051479    0.02101604
     atom   26 type  2   force =    -0.00015306    0.00049280   -0.02093926
     atom   27 type  1   force =     0.00000000    0.00000000    0.00000000
     atom   28 type  2   force =     0.00004541    0.00093626    0.02129853
     atom   29 type  2   force =    -0.00002763    0.00016047   -0.02086897
     atom   30 type  1   force =     0.00000000    0.00000000    0.00000000
     atom   31 type  2   force =     0.00037927    0.00011915    0.02099034
     atom   32 type  2   force =    -0.00059050    0.00070088   -0.02100576
     atom   33 type  1   force =     0.00000000    0.00000000    0.00000000
     atom   34 type  2   force =    -0.00013335    0.00008284    0.02166035
     atom   35 type  2   force =     0.00011934    0.00081142   -0.02079401
     atom   36 type  3   force =    -0.00023059   -0.00058796    0.02454632
     The Hubbard contrib.    to forces
     atom    1 type  1   force =     0.00000000    0.00000000    0.00000000
     atom    2 type  2   force =     0.00000000    0.00000000    0.00000000
     atom    3 type  2   force =     0.00000000    0.00000000    0.00000000
     atom    4 type  1   force =     0.00000000    0.00000000    0.00000000
     atom    5 type  2   force =     0.00000000    0.00000000    0.00000000
     atom    6 type  2   force =     0.00000000    0.00000000    0.00000000
     atom    7 type  1   force =     0.00000000    0.00000000    0.00000000
     atom    8 type  2   force =     0.00000000    0.00000000    0.00000000
     atom    9 type  2   force =     0.00000000    0.00000000    0.00000000
     atom   10 type  1   force =     0.00000000    0.00000000    0.00000000
     atom   11 type  2   force =     0.00000000    0.00000000    0.00000000
     atom   12 type  2   force =     0.00000000    0.00000000    0.00000000
     atom   13 type  1   force =     0.00000000    0.00000000    0.00000000
     atom   14 type  2   force =     0.00000000    0.00000000    0.00000000
     atom   15 type  2   force =     0.00000000    0.00000000    0.00000000
     atom   16 type  1   force =     0.00000000    0.00000000    0.00000000
     atom   17 type  2   force =     0.00000000    0.00000000    0.00000000
     atom   18 type  2   force =     0.00000000    0.00000000    0.00000000
     atom   19 type  1   force =     0.00000000    0.00000000    0.00000000
     atom   20 type  2   force =     0.00000000    0.00000000    0.00000000
     atom   21 type  1   force =     0.00000000    0.00000000    0.00000000
     atom   22 type  2   force =     0.00000000    0.00000000    0.00000000
     atom   23 type  2   force =     0.00000000    0.00000000    0.00000000
     atom   24 type  1   force =     0.00000000    0.00000000    0.00000000
     atom   25 type  2   force =     0.00000000    0.00000000    0.00000000
     atom   26 type  2   force =     0.00000000    0.00000000    0.00000000
     atom   27 type  1   force =     0.00000000    0.00000000    0.00000000
     atom   28 type  2   force =     0.00000000    0.00000000    0.00000000
     atom   29 type  2   force =     0.00000000    0.00000000    0.00000000
     atom   30 type  1   force =     0.00000000    0.00000000    0.00000000
     atom   31 type  2   force =     0.00000000    0.00000000    0.00000000
     atom   32 type  2   force =     0.00000000    0.00000000    0.00000000
     atom   33 type  1   force =     0.00000000    0.00000000    0.00000000
     atom   34 type  2   force =     0.00000000    0.00000000    0.00000000
     atom   35 type  2   force =     0.00000000    0.00000000    0.00000000
     atom   36 type  3   force =     0.00000000    0.00000000    0.00000000
     The SCF correction term to forces
     atom    1 type  1   force =    -0.00000587   -0.00000765    0.00003351
     atom    2 type  2   force =    -0.00000441   -0.00000783    0.00002024
     atom    3 type  2   force =    -0.00000472   -0.00000434    0.00000771
     atom    4 type  1   force =    -0.00001901    0.00003098    0.00003461
     atom    5 type  2   force =     0.00000019    0.00000880    0.00002274
     atom    6 type  2   force =     0.00000028    0.00000492    0.00000516
     atom    7 type  1   force =     0.00000532   -0.00000767    0.00003328
     atom    8 type  2   force =    -0.00000702    0.00000988    0.00001841
     atom    9 type  2   force =    -0.00000755    0.00000805    0.00001559
     atom   10 type  1   force =    -0.00001007   -0.00002487    0.00002864
     atom   11 type  2   force =    -0.00000666   -0.00001533    0.00002735
     atom   12 type  2   force =    -0.00000024   -0.00000893    0.00001269
     atom   13 type  1   force =     0.00001688   -0.00000274    0.00004001
     atom   14 type  2   force =     0.00000070   -0.00000549    0.00002050
     atom   15 type  2   force =     0.00000259   -0.00000358    0.00000959
     atom   16 type  1   force =     0.00000632    0.00001760    0.00004020
     atom   17 type  2   force =     0.00000423    0.00000402    0.00002395
     atom   18 type  2   force =     0.00000332    0.00000347    0.00000369
     atom   19 type  1   force =     0.00000861    0.00000614    0.00004536
     atom   20 type  2   force =     0.00001236    0.00000931    0.00001016
     atom   21 type  1   force =     0.00000276   -0.00001599    0.00003366
     atom   22 type  2   force =     0.00000508   -0.00000799    0.00002523
     atom   23 type  2   force =     0.00000501   -0.00000137    0.00001026
     atom   24 type  1   force =    -0.00000435   -0.00000637    0.00003345
     atom   25 type  2   force =     0.00000023   -0.00000580    0.00002332
     atom   26 type  2   force =     0.00000045   -0.00000506    0.00000339
     atom   27 type  1   force =    -0.00000878    0.00002611    0.00004012
     atom   28 type  2   force =     0.00000083    0.00000761    0.00002007
     atom   29 type  2   force =     0.00000131    0.00000705    0.00000477
     atom   30 type  1   force =    -0.00000985   -0.00000238    0.00003837
     atom   31 type  2   force =     0.00000193    0.00000687    0.00002122
     atom   32 type  2   force =    -0.00000279    0.00000210    0.00001032
     atom   33 type  1   force =     0.00000789   -0.00002463    0.00003709
     atom   34 type  2   force =    -0.00000481   -0.00000709    0.00002012
     atom   35 type  2   force =    -0.00000328   -0.00000652    0.00001002
     atom   36 type  3   force =    -0.00000645   -0.00000933    0.00002851

     Total force =     0.005985     Total SCF correction =     0.000174
     Energy error            =      7.7E-05 Ry
     Gradient error          =      1.5E-03 Ry/Bohr

     bfgs converged in  24 scf cycles and  23 bfgs steps
     (criteria: energy <  1.0E-04 Ry, force <  1.0E-02 Ry/Bohr)

     End of BFGS Geometry Optimization

     Final energy             =   -2246.4457322923 Ry

     File ./MoS2-V-O.bfgs deleted, as requested
Begin final coordinates

ATOMIC_POSITIONS (angstrom)
Mo            6.5267127469        1.7448947200        2.7531896220
S             8.1004280961        0.8451436946        4.3694265195
S             8.1130248159        0.8539137075        1.1606399701
Mo            8.0836952549        4.4899885032        2.7049741924
S             6.4795265711        3.6576585226        4.2969583835
S             6.5204315581        3.5483903803        1.0970056806
Mo            6.4807391545        7.1395216380        2.6339464126
S             8.0261801320        6.2958160873        4.3022979547
S             8.1162586544        6.3053468421        1.0881880984
Mo            8.1314332328        9.9467702180        2.7506210542
S             6.5145621059        8.9398642364        4.2227937931
S             6.5589522582        9.0286339006        1.1290577790
Mo            3.3918983627        1.7456697696        2.7575680188
S             4.9587582688        0.8026400886        4.3480773761
S             4.9530634235        0.8434966198        1.1563098360
Mo            4.9590252468        4.5210049707        2.6355112097
S             3.4350006993        3.6605717187        4.2982849884
S             3.3911835362        3.5436722318        1.1015803234
Mo            3.4388372119        7.1693062367        2.6614118308
S             4.9398656806        6.2934052514        1.0145880619
Mo            4.9460820003        9.9115722121        2.7149799091
S             3.4494290164        8.9293611782        4.3257179487
S             3.3552182647        9.0110089722        1.1190685332
Mo            0.2297899084        1.7403962941        2.7671088109
S             1.8205837647        0.8392463660        4.3703874824
S             1.8120231462        0.8255840549        1.1825237788
Mo            1.8300710555        4.4851785420        2.7055908611
S             0.2284991647        3.6079736045        4.3136751905
S             0.2296363588        3.5508170489        1.1427625087
Mo            0.2223829288        7.2046627035        2.7319187469
S             1.8655446458        6.2978403072        4.2920550111
S             1.8130764082        6.3149685988        1.1092846214
Mo            1.8238324366        9.9149023665        2.7738428860
S             0.2297720436        9.0121059404        4.3591138298
S             0.2515179343        9.0383997865        1.1629323292
O             6.4990664800        8.9214746523        5.7216939966
End final coordinates



     Writing all to output data dir ./MoS2-V-O.save/
 
     init_run     :      4.63s CPU      5.16s WALL (       1 calls)
     electrons    :   2343.44s CPU   2647.86s WALL (      24 calls)
     update_pot   :     73.07s CPU     77.64s WALL (      23 calls)
     forces       :     65.86s CPU     74.81s WALL (      24 calls)

     Called by init_run:
     wfcinit      :      0.48s CPU      0.53s WALL (       1 calls)
     potinit      :      2.41s CPU      2.67s WALL (       1 calls)
     hinit0       :      0.43s CPU      0.47s WALL (       1 calls)

     Called by electrons:
     c_bands      :    344.66s CPU    352.83s WALL (     241 calls)
     sum_band     :    135.75s CPU    174.57s WALL (     241 calls)
     v_of_rho     :    225.45s CPU    273.87s WALL (     257 calls)
     newd         :     79.28s CPU    116.27s WALL (     257 calls)
     PAW_pot      :     10.19s CPU     10.23s WALL (     280 calls)
     mix_rho      :   1571.76s CPU   1746.03s WALL (     241 calls)

     Called by c_bands:
     init_us_2    :      5.51s CPU      5.95s WALL (     506 calls)
     init_us_2:cp :      5.51s CPU      5.95s WALL (     506 calls)
     regterg      :    326.50s CPU    334.20s WALL (     241 calls)

     Called by *egterg:
     rdiaghg      :     22.44s CPU     22.65s WALL (    1290 calls)
     h_psi        :    211.42s CPU    213.20s WALL (    1322 calls)
     s_psi        :     20.31s CPU     20.39s WALL (    1322 calls)
     g_psi        :      1.02s CPU      1.03s WALL (    1080 calls)

     Called by h_psi:
     h_psi:calbec :     23.26s CPU     23.38s WALL (    1322 calls)
     vloc_psi     :    165.28s CPU    166.80s WALL (    1322 calls)
     add_vuspsi   :     20.26s CPU     20.37s WALL (    1322 calls)

     General routines
     calbec       :     33.63s CPU     33.80s WALL (    1682 calls)
     fft          :    155.84s CPU    180.41s WALL (   17076 calls)
     ffts         :    703.05s CPU    870.78s WALL (  385285 calls)
     fftw         :    106.25s CPU    107.11s WALL (  146338 calls)
     interpolate  :      3.17s CPU      3.65s WALL (     257 calls)
 
     Parallel routines
 
     PWSCF        :  41m37.40s CPU  47m 0.61s WALL

 
   This run was terminated on:  21:39:54   1Nov2023            

=------------------------------------------------------------------------------=
   JOB DONE.
=------------------------------------------------------------------------------=
