
     Program PWSCF v.7.2 starts on  1Nov2023 at 21: 9:26 

     This program is part of the open-source Quantum ESPRESSO suite
     for quantum simulation of materials; please cite
         "P. Giannozzi et al., J. Phys.:Condens. Matter 21 395502 (2009);
         "P. Giannozzi et al., J. Phys.:Condens. Matter 29 465901 (2017);
         "P. Giannozzi et al., J. Chem. Phys. 152 154105 (2020);
          URL http://www.quantum-espresso.org", 
     in publications or presentations arising from this work. More details at
     http://www.quantum-espresso.org/quote

     Parallel version (MPI & OpenMP), running on      48 processor cores
     Number of MPI processes:                48
     Threads/MPI process:                     1

     MPI processes distributed on     1 nodes
     44374 MiB available memory on the printing compute node when the environment starts
 
     Waiting for input...
     Reading input from standard input
Warning: card &CELL ignored
Warning: card CELL_DYNAMICS = 'BFGS', ignored
Warning: card CELL_DOFREE = '2DXY' ignored
Warning: card / ignored

     Current dimensions of program PWSCF are:
     Max number of different atomic species (ntypx) = 10
     Max number of k-points (npk) =  40000
     Max angular momentum in pseudopotentials (lmaxx) =  4
     file O.pbe-n-kjpaw_psl.0.1.UPF: wavefunction(s)  2P renormalized

     IMPORTANT: XC functional enforced from input :
     Exchange-correlation= RVV10
                           (   1   4  13   4  26   0   0)
     Any further DFT definition will be discarded
     Please, verify this is what you really want


     gamma-point specific algorithms are used
     signal trapping enabled: kill the code with -SIGUSR1 to stop cleanly the simulation 
 
     R & G space division:  proc/nbgrp/npool/nimage =      48
     Subspace diagonalization in iterative solution of the eigenvalue problem:
     one sub-group per band group will be used
     scalapack distributed-memory algorithm (size of sub-group:  2*  2 procs)

 
     Parallelization info
     --------------------
     sticks:   dense  smooth     PW     G-vecs:    dense   smooth      PW
     Min         396     194     47               101632    35090    4376
     Max         398     196     50               101674    35128    4410
     Sum       19091    9389   2349              4879585  1685513  210763
 
     Using Slab Decomposition
 


     bravais-lattice index     =            0
     lattice parameter (alat)  =      17.8707  a.u.
     unit-cell volume          =   17436.2743 (a.u.)^3
     number of atoms/cell      =           36
     number of atomic types    =            3
     number of electrons       =       312.00
     number of Kohn-Sham states=          187
     kinetic-energy cutoff     =      80.0000  Ry
     charge density cutoff     =     650.0000  Ry
     scf convergence threshold =      1.0E-06
     mixing beta               =       0.7000
     number of iterations used =            8  local-TF  mixing
     energy convergence thresh.=      1.0E-04
     force convergence thresh. =      1.0E-02
     Exchange-correlation= RVV10
                           (   1   4  13   4  26   0   0)
     nstep                     =          200


     celldm(1)=  17.870686  celldm(2)=   0.000000  celldm(3)=   0.000000
     celldm(4)=   0.000000  celldm(5)=   0.000000  celldm(6)=   0.000000

     crystal axes: (cart. coord. in units of alat)
               a(1) = (   1.000000   0.000000   0.000000 )  
               a(2) = (   0.000000   1.155671   0.000000 )  
               a(3) = (   0.000000   0.000000   2.643601 )  

     reciprocal axes: (cart. coord. in units 2 pi/alat)
               b(1) = (  1.000000  0.000000  0.000000 )  
               b(2) = (  0.000000  0.865298  0.000000 )  
               b(3) = (  0.000000  0.000000  0.378272 )  


     PseudoPot. # 1 for Mo read from file:
     ../pseudo/Mo_ONCV_PBE-1.0.oncvpsp.upf
     MD5 check sum: 1b5d28e075c9ccadda658a603575cd1f
     Pseudo is Norm-conserving, Zval = 14.0
     Generated using ONCVPSP code by D. R. Hamann
     Using radial grid of 1526 points,  6 beta functions with: 
                l(1) =   0
                l(2) =   0
                l(3) =   1
                l(4) =   1
                l(5) =   2
                l(6) =   2

     PseudoPot. # 2 for S  read from file:
     ../pseudo/s_pbe_v1.4.uspp.F.UPF
     MD5 check sum: 88d86576ff6df21479756cfb9bdac1df
     Pseudo is Ultrasoft + core correction, Zval =  6.0
     Generated by new atomic code, or converted to UPF format
     Using radial grid of  907 points,  6 beta functions with: 
                l(1) =   0
                l(2) =   0
                l(3) =   1
                l(4) =   1
                l(5) =   2
                l(6) =   2
     Q(r) pseudized with  8 coefficients,  rinner =    1.300   1.300   1.300
                                                       1.300   1.300

     PseudoPot. # 3 for O  read from file:
     ../pseudo/O.pbe-n-kjpaw_psl.0.1.UPF
     MD5 check sum: 0234752ac141de4415c5fc33072bef88
     Pseudo is Projector augmented-wave + core cor, Zval =  6.0
     Generated using "atomic" code by A. Dal Corso  v.5.0.99 svn rev. 10869
     Shape of augmentation charge: BESSEL
     Using radial grid of 1095 points,  4 beta functions with: 
                l(1) =   0
                l(2) =   0
                l(3) =   1
                l(4) =   1
     Q(r) pseudized with 0 coefficients 


     atomic species   valence    mass     pseudopotential
        Mo            14.00    95.94000     Mo( 1.00)
        S              6.00    32.06500     S ( 1.00)
        O              6.00    15.99940     O ( 1.00)

     No symmetry found



   Cartesian axes

     site n.     atom                  positions (alat units)
         1           Mo  tau(   1) = (   0.6952221   0.1890506   0.2985846  )
         2           S   tau(   2) = (   0.8646417   0.0856217   0.4689279  )
         3           S   tau(   3) = (   0.8663890   0.0857843   0.1351291  )
         4           Mo  tau(   4) = (   0.8560186   0.4753274   0.2873942  )
         5           S   tau(   5) = (   0.6873294   0.3936244   0.4596353  )
         6           S   tau(   6) = (   0.6929804   0.3713468   0.1185692  )
         7           Mo  tau(   7) = (   0.6862796   0.7633098   0.2825370  )
         8           S   tau(   8) = (   0.8545980   0.6708292   0.4486168  )
         9           S   tau(   9) = (   0.8545123   0.6666874   0.1146125  )
        10           Mo  tau(  10) = (   0.8629403   1.0471007   0.3006803  )
        11           S   tau(  11) = (   0.6868280   0.9456650   0.4634891  )
        12           S   tau(  12) = (   0.6998113   0.9568511   0.1205389  )
        13           Mo  tau(  13) = (   0.3618216   0.1847309   0.2935964  )
        14           S   tau(  14) = (   0.5260962   0.0863870   0.4600448  )
        15           S   tau(  15) = (   0.5348379   0.0894875   0.1297123  )
        16           Mo  tau(  16) = (   0.5265817   0.4772436   0.2784130  )
        17           S   tau(  17) = (   0.3624753   0.3882513   0.4525556  )
        18           S   tau(  18) = (   0.3635411   0.3752055   0.1119148  )
        19           Mo  tau(  19) = (   0.3652268   0.7630864   0.2781795  )
        20           S   tau(  20) = (   0.5269494   0.6690381   0.1096838  )
        21           Mo  tau(  21) = (   0.5300192   1.0470394   0.2900995  )
        22           S   tau(  22) = (   0.3670346   0.9457522   0.4574073  )
        23           S   tau(  23) = (   0.3604225   0.9585725   0.1159032  )
        24           Mo  tau(  24) = (   0.0313099   0.1847895   0.3013130  )
        25           S   tau(  25) = (   0.1956761   0.0838230   0.4650863  )
        26           S   tau(  26) = (   0.1967693   0.0903508   0.1278874  )
        27           Mo  tau(  27) = (   0.1967578   0.4753919   0.2813011  )
        28           S   tau(  28) = (   0.0287851   0.3864324   0.4586755  )
        29           S   tau(  29) = (   0.0244514   0.3729871   0.1239344  )
        30           Mo  tau(  30) = (   0.0286728   0.7631204   0.2856894  )
        31           S   tau(  31) = (   0.2011512   0.6675435   0.4465001  )
        32           S   tau(  32) = (   0.1969214   0.6672839   0.1104564  )
        33           Mo  tau(  33) = (   0.1950294   1.0511147   0.2932237  )
        34           S   tau(  34) = (   0.0312912   0.9612169   0.4667423  )
        35           S   tau(  35) = (   0.0292670   0.9563028   0.1216485  )
        36           O   tau(  36) = (   1.0000000   0.8988550   0.5656742  )

     number of k points=     1  Gaussian smearing, width (Ry)=  0.0100
                       cart. coord. in units 2pi/alat
        k(    1) = (   0.0000000   0.0000000   0.0000000), wk =   2.0000000

     Dense  grid:  2439793 G-vectors     FFT dimensions: ( 150, 180, 384)

     Smooth grid:   842757 G-vectors     FFT dimensions: ( 108, 120, 270)

     Estimated max dynamical RAM per process >     269.22 MB

     Estimated total dynamical RAM >      12.62 GB

     Initial potential from superposition of free atoms

     starting charge     311.9873, renormalised to     312.0000

     negative rho (up, down):  2.749E-04 0.000E+00


---------------------------------------------------------------------------------
Carrying out rVV10 run using the following parameters:
Nqs =      20    Nr_points =    1024   r_max =   100.000
b_value =  6.30000    beta =  0.00901
     q_mesh =  0.00010000  0.00030000  0.00058939  0.00100810
               0.00161396  0.00249058  0.00375900  0.00559430
               0.00824984  0.01209221  0.01765183  0.02569619
               0.03733578  0.05417739  0.07854596  0.11380545
               0.16482331  0.23864234  0.34545298  0.50000000

Gradients computed in Reciprocal space

---------------------------------------------------------------------------------


     Starting wfcs are  216 randomized atomic wfcs
     Checking if some PAW data can be deallocated... 

     total cpu time spent up to now is        5.4 secs

     Self-consistent Calculation

     iteration #  1     ecut=    80.00 Ry     beta= 0.70
     Davidson diagonalization with overlap
     ethr =  1.00E-02,  avg # of iterations =  2.0

     Threshold (ethr) on eigenvalues was too large:
     Diagonalizing with lowered threshold

     Davidson diagonalization with overlap
     ethr =  5.17E-04,  avg # of iterations =  3.0

     negative rho (up, down):  4.691E-08 0.000E+00

     total cpu time spent up to now is       23.4 secs

     total energy              =   -2245.82145641 Ry
     estimated scf accuracy    <       1.86269176 Ry

     iteration #  2     ecut=    80.00 Ry     beta= 0.70
     Davidson diagonalization with overlap
     ethr =  5.97E-04,  avg # of iterations =  4.0

     total cpu time spent up to now is       28.5 secs

     total energy              =   -2245.81549220 Ry
     estimated scf accuracy    <       0.58832859 Ry

     iteration #  3     ecut=    80.00 Ry     beta= 0.70
     Davidson diagonalization with overlap
     ethr =  1.89E-04,  avg # of iterations =  2.0

     total cpu time spent up to now is       32.8 secs

     total energy              =   -2245.83651331 Ry
     estimated scf accuracy    <       0.11078466 Ry

     iteration #  4     ecut=    80.00 Ry     beta= 0.70
     Davidson diagonalization with overlap
     ethr =  3.55E-05,  avg # of iterations = 19.0

     total cpu time spent up to now is       38.7 secs

     total energy              =   -2245.85296597 Ry
     estimated scf accuracy    <       0.02386496 Ry

     iteration #  5     ecut=    80.00 Ry     beta= 0.70
     Davidson diagonalization with overlap
     ethr =  7.65E-06,  avg # of iterations =  2.0

     total cpu time spent up to now is       42.8 secs

     total energy              =   -2245.85257881 Ry
     estimated scf accuracy    <       0.01526260 Ry

     iteration #  6     ecut=    80.00 Ry     beta= 0.70
     Davidson diagonalization with overlap
     ethr =  4.89E-06,  avg # of iterations =  1.0

     total cpu time spent up to now is       46.8 secs

     total energy              =   -2245.85115079 Ry
     estimated scf accuracy    <       0.01018296 Ry

     iteration #  7     ecut=    80.00 Ry     beta= 0.70
     Davidson diagonalization with overlap
     ethr =  3.26E-06,  avg # of iterations =  8.0

     negative rho (up, down):  2.196E-05 0.000E+00

     total cpu time spent up to now is       54.0 secs

     total energy              =   -2245.85040872 Ry
     estimated scf accuracy    <       0.00550626 Ry

     iteration #  8     ecut=    80.00 Ry     beta= 0.70
     Davidson diagonalization with overlap
     ethr =  1.76E-06,  avg # of iterations =  2.0

     negative rho (up, down):  2.042E-02 0.000E+00

     total cpu time spent up to now is       60.2 secs

     total energy              =   -2245.84968212 Ry
     estimated scf accuracy    <       0.00336666 Ry

     iteration #  9     ecut=    80.00 Ry     beta= 0.70
     Davidson diagonalization with overlap
     ethr =  1.08E-06,  avg # of iterations =  2.0

     negative rho (up, down):  3.068E-02 0.000E+00

     total cpu time spent up to now is       67.1 secs

     total energy              =   -2245.84959726 Ry
     estimated scf accuracy    <       0.00165635 Ry

     iteration # 10     ecut=    80.00 Ry     beta= 0.70
     Davidson diagonalization with overlap
     ethr =  5.31E-07,  avg # of iterations =  2.0

     negative rho (up, down):  2.220E-02 0.000E+00

     total cpu time spent up to now is       75.6 secs

     total energy              =   -2245.84959638 Ry
     estimated scf accuracy    <       0.00057802 Ry

     iteration # 11     ecut=    80.00 Ry     beta= 0.70
     Davidson diagonalization with overlap
     ethr =  1.85E-07,  avg # of iterations =  2.0

     negative rho (up, down):  8.621E-03 0.000E+00

     total cpu time spent up to now is       83.6 secs

     total energy              =   -2245.84960265 Ry
     estimated scf accuracy    <       0.00007396 Ry

     iteration # 12     ecut=    80.00 Ry     beta= 0.70
     Davidson diagonalization with overlap
     ethr =  2.37E-08,  avg # of iterations =  6.0

     negative rho (up, down):  3.342E-03 0.000E+00

     total cpu time spent up to now is       92.4 secs

     total energy              =   -2245.84965074 Ry
     estimated scf accuracy    <       0.00001366 Ry

     iteration # 13     ecut=    80.00 Ry     beta= 0.70
     Davidson diagonalization with overlap
     ethr =  4.38E-09,  avg # of iterations =  2.0

     negative rho (up, down):  2.836E-04 0.000E+00

     total cpu time spent up to now is      101.9 secs

     total energy              =   -2245.84965480 Ry
     estimated scf accuracy    <       0.00000376 Ry

     iteration # 14     ecut=    80.00 Ry     beta= 0.70
     Davidson diagonalization with overlap
     ethr =  1.21E-09,  avg # of iterations =  2.0

     negative rho (up, down):  2.575E-04 0.000E+00

     total cpu time spent up to now is      106.1 secs

     End of self-consistent calculation

          k = 0.0000 0.0000 0.0000 (105382 PWs)   bands (ev):

   -62.9286 -62.8963 -62.8678 -62.8455 -62.8379 -62.8330 -62.8240 -62.7965
   -62.7798 -62.7537 -62.6914 -62.4520 -37.2395 -37.1991 -37.1572 -37.1546
   -37.1273 -37.1183 -37.1142 -37.1036 -37.0804 -37.0608 -37.0505 -37.0458
   -37.0288 -37.0214 -37.0158 -37.0111 -36.9959 -36.9898 -36.9756 -36.9565
   -36.9521 -36.9428 -36.9293 -36.9221 -36.9159 -36.9065 -36.9017 -36.8663
   -36.8459 -36.8251 -36.8048 -36.7570 -36.7450 -36.6881 -36.5597 -36.5532
   -28.5726 -15.9262 -15.1531 -15.0941 -14.9543 -14.8602 -14.7643 -14.4770
   -14.4667 -14.4411 -14.3865 -14.3313 -14.3233 -14.2623 -14.2359 -14.1225
   -14.1007 -14.0842 -14.0047 -13.9876 -13.8147 -13.7939 -13.7716 -13.0947
   -10.7438 -10.6459  -8.7068  -7.5634  -7.4389  -7.2411  -7.1988  -7.1767
    -7.1316  -7.1096  -7.0779  -6.7956  -6.7608  -6.7110  -6.6683  -6.5914
    -6.4719  -6.4134  -6.2965  -6.2432  -6.2321  -6.1109  -5.9023  -5.8500
    -5.8365  -5.8043  -5.7879  -5.7201  -5.6495  -5.6217  -5.5727  -5.5241
    -5.5158  -5.4307  -5.4205  -5.3848  -5.2878  -5.2632  -5.1174  -5.0423
    -4.9754  -4.9090  -4.8687  -4.8119  -4.6621  -4.5925  -4.5194  -4.4273
    -4.2959  -4.2642  -4.1652  -4.1263  -4.0255  -4.0174  -3.8102  -3.7878
    -3.7417  -3.6860  -3.6242  -3.6009  -3.5601  -3.4840  -3.4543  -3.4431
    -3.3818  -3.3600  -3.3374  -3.2725  -3.0310  -2.9863  -2.9146  -2.8507
    -2.7749  -2.7099  -2.6963  -2.6760  -2.6179  -2.5919  -2.5249  -2.2886
    -2.2318  -2.0335  -1.9327  -1.6318  -0.8016  -0.7235  -0.4336  -0.1583
    -0.0994  -0.0417  -0.0020   0.1215   0.1373   0.2153   0.2813   0.2961
     0.3207   0.4345   0.4887   0.5245   0.5580   0.5889   0.6142   0.6609
     0.7196   0.7710   0.7798   0.8222   0.8844   0.9286   0.9473   1.0069
     1.0209   1.0737   1.1949

     the Fermi energy is    -1.2169 ev

!    total energy              =   -2245.84965523 Ry
     estimated scf accuracy    <       0.00000064 Ry
     smearing contrib. (-TS)   =      -0.00000103 Ry
     internal energy E=F+TS    =   -2245.84965419 Ry

     The total energy is F=E-TS. E is the sum of the following terms:
     one-electron contribution =  -18470.03807516 Ry
     hartree contribution      =    9223.40355544 Ry
     xc contribution           =    -392.77034462 Ry
     ewald contribution        =    7403.38405141 Ry
     one-center paw contrib.   =      -9.82884126 Ry

     convergence has been achieved in  14 iterations

     negative rho (up, down):  2.575E-04 0.000E+00

     Forces acting on atoms (cartesian axes, Ry/au):

     atom    1 type  1   force =     0.01343449   -0.02658754    0.00359426
     atom    2 type  2   force =    -0.01363083    0.02105330    0.00396198
     atom    3 type  2   force =    -0.00990861    0.01495400   -0.00378667
     atom    4 type  1   force =     0.00412814    0.00479234   -0.00216931
     atom    5 type  2   force =    -0.00140582   -0.00508266   -0.00637661
     atom    6 type  2   force =     0.00088867    0.01124926   -0.00014798
     atom    7 type  1   force =     0.00651159   -0.01404649   -0.00880611
     atom    8 type  2   force =    -0.00057201   -0.00830989    0.01850294
     atom    9 type  2   force =     0.00744758    0.00629580    0.01280662
     atom   10 type  1   force =    -0.01049505    0.00981515   -0.02085779
     atom   11 type  2   force =     0.00630368   -0.00072313   -0.00965273
     atom   12 type  2   force =    -0.00227163   -0.00257209    0.00388951
     atom   13 type  1   force =     0.00503887    0.00419326   -0.00696069
     atom   14 type  2   force =     0.00802726    0.00018505    0.01280125
     atom   15 type  2   force =    -0.01220128    0.00378243   -0.00828795
     atom   16 type  1   force =    -0.00034436    0.01009296    0.00485948
     atom   17 type  2   force =     0.00606643    0.00105226    0.00146209
     atom   18 type  2   force =    -0.00344233   -0.00590523    0.01330087
     atom   19 type  1   force =     0.00278785   -0.01132640   -0.00808651
     atom   20 type  2   force =     0.00235593   -0.00467904    0.00029198
     atom   21 type  1   force =    -0.00468859    0.00516351    0.00596340
     atom   22 type  2   force =    -0.00085056   -0.00157686   -0.00619100
     atom   23 type  2   force =    -0.00252438   -0.00057542    0.00529902
     atom   24 type  1   force =    -0.01200511   -0.00241048   -0.01804708
     atom   25 type  2   force =     0.01776402    0.02783574    0.00822664
     atom   26 type  2   force =    -0.01227883    0.00167821   -0.00733497
     atom   27 type  1   force =     0.00164362    0.00077997    0.00530395
     atom   28 type  2   force =     0.00107677   -0.00144494   -0.00476839
     atom   29 type  2   force =     0.00292408   -0.00113724   -0.00153822
     atom   30 type  1   force =     0.00755215   -0.00103854   -0.07417945
     atom   31 type  2   force =    -0.00125026    0.00274319    0.02308099
     atom   32 type  2   force =    -0.00459749    0.00610139    0.00890563
     atom   33 type  1   force =     0.02870161   -0.01472532    0.02925193
     atom   34 type  2   force =     0.47481030    0.98476295   -1.83616379
     atom   35 type  2   force =    -0.00780515    0.00622869    0.01511010
     atom   36 type  3   force =    -0.49719073   -1.02061819    1.84674262
     The non-local contrib.  to forces
     atom    1 type  1   force =    -0.00408395    0.03182105   -0.01073441
     atom    2 type  2   force =    -0.00706655   -0.01417788   -0.26690517
     atom    3 type  2   force =    -0.01259734    0.00440005    0.26706363
     atom    4 type  1   force =    -0.00117011    0.00691380    0.00255641
     atom    5 type  2   force =     0.00494062   -0.03417430   -0.25113370
     atom    6 type  2   force =    -0.00116294    0.01036936    0.26412442
     atom    7 type  1   force =    -0.01218030    0.00553473   -0.01880048
     atom    8 type  2   force =    -0.01305169   -0.01705835   -0.25310713
     atom    9 type  2   force =    -0.00283195   -0.00888952    0.27660192
     atom   10 type  1   force =     0.04526040   -0.01281475    0.02526751
     atom   11 type  2   force =     0.00964342    0.01164674   -0.25956771
     atom   12 type  2   force =    -0.01614587   -0.01856512    0.25873464
     atom   13 type  1   force =     0.00311976    0.02254160   -0.00816661
     atom   14 type  2   force =     0.01143866   -0.01178884   -0.26341874
     atom   15 type  2   force =    -0.01361148   -0.00619987    0.26205809
     atom   16 type  1   force =    -0.00032676    0.03219329   -0.03245423
     atom   17 type  2   force =     0.00391621   -0.03099670   -0.24809886
     atom   18 type  2   force =    -0.00412786   -0.00454575    0.27457889
     atom   19 type  1   force =     0.00573692    0.00291738   -0.01445172
     atom   20 type  2   force =    -0.00035832   -0.02121607    0.26698462
     atom   21 type  1   force =     0.00443437    0.03518572    0.01021783
     atom   22 type  2   force =    -0.01914402    0.01235424   -0.25955680
     atom   23 type  2   force =     0.00491500   -0.01146252    0.26758092
     atom   24 type  1   force =     0.00505588    0.01816870   -0.01181715
     atom   25 type  2   force =     0.00827126   -0.00506070   -0.25607142
     atom   26 type  2   force =    -0.00227329   -0.00969556    0.26167895
     atom   27 type  1   force =    -0.00444809    0.00832196    0.00890752
     atom   28 type  2   force =    -0.00381518   -0.02465343   -0.27535894
     atom   29 type  2   force =     0.00719944    0.00144729    0.26365880
     atom   30 type  1   force =     0.00236548    0.06008404    0.04859376
     atom   31 type  2   force =    -0.00704414    0.00446420   -0.24907395
     atom   32 type  2   force =     0.00584622   -0.00939297    0.27327007
     atom   33 type  1   force =    -0.02280724   -0.00726051    0.00881948
     atom   34 type  2   force =     0.33285941    0.56778159   -1.02152772
     atom   35 type  2   force =    -0.00173351   -0.00653160    0.27120754
     atom   36 type  3   force =     0.71759392    1.34466029   -1.56746595
     The ionic contribution  to forces
     atom    1 type  1   force =     0.02218902    0.74891734    4.63483626
     atom    2 type  2   force =    -1.12031333    1.56374917   38.83847811
     atom    3 type  2   force =    -0.26260932    0.27644090  -36.79100271
     atom    4 type  1   force =    -0.26461901   -0.29670355   -0.70774073
     atom    5 type  2   force =    -1.14730654    1.31729737   38.55112271
     atom    6 type  2   force =     0.28259748   -0.54489443  -38.51963934
     atom    7 type  1   force =    -3.82218161   -3.50292114    0.48551233
     atom    8 type  2   force =    -2.13555640   -1.84403710   36.30804654
     atom    9 type  2   force =     0.20325300   -0.29239144  -38.84853453
     atom   10 type  1   force =    -2.77540759    1.62093594    1.65841594
     atom   11 type  2   force =    -2.09409725   -1.32830887   38.44946359
     atom   12 type  2   force =     0.22300849    0.76096079  -38.67830294
     atom   13 type  1   force =     0.76877567    1.43988846    1.83627524
     atom   14 type  2   force =    -0.00108041    0.34129174   38.29809383
     atom   15 type  2   force =     0.13354147    0.07453119  -37.33511358
     atom   16 type  1   force =    -0.08456748    3.53865321   -0.52180821
     atom   17 type  2   force =     0.95329420    1.35776067   37.73582274
     atom   18 type  2   force =    -0.11175176   -0.68795791  -39.04721580
     atom   19 type  1   force =     3.59236629   -3.01672507   -1.13007967
     atom   20 type  2   force =     0.20513124   -0.32923411  -39.07261349
     atom   21 type  1   force =    -0.16343640    0.54244166   -0.28260557
     atom   22 type  2   force =     1.41971127   -1.53176779   37.91748918
     atom   23 type  2   force =     0.07673035    0.72427874  -39.03128813
     atom   24 type  1   force =    -0.46190393    2.08021304    4.45314450
     atom   25 type  2   force =     1.17372510    1.21586464   38.87622592
     atom   26 type  2   force =    -0.17373754    0.28634959  -37.98934939
     atom   27 type  1   force =     0.42947427   -0.35576525   -3.55982671
     atom   28 type  2   force =     0.08993359    0.70376220   37.94777475
     atom   29 type  2   force =    -0.25467805   -0.49581389  -37.82494762
     atom   30 type  1   force =     0.09693717   -3.06668028   -5.08791429
     atom   31 type  2   force =     2.31549052   -1.39622134   36.51570169
     atom   32 type  2   force =    -0.32510577   -0.23173367  -39.42408104
     atom   33 type  1   force =     2.45676446    0.59333433   -1.07814426
     atom   34 type  2   force =     4.18251456    6.44756858   26.75285239
     atom   35 type  2   force =    -0.24704819    0.59737492  -39.04751369
     atom   36 type  3   force =    -3.18003755   -7.31045863   54.71846596
     The local contribution  to forces
     atom    1 type  1   force =    -0.00459697   -0.80704641   -4.61989389
     atom    2 type  2   force =     1.11379046   -1.52946382  -38.58797463
     atom    3 type  2   force =     0.26471874   -0.26551588   36.54138491
     atom    4 type  1   force =     0.26998084    0.29505519    0.70373602
     atom    5 type  2   force =     1.14156970   -1.28995414  -38.32664545
     atom    6 type  2   force =    -0.28083545    0.54701075   38.27675154
     atom    7 type  1   force =     3.84113000    3.48321749   -0.47471917
     atom    8 type  2   force =     2.14750799    1.85177084  -36.05665463
     atom    9 type  2   force =    -0.19342496    0.30695060   38.60618082
     atom   10 type  1   force =     2.71956148   -1.59872640   -1.70368262
     atom   11 type  2   force =     2.09150840    1.31666441  -38.22000579
     atom   12 type  2   force =    -0.21049733   -0.74656244   38.44458806
     atom   13 type  1   force =    -0.76684443   -1.45796611   -1.83450207
     atom   14 type  2   force =    -0.00168846   -0.32951148  -38.04251159
     atom   15 type  2   force =    -0.13286160   -0.06493167   37.08584452
     atom   16 type  1   force =     0.08457234   -3.56056549    0.55963672
     atom   17 type  2   force =    -0.95106155   -1.32717944  -37.50642065
     atom   18 type  2   force =     0.11241360    0.68724232   38.80744677
     atom   19 type  1   force =    -3.59559815    3.00233281    1.13713647
     atom   20 type  2   force =    -0.20261905    0.34488699   38.82753770
     atom   21 type  1   force =     0.15435948   -0.57290166    0.27909018
     atom   22 type  2   force =    -1.40252364    1.51858282  -37.68456963
     atom   23 type  2   force =    -0.08374346   -0.71469679   38.79039535
     atom   24 type  1   force =     0.44473255   -2.10056524   -4.45872842
     atom   25 type  2   force =    -1.16438188   -1.18333802  -38.63221948
     atom   26 type  2   force =     0.16390579   -0.27551697   37.74160065
     atom   27 type  1   force =    -0.42347367    0.34876860    3.55687306
     atom   28 type  2   force =    -0.08535899   -0.68216848  -37.69816115
     atom   29 type  2   force =     0.25096736    0.49401080   37.58080272
     atom   30 type  1   force =    -0.09171140    3.00519826    4.96611765
     atom   31 type  2   force =    -2.31033195    1.39490951  -36.26367440
     atom   32 type  2   force =     0.31536659    0.24658965   39.18119665
     atom   33 type  1   force =    -2.40523462   -0.60134007    1.09940138
     atom   34 type  2   force =    -4.01942326   -5.99234202  -27.63987852
     atom   35 type  2   force =     0.24110865   -0.58550812   38.81308135
     atom   36 type  3   force =     1.96875901    4.95101433  -51.30711513
     The core correction contribution to forces
     atom    1 type  1   force =     0.00000000    0.00000000    0.00000000
     atom    2 type  2   force =    -0.00004290    0.00083464    0.02041162
     atom    3 type  2   force =     0.00054571   -0.00036226   -0.02073671
     atom    4 type  1   force =     0.00000000    0.00000000    0.00000000
     atom    5 type  2   force =    -0.00053861    0.00193498    0.02028409
     atom    6 type  2   force =     0.00027933   -0.00102974   -0.02093317
     atom    7 type  1   force =     0.00000000    0.00000000    0.00000000
     atom    8 type  2   force =     0.00066185    0.00106987    0.02036036
     atom    9 type  2   force =     0.00049234    0.00055294   -0.02094048
     atom   10 type  1   force =     0.00000000    0.00000000    0.00000000
     atom   11 type  2   force =    -0.00059758   -0.00088418    0.02059065
     atom   12 type  2   force =     0.00138189    0.00144522   -0.02065430
     atom   13 type  1   force =     0.00000000    0.00000000    0.00000000
     atom   14 type  2   force =    -0.00057348    0.00015374    0.02066007
     atom   15 type  2   force =     0.00076012    0.00040669   -0.02063542
     atom   16 type  1   force =     0.00000000    0.00000000    0.00000000
     atom   17 type  2   force =    -0.00010283    0.00167773    0.02015904
     atom   18 type  2   force =     0.00006050   -0.00041573   -0.02108899
     atom   19 type  1   force =     0.00000000    0.00000000    0.00000000
     atom   20 type  2   force =     0.00016030    0.00083040   -0.02126171
     atom   21 type  1   force =     0.00000000    0.00000000    0.00000000
     atom   22 type  2   force =     0.00100415   -0.00094484    0.02047023
     atom   23 type  2   force =    -0.00044635    0.00107665   -0.02087992
     atom   24 type  1   force =     0.00000000    0.00000000    0.00000000
     atom   25 type  2   force =     0.00007505    0.00026000    0.02034100
     atom   26 type  2   force =    -0.00017299    0.00054006   -0.02080826
     atom   27 type  1   force =     0.00000000    0.00000000    0.00000000
     atom   28 type  2   force =     0.00025069    0.00188218    0.02099923
     atom   29 type  2   force =    -0.00059693   -0.00055625   -0.02059078
     atom   30 type  1   force =     0.00000000    0.00000000    0.00000000
     atom   31 type  2   force =     0.00049192   -0.00031590    0.02016587
     atom   32 type  2   force =    -0.00070583    0.00062548   -0.02095255
     atom   33 type  1   force =     0.00000000    0.00000000    0.00000000
     atom   34 type  2   force =    -0.02118698   -0.03848098    0.07265211
     atom   35 type  2   force =    -0.00013338    0.00067524   -0.02114897
     atom   36 type  3   force =    -0.00352627   -0.00596318    0.00280770
     The Hubbard contrib.    to forces
     atom    1 type  1   force =     0.00000000    0.00000000    0.00000000
     atom    2 type  2   force =     0.00000000    0.00000000    0.00000000
     atom    3 type  2   force =     0.00000000    0.00000000    0.00000000
     atom    4 type  1   force =     0.00000000    0.00000000    0.00000000
     atom    5 type  2   force =     0.00000000    0.00000000    0.00000000
     atom    6 type  2   force =     0.00000000    0.00000000    0.00000000
     atom    7 type  1   force =     0.00000000    0.00000000    0.00000000
     atom    8 type  2   force =     0.00000000    0.00000000    0.00000000
     atom    9 type  2   force =     0.00000000    0.00000000    0.00000000
     atom   10 type  1   force =     0.00000000    0.00000000    0.00000000
     atom   11 type  2   force =     0.00000000    0.00000000    0.00000000
     atom   12 type  2   force =     0.00000000    0.00000000    0.00000000
     atom   13 type  1   force =     0.00000000    0.00000000    0.00000000
     atom   14 type  2   force =     0.00000000    0.00000000    0.00000000
     atom   15 type  2   force =     0.00000000    0.00000000    0.00000000
     atom   16 type  1   force =     0.00000000    0.00000000    0.00000000
     atom   17 type  2   force =     0.00000000    0.00000000    0.00000000
     atom   18 type  2   force =     0.00000000    0.00000000    0.00000000
     atom   19 type  1   force =     0.00000000    0.00000000    0.00000000
     atom   20 type  2   force =     0.00000000    0.00000000    0.00000000
     atom   21 type  1   force =     0.00000000    0.00000000    0.00000000
     atom   22 type  2   force =     0.00000000    0.00000000    0.00000000
     atom   23 type  2   force =     0.00000000    0.00000000    0.00000000
     atom   24 type  1   force =     0.00000000    0.00000000    0.00000000
     atom   25 type  2   force =     0.00000000    0.00000000    0.00000000
     atom   26 type  2   force =     0.00000000    0.00000000    0.00000000
     atom   27 type  1   force =     0.00000000    0.00000000    0.00000000
     atom   28 type  2   force =     0.00000000    0.00000000    0.00000000
     atom   29 type  2   force =     0.00000000    0.00000000    0.00000000
     atom   30 type  1   force =     0.00000000    0.00000000    0.00000000
     atom   31 type  2   force =     0.00000000    0.00000000    0.00000000
     atom   32 type  2   force =     0.00000000    0.00000000    0.00000000
     atom   33 type  1   force =     0.00000000    0.00000000    0.00000000
     atom   34 type  2   force =     0.00000000    0.00000000    0.00000000
     atom   35 type  2   force =     0.00000000    0.00000000    0.00000000
     atom   36 type  3   force =     0.00000000    0.00000000    0.00000000
     The SCF correction term to forces
     atom    1 type  1   force =    -0.00007450   -0.00028273   -0.00058783
     atom    2 type  2   force =     0.00000059    0.00010798   -0.00002208
     atom    3 type  2   force =     0.00003271   -0.00001200   -0.00046991
     atom    4 type  1   force =    -0.00006447   -0.00047630   -0.00069513
     atom    5 type  2   force =    -0.00007188   -0.00018978    0.00002161
     atom    6 type  2   force =     0.00000935   -0.00020989   -0.00042556
     atom    7 type  1   force =    -0.00025739    0.00011923   -0.00077292
     atom    8 type  2   force =    -0.00013465   -0.00005836   -0.00011632
     atom    9 type  2   force =    -0.00004173    0.00007002   -0.00047524
     atom   10 type  1   force =     0.00008977    0.00041716   -0.00083274
     atom   11 type  2   force =    -0.00015421    0.00015556   -0.00010761
     atom   12 type  2   force =    -0.00001972    0.00014626   -0.00045008
     atom   13 type  1   force =    -0.00001303   -0.00027389   -0.00054138
     atom   14 type  2   force =    -0.00006993    0.00003667    0.00000354
     atom   15 type  2   force =    -0.00003067   -0.00002711   -0.00041570
     atom   16 type  1   force =    -0.00002335   -0.00019126   -0.00048893
     atom   17 type  2   force =     0.00001951   -0.00021321    0.00002570
     atom   18 type  2   force =    -0.00003770   -0.00023137   -0.00039413
     atom   19 type  1   force =     0.00028190    0.00014528   -0.00066571
     atom   20 type  2   force =     0.00004087    0.00005054   -0.00032928
     atom   21 type  1   force =    -0.00004695    0.00043459   -0.00071317
     atom   22 type  2   force =     0.00010080    0.00019551    0.00000190
     atom   23 type  2   force =     0.00001920    0.00022530   -0.00048334
     atom   24 type  1   force =     0.00010950   -0.00023019   -0.00062014
     atom   25 type  2   force =     0.00007360    0.00010661   -0.00002351
     atom   26 type  2   force =    -0.00000170   -0.00000212   -0.00043105
     atom   27 type  1   force =     0.00009022   -0.00054854   -0.00062405
     atom   28 type  2   force =     0.00006577   -0.00027063    0.00000360
     atom   29 type  2   force =     0.00003138   -0.00022840   -0.00043547
     atom   30 type  1   force =    -0.00004000    0.00035623   -0.00095070
     atom   31 type  2   force =     0.00014250   -0.00009648   -0.00001235
     atom   32 type  2   force =     0.00000041    0.00000969   -0.00050163
     atom   33 type  1   force =    -0.00002189    0.00053773   -0.00079879
     atom   34 type  2   force =     0.00004568    0.00023257   -0.00023617
     atom   35 type  2   force =     0.00000038    0.00021506   -0.00049027
     atom   36 type  3   force =     0.00001926    0.00012579    0.00007592

     Total force =     3.046578     Total SCF correction =     0.003295

     BFGS Geometry Optimization
     Energy error            =      0.0E+00 Ry
     Gradient error          =      1.8E+00 Ry/Bohr

     number of scf cycles    =   1
     number of bfgs steps    =   0

     energy             new  =   -2245.8496552276 Ry

     new trust radius        =       0.5000000000 bohr
     new conv_thr            =       0.0000010000 Ry


ATOMIC_POSITIONS (angstrom)
Mo            6.5761881478        1.7845611009        2.8240817277
S             8.1750456351        0.8122736744        4.4350219298
S             8.1920236959        0.8130669480        1.2774212457
Mo            8.0956664230        4.4956418711        2.7175536198
S             6.4997376697        3.7217911260        4.3458823544
S             6.5534582644        3.5131105779        1.1212621659
Mo            6.4907764651        7.2167228476        2.6708096596
S             8.0816579120        6.3428567332        4.2447199299
S             8.0818266575        6.3054707472        1.0854261035
Mo            8.1593380800        9.9033783961        2.8409159745
S             6.4959369877        8.9428385529        4.3819273744
S             6.6176699365        9.0483972775        1.1403820346
Mo            3.4222746791        1.7474676569        2.7756215792
S             4.9761452536        0.8169637951        4.3520955422
S             5.0563445337        0.8467237715        1.2256468793
Mo            4.9797146505        4.5144098939        2.6334776707
S             3.4285820967        3.6717281185        4.2798880345
S             3.4375004294        3.5475079383        1.0599751128
Mo            3.4542020098        7.2149421010        2.6296898673
S             4.9835217443        6.3263611879        1.0372893680
Mo            5.0116916562        9.9022302811        2.7441288207
S             3.4708543028        8.9435588065        4.3248356733
S             3.4081210540        9.0649197516        1.0967150676
Mo            0.2946252100        1.7472153209        2.8472419822
S             1.8526303914        0.7960914828        4.3992135367
S             1.8593013480        0.8546307511        1.2085055878
Mo            1.8608919203        4.4957619603        2.6608447508
S             0.2723452733        3.6542224649        4.3370020958
S             0.2315881048        3.5271104215        1.1718301373
Mo            0.2720739246        7.2165193354        2.6926424941
S             1.9020856484        6.3131336538        4.2252612594
S             1.8616770702        6.3110885137        1.0456462548
Mo            1.8478498224        9.9383418626        2.7765165808
S             0.3538656208        9.2101925495        4.1897574623
S             0.2758187460        9.0442859545        1.1522450355
O             9.3960756470        8.3756845398        5.5748479064



     Writing config-only to output data dir ./MoS2-V-O.save/
     NEW-OLD atomic charge density approx. for the potential

     negative rho (up, down):  2.003E-04 0.000E+00

     total cpu time spent up to now is      114.3 secs

     Self-consistent Calculation

     iteration #  1     ecut=    80.00 Ry     beta= 0.70
     Davidson diagonalization with overlap
     ethr =  1.00E-06,  avg # of iterations = 16.0

     negative rho (up, down):  7.687E-03 0.000E+00

     total cpu time spent up to now is      130.9 secs

     total energy              =   -2246.28651947 Ry
     estimated scf accuracy    <       0.25351787 Ry

     iteration #  2     ecut=    80.00 Ry     beta= 0.70
     Davidson diagonalization with overlap
     ethr =  8.13E-05,  avg # of iterations =  5.0

     negative rho (up, down):  1.454E-02 0.000E+00

     total cpu time spent up to now is      142.3 secs

     total energy              =   -2246.29488557 Ry
     estimated scf accuracy    <       0.09933977 Ry

     iteration #  3     ecut=    80.00 Ry     beta= 0.70
     Davidson diagonalization with overlap
     ethr =  3.18E-05,  avg # of iterations =  2.0

     negative rho (up, down):  2.262E-02 0.000E+00

     total cpu time spent up to now is      159.1 secs

     total energy              =   -2246.29780363 Ry
     estimated scf accuracy    <       0.01950962 Ry

     iteration #  4     ecut=    80.00 Ry     beta= 0.70
     Davidson diagonalization with overlap
     ethr =  6.25E-06,  avg # of iterations =  3.0

     negative rho (up, down):  2.363E-02 0.000E+00

     total cpu time spent up to now is      169.7 secs

     total energy              =   -2246.29812544 Ry
     estimated scf accuracy    <       0.00879559 Ry

     iteration #  5     ecut=    80.00 Ry     beta= 0.70
     Davidson diagonalization with overlap
     ethr =  2.82E-06,  avg # of iterations =  4.0

     negative rho (up, down):  2.241E-02 0.000E+00

     total cpu time spent up to now is      181.8 secs

     total energy              =   -2246.29871069 Ry
     estimated scf accuracy    <       0.00106272 Ry

     iteration #  6     ecut=    80.00 Ry     beta= 0.70
     Davidson diagonalization with overlap
     ethr =  3.41E-07,  avg # of iterations =  6.0

     negative rho (up, down):  1.874E-02 0.000E+00

     total cpu time spent up to now is      193.8 secs

     total energy              =   -2246.29859072 Ry
     estimated scf accuracy    <       0.00081593 Ry

     iteration #  7     ecut=    80.00 Ry     beta= 0.70
     Davidson diagonalization with overlap
     ethr =  2.62E-07,  avg # of iterations =  5.0

     negative rho (up, down):  1.483E-02 0.000E+00

     total cpu time spent up to now is      204.4 secs

     total energy              =   -2246.29864254 Ry
     estimated scf accuracy    <       0.00020428 Ry

     iteration #  8     ecut=    80.00 Ry     beta= 0.70
     Davidson diagonalization with overlap
     ethr =  6.55E-08,  avg # of iterations =  3.0

     negative rho (up, down):  9.786E-03 0.000E+00

     total cpu time spent up to now is      215.6 secs

     total energy              =   -2246.29856315 Ry
     estimated scf accuracy    <       0.00008942 Ry

     iteration #  9     ecut=    80.00 Ry     beta= 0.70
     Davidson diagonalization with overlap
     ethr =  2.87E-08,  avg # of iterations =  2.0

     negative rho (up, down):  4.972E-03 0.000E+00

     total cpu time spent up to now is      226.7 secs

     total energy              =   -2246.29849690 Ry
     estimated scf accuracy    <       0.00004518 Ry

     iteration # 10     ecut=    80.00 Ry     beta= 0.70
     Davidson diagonalization with overlap
     ethr =  1.45E-08,  avg # of iterations =  4.0

     negative rho (up, down):  3.360E-03 0.000E+00

     total cpu time spent up to now is      235.0 secs

     total energy              =   -2246.29848830 Ry
     estimated scf accuracy    <       0.00001407 Ry

     iteration # 11     ecut=    80.00 Ry     beta= 0.70
     Davidson diagonalization with overlap
     ethr =  4.51E-09,  avg # of iterations =  4.0

     negative rho (up, down):  1.659E-03 0.000E+00

     total cpu time spent up to now is      244.8 secs

     total energy              =   -2246.29847333 Ry
     estimated scf accuracy    <       0.00000697 Ry

     iteration # 12     ecut=    80.00 Ry     beta= 0.70
     Davidson diagonalization with overlap
     ethr =  2.23E-09,  avg # of iterations =  4.0

     negative rho (up, down):  5.310E-04 0.000E+00

     total cpu time spent up to now is      253.7 secs

     total energy              =   -2246.29846742 Ry
     estimated scf accuracy    <       0.00000258 Ry

     iteration # 13     ecut=    80.00 Ry     beta= 0.70
     Davidson diagonalization with overlap
     ethr =  8.27E-10,  avg # of iterations =  2.0

     negative rho (up, down):  1.893E-04 0.000E+00

     total cpu time spent up to now is      257.9 secs

     End of self-consistent calculation

          k = 0.0000 0.0000 0.0000 (105382 PWs)   bands (ev):

   -63.0947 -63.0741 -63.0558 -63.0220 -63.0109 -63.0082 -62.9895 -62.9694
   -62.9582 -62.9503 -62.9350 -62.7826 -37.4744 -37.4160 -37.3631 -37.3417
   -37.3062 -37.3002 -37.2926 -37.2785 -37.2601 -37.2501 -37.2465 -37.2336
   -37.2111 -37.2030 -37.1894 -37.1862 -37.1831 -37.1731 -37.1586 -37.1572
   -37.1402 -37.1274 -37.1161 -37.1045 -37.0994 -37.0973 -37.0906 -37.0789
   -37.0667 -37.0318 -36.9919 -36.9765 -36.9580 -36.9261 -36.9115 -36.8323
   -20.4356 -16.1291 -15.3827 -15.2668 -15.1412 -15.0806 -14.9233 -14.6937
   -14.6508 -14.6074 -14.5766 -14.5236 -14.4991 -14.4472 -14.4279 -14.3270
   -14.2804 -14.2655 -14.2184 -14.1514 -14.0850 -14.0144 -13.9835 -13.9134
    -8.0626  -7.9180  -7.7535  -7.6310  -7.4930  -7.3886  -7.3666  -7.3350
    -7.2881  -7.0492  -6.9828  -6.9513  -6.9131  -6.8456  -6.7759  -6.6554
    -6.6105  -6.5552  -6.4692  -6.3962  -6.2294  -6.1290  -6.0666  -6.0047
    -5.9783  -5.9610  -5.8940  -5.8481  -5.8227  -5.8039  -5.7383  -5.6901
    -5.5978  -5.5828  -5.5670  -5.4404  -5.3568  -5.2934  -5.2891  -5.1776
    -5.1485  -5.0797  -5.0407  -4.8120  -4.7614  -4.6685  -4.5911  -4.5079
    -4.4670  -4.3818  -4.2763  -4.2007  -4.0620  -3.9886  -3.9716  -3.9488
    -3.9123  -3.8481  -3.8043  -3.7645  -3.6792  -3.6588  -3.6543  -3.6232
    -3.5721  -3.5164  -3.4359  -3.3129  -3.2525  -3.0951  -3.0529  -3.0076
    -2.9354  -2.9080  -2.8654  -2.8545  -2.8118  -2.7566  -2.5608  -2.4203
    -2.3157  -2.2081  -2.1542  -1.7301  -0.9752  -0.8858  -0.5918  -0.3615
    -0.3206  -0.2182  -0.1806  -0.0914  -0.0867   0.0249   0.0797   0.1124
     0.1343   0.2620   0.3052   0.3266   0.3618   0.3921   0.4216   0.4736
     0.5316   0.5737   0.6220   0.6362   0.7053   0.7305   0.7725   0.7993
     0.8437   0.9000   1.0112

     the Fermi energy is    -1.3528 ev

!    total energy              =   -2246.29846735 Ry
     estimated scf accuracy    <       0.00000048 Ry
     smearing contrib. (-TS)   =      -0.00000517 Ry
     internal energy E=F+TS    =   -2246.29846219 Ry

     The total energy is F=E-TS. E is the sum of the following terms:
     one-electron contribution =  -18446.76211233 Ry
     hartree contribution      =    9210.56319421 Ry
     xc contribution           =    -392.09919446 Ry
     ewald contribution        =    7391.86572918 Ry
     one-center paw contrib.   =      -9.86607879 Ry

     convergence has been achieved in  13 iterations

     negative rho (up, down):  1.893E-04 0.000E+00

     Forces acting on atoms (cartesian axes, Ry/au):

     atom    1 type  1   force =     0.01251545   -0.02277925    0.00166175
     atom    2 type  2   force =    -0.01413850    0.02016211    0.00657909
     atom    3 type  2   force =    -0.01173582    0.01226330   -0.00397408
     atom    4 type  1   force =     0.00024918    0.00330383   -0.00242088
     atom    5 type  2   force =    -0.00019401   -0.00471852   -0.00568142
     atom    6 type  2   force =     0.00077594    0.00989913   -0.00022057
     atom    7 type  1   force =     0.00658077   -0.01409101   -0.00383614
     atom    8 type  2   force =     0.00693093   -0.00050847    0.01757331
     atom    9 type  2   force =     0.00960482    0.00595140    0.01141850
     atom   10 type  1   force =    -0.04853669    0.03844090   -0.06615668
     atom   11 type  2   force =     0.00912707   -0.00141262   -0.00963314
     atom   12 type  2   force =    -0.00383584   -0.00264017    0.00500688
     atom   13 type  1   force =     0.00256811    0.00398405   -0.00790937
     atom   14 type  2   force =     0.00799279   -0.00034102    0.01384214
     atom   15 type  2   force =    -0.01133466    0.00310842   -0.00811292
     atom   16 type  1   force =     0.00015730    0.00942567    0.00502470
     atom   17 type  2   force =     0.00553536    0.00138158    0.00228827
     atom   18 type  2   force =    -0.00308904   -0.00548272    0.01212005
     atom   19 type  1   force =     0.00269234   -0.01324008   -0.00578927
     atom   20 type  2   force =     0.00211758   -0.00493293   -0.00092580
     atom   21 type  1   force =    -0.00715493    0.00330247    0.00130700
     atom   22 type  2   force =     0.00062193   -0.00280482   -0.00310698
     atom   23 type  2   force =     0.00039559   -0.00349255    0.00356930
     atom   24 type  1   force =    -0.01140150   -0.00194899   -0.01948137
     atom   25 type  2   force =     0.01838540    0.03100285    0.01105993
     atom   26 type  2   force =    -0.01005710    0.00304628   -0.00644667
     atom   27 type  1   force =     0.00309481    0.00123783    0.00578360
     atom   28 type  2   force =     0.00097977   -0.00142124   -0.00414488
     atom   29 type  2   force =     0.00287233   -0.00076462   -0.00252915
     atom   30 type  1   force =     0.00555256   -0.00474637   -0.05633337
     atom   31 type  2   force =    -0.00508457    0.00311468    0.02054610
     atom   32 type  2   force =    -0.00683219    0.00607716    0.00775521
     atom   33 type  1   force =     0.09733512    0.03408795   -0.05697213
     atom   34 type  2   force =    -0.11823067   -0.21693562    0.20164940
     atom   35 type  2   force =    -0.00748505    0.00625131   -0.00025043
     atom   36 type  3   force =     0.06302542    0.10622009   -0.06325998
     The non-local contrib.  to forces
     atom    1 type  1   force =    -0.00323359    0.03150808   -0.01051572
     atom    2 type  2   force =    -0.00863967   -0.00771343   -0.27787709
     atom    3 type  2   force =    -0.01230574   -0.00074670    0.26827952
     atom    4 type  1   force =    -0.00051330    0.01109159    0.00391653
     atom    5 type  2   force =     0.00597119   -0.03319791   -0.25445776
     atom    6 type  2   force =    -0.00125518    0.00992411    0.26472525
     atom    7 type  1   force =    -0.01581329    0.00284145   -0.01795157
     atom    8 type  2   force =    -0.01510243   -0.00783231   -0.25253850
     atom    9 type  2   force =     0.00119206   -0.00799391    0.27566505
     atom   10 type  1   force =     0.02091347   -0.00822243    0.01235643
     atom   11 type  2   force =     0.00223836    0.00751123   -0.26591058
     atom   12 type  2   force =    -0.01607820   -0.02130074    0.25515557
     atom   13 type  1   force =     0.00416637    0.02432020   -0.00724704
     atom   14 type  2   force =     0.01094122   -0.01154209   -0.26682359
     atom   15 type  2   force =    -0.01323591   -0.00542242    0.26205577
     atom   16 type  1   force =    -0.00012867    0.03137813   -0.03339991
     atom   17 type  2   force =     0.00306594   -0.02978640   -0.25063830
     atom   18 type  2   force =    -0.00371691   -0.00403982    0.27469517
     atom   19 type  1   force =     0.00847399    0.00108443   -0.01409384
     atom   20 type  2   force =    -0.00038102   -0.02156011    0.26581542
     atom   21 type  1   force =     0.00713119    0.02979401    0.01213600
     atom   22 type  2   force =    -0.01252576    0.01062107   -0.26541372
     atom   23 type  2   force =     0.00872246   -0.01663460    0.26378123
     atom   24 type  1   force =     0.00416085    0.02349995   -0.01165495
     atom   25 type  2   force =     0.01171944   -0.00237503   -0.26551703
     atom   26 type  2   force =    -0.00303034   -0.00838614    0.26157922
     atom   27 type  1   force =    -0.00437337    0.01046856    0.00961046
     atom   28 type  2   force =    -0.00358816   -0.02588595   -0.27790245
     atom   29 type  2   force =     0.00751127    0.00128783    0.26432238
     atom   30 type  1   force =     0.00171796    0.03187667    0.02917146
     atom   31 type  2   force =     0.00218742    0.00028325   -0.25795561
     atom   32 type  2   force =     0.00068918   -0.00833097    0.27379769
     atom   33 type  1   force =    -0.02007778   -0.01107032    0.01160283
     atom   34 type  2   force =    -0.08382014   -0.28270683    0.39746222
     atom   35 type  2   force =    -0.00203169   -0.00626153    0.26660198
     atom   36 type  3   force =     0.52861662    1.02170420   -1.43948787
     The ionic contribution  to forces
     atom    1 type  1   force =    -0.05693596    0.82701151    4.69768212
     atom    2 type  2   force =    -1.10244182    1.44278800   38.98559978
     atom    3 type  2   force =    -0.29736594    0.30249198  -36.83148312
     atom    4 type  1   force =    -0.25934173   -0.23880602   -0.64403728
     atom    5 type  2   force =    -1.14401186    1.31405643   38.52903040
     atom    6 type  2   force =     0.26959590   -0.54836984  -38.48553063
     atom    7 type  1   force =    -3.71369354   -3.40638625    0.61790128
     atom    8 type  2   force =    -1.99543395   -1.62483396   36.22164657
     atom    9 type  2   force =     0.17469854   -0.31130327  -38.80892671
     atom   10 type  1   force =    -3.62448014    1.42556571    1.85904578
     atom   11 type  2   force =    -1.88996111   -1.33947892   38.44694147
     atom   12 type  2   force =     0.18899045    0.73693796  -38.63806877
     atom   13 type  1   force =     0.81069516    1.47628463    1.84424763
     atom   14 type  2   force =     0.00175873    0.33284262   38.34009786
     atom   15 type  2   force =     0.14362012    0.08124671  -37.33448609
     atom   16 type  1   force =    -0.06449587    3.52041920   -0.44766426
     atom   17 type  2   force =     0.94955931    1.36504708   37.74600014
     atom   18 type  2   force =    -0.10159597   -0.67078844  -39.02008867
     atom   19 type  1   force =     3.57993391   -3.04241224   -1.01439587
     atom   20 type  2   force =     0.20954857   -0.32757030  -39.06434565
     atom   21 type  1   force =    -0.07824798    0.47682247   -0.15054105
     atom   22 type  2   force =     1.36779669   -1.61033503   38.03537250
     atom   23 type  2   force =     0.12152335    0.70878963  -39.03186210
     atom   24 type  1   force =    -0.44244469    2.23833971    4.43878566
     atom   25 type  2   force =     1.17450411    1.25042552   39.02199819
     atom   26 type  2   force =    -0.13788668    0.30993281  -38.00761859
     atom   27 type  1   force =     0.40678515   -0.28585970   -3.43397824
     atom   28 type  2   force =     0.09206298    0.71573619   37.94212407
     atom   29 type  2   force =    -0.25172016   -0.46660831  -37.81346698
     atom   30 type  1   force =    -0.08335288   -3.17439620   -4.62436656
     atom   31 type  2   force =     2.17473212   -1.19522718   36.56200838
     atom   32 type  2   force =    -0.29452862   -0.27363152  -39.40287256
     atom   33 type  1   force =     3.60981644    0.91544816   -1.42600029
     atom   34 type  2   force =     1.51852917    1.36735638   31.83055088
     atom   35 type  2   force =    -0.26269849    0.57214996  -39.17355194
     atom   36 type  3   force =    -0.99351333   -2.86368550   48.23425266
     The local contribution  to forces
     atom    1 type  1   force =     0.07290283   -0.88159413   -4.68571736
     atom    2 type  2   force =     1.09693058   -1.41545690  -38.72219906
     atom    3 type  2   force =     0.29743878   -0.28956313   36.57983377
     atom    4 type  1   force =     0.26010733    0.23126725    0.63746320
     atom    5 type  2   force =     1.13845753   -1.28736376  -38.30069357
     atom    6 type  2   force =    -0.26785515    0.54941267   38.24118867
     atom    7 type  1   force =     3.73608339    3.38970395   -0.60389588
     atom    8 type  2   force =     2.01628542    1.63104975  -35.97211292
     atom    9 type  2   force =    -0.16650432    0.32486609   38.56533034
     atom   10 type  1   force =     3.55508304   -1.37891676   -1.93773022
     atom   11 type  2   force =     1.89661875    1.33128768  -38.21173449
     atom   12 type  2   force =    -0.17806510   -0.71982857   38.40821570
     atom   13 type  1   force =    -0.81253127   -1.49694393   -1.84512059
     atom   14 type  2   force =    -0.00415951   -0.32202566  -38.08023646
     atom   15 type  2   force =    -0.14245445   -0.07320831   37.08463942
     atom   16 type  1   force =     0.06480540   -3.54206049    0.48582269
     atom   17 type  2   force =    -0.94706454   -1.33540474  -37.51337035
     atom   18 type  2   force =     0.10218463    0.66982914   38.77828011
     atom   19 type  1   force =    -3.58573881    3.02838211    1.02266215
     atom   20 type  2   force =    -0.20717950    0.34340534   38.81850676
     atom   21 type  1   force =     0.06394126   -0.50365260    0.13973092
     atom   22 type  2   force =    -1.35524722    1.59785477  -37.79391997
     atom   23 type  2   force =    -0.12924678   -0.69695743   38.79213333
     atom   24 type  1   force =     0.42688885   -2.26429602   -4.44670442
     atom   25 type  2   force =    -1.16780195   -1.21737625  -38.76626262
     atom   26 type  2   force =     0.13094629   -0.29910860   37.76014545
     atom   27 type  1   force =    -0.39933878    0.27687959    3.42991024
     atom   28 type  2   force =    -0.08772360   -0.69319461  -37.68945413
     atom   29 type  2   force =     0.24769402    0.46510189   37.56688932
     atom   30 type  1   force =     0.08720814    3.13802055    4.53859208
     atom   31 type  2   force =    -2.18173346    1.19792023  -36.30426959
     atom   32 type  2   force =     0.28735112    0.28757085   39.15754579
     atom   33 type  1   force =    -3.49240452   -0.87035445    1.35739861
     atom   34 type  2   force =    -1.55797782   -1.31653075  -32.01302210
     atom   35 type  2   force =     0.25732927   -0.56030308   38.92737909
     atom   36 type  3   force =     0.53392973    1.95969687  -46.87323897
     The core correction contribution to forces
     atom    1 type  1   force =     0.00000000    0.00000000    0.00000000
     atom    2 type  2   force =     0.00008079    0.00036561    0.02120115
     atom    3 type  2   force =     0.00053541   -0.00004862   -0.02084605
     atom    4 type  1   force =     0.00000000    0.00000000    0.00000000
     atom    5 type  2   force =    -0.00058168    0.00188663    0.02048381
     atom    6 type  2   force =     0.00027856   -0.00101782   -0.02093532
     atom    7 type  1   force =     0.00000000    0.00000000    0.00000000
     atom    8 type  2   force =     0.00114560    0.00124167    0.02081245
     atom    9 type  2   force =     0.00020138    0.00045911   -0.02095497
     atom   10 type  1   force =     0.00000000    0.00000000    0.00000000
     atom   11 type  2   force =     0.00021426   -0.00076501    0.02127280
     atom   12 type  2   force =     0.00132561    0.00153847   -0.02051658
     atom   13 type  1   force =     0.00000000    0.00000000    0.00000000
     atom   14 type  2   force =    -0.00055132    0.00015193    0.02088576
     atom   15 type  2   force =     0.00074602    0.00037735   -0.02064063
     atom   16 type  1   force =     0.00000000    0.00000000    0.00000000
     atom   17 type  2   force =    -0.00006357    0.00162974    0.02033240
     atom   18 type  2   force =     0.00004448   -0.00043013   -0.02110710
     atom   19 type  1   force =     0.00000000    0.00000000    0.00000000
     atom   20 type  2   force =     0.00015994    0.00084163   -0.02120794
     atom   21 type  1   force =     0.00000000    0.00000000    0.00000000
     atom   22 type  2   force =     0.00056559   -0.00094913    0.02102840
     atom   23 type  2   force =    -0.00061741    0.00132668   -0.02071143
     atom   24 type  1   force =     0.00000000    0.00000000    0.00000000
     atom   25 type  2   force =    -0.00011159    0.00011012    0.02095285
     atom   26 type  2   force =    -0.00013413    0.00047674   -0.02079451
     atom   27 type  1   force =     0.00000000    0.00000000    0.00000000
     atom   28 type  2   force =     0.00023219    0.00196243    0.02119579
     atom   29 type  2   force =    -0.00060851   -0.00052622   -0.02061619
     atom   30 type  1   force =     0.00000000    0.00000000    0.00000000
     atom   31 type  2   force =    -0.00024831    0.00026595    0.02099357
     atom   32 type  2   force =    -0.00035830    0.00051869   -0.02103242
     atom   33 type  1   force =     0.00000000    0.00000000    0.00000000
     atom   34 type  2   force =     0.00508399    0.01499154   -0.01317297
     atom   35 type  2   force =    -0.00008372    0.00071462   -0.02088987
     atom   36 type  3   force =    -0.00602165   -0.01157673    0.01577211
     The Hubbard contrib.    to forces
     atom    1 type  1   force =     0.00000000    0.00000000    0.00000000
     atom    2 type  2   force =     0.00000000    0.00000000    0.00000000
     atom    3 type  2   force =     0.00000000    0.00000000    0.00000000
     atom    4 type  1   force =     0.00000000    0.00000000    0.00000000
     atom    5 type  2   force =     0.00000000    0.00000000    0.00000000
     atom    6 type  2   force =     0.00000000    0.00000000    0.00000000
     atom    7 type  1   force =     0.00000000    0.00000000    0.00000000
     atom    8 type  2   force =     0.00000000    0.00000000    0.00000000
     atom    9 type  2   force =     0.00000000    0.00000000    0.00000000
     atom   10 type  1   force =     0.00000000    0.00000000    0.00000000
     atom   11 type  2   force =     0.00000000    0.00000000    0.00000000
     atom   12 type  2   force =     0.00000000    0.00000000    0.00000000
     atom   13 type  1   force =     0.00000000    0.00000000    0.00000000
     atom   14 type  2   force =     0.00000000    0.00000000    0.00000000
     atom   15 type  2   force =     0.00000000    0.00000000    0.00000000
     atom   16 type  1   force =     0.00000000    0.00000000    0.00000000
     atom   17 type  2   force =     0.00000000    0.00000000    0.00000000
     atom   18 type  2   force =     0.00000000    0.00000000    0.00000000
     atom   19 type  1   force =     0.00000000    0.00000000    0.00000000
     atom   20 type  2   force =     0.00000000    0.00000000    0.00000000
     atom   21 type  1   force =     0.00000000    0.00000000    0.00000000
     atom   22 type  2   force =     0.00000000    0.00000000    0.00000000
     atom   23 type  2   force =     0.00000000    0.00000000    0.00000000
     atom   24 type  1   force =     0.00000000    0.00000000    0.00000000
     atom   25 type  2   force =     0.00000000    0.00000000    0.00000000
     atom   26 type  2   force =     0.00000000    0.00000000    0.00000000
     atom   27 type  1   force =     0.00000000    0.00000000    0.00000000
     atom   28 type  2   force =     0.00000000    0.00000000    0.00000000
     atom   29 type  2   force =     0.00000000    0.00000000    0.00000000
     atom   30 type  1   force =     0.00000000    0.00000000    0.00000000
     atom   31 type  2   force =     0.00000000    0.00000000    0.00000000
     atom   32 type  2   force =     0.00000000    0.00000000    0.00000000
     atom   33 type  1   force =     0.00000000    0.00000000    0.00000000
     atom   34 type  2   force =     0.00000000    0.00000000    0.00000000
     atom   35 type  2   force =     0.00000000    0.00000000    0.00000000
     atom   36 type  3   force =     0.00000000    0.00000000    0.00000000
     The SCF correction term to forces
     atom    1 type  1   force =    -0.00021882    0.00029529    0.00020209
     atom    2 type  2   force =    -0.00006936    0.00017882   -0.00015631
     atom    3 type  2   force =    -0.00003931    0.00012975    0.00023118
     atom    4 type  1   force =    -0.00000411   -0.00024901    0.00022606
     atom    5 type  2   force =    -0.00003017   -0.00009992   -0.00005491
     atom    6 type  2   force =     0.00001084   -0.00005001    0.00032085
     atom    7 type  1   force =     0.00000322   -0.00025017    0.00009941
     atom    8 type  2   force =     0.00003531   -0.00013363   -0.00024489
     atom    9 type  2   force =     0.00001619   -0.00007663    0.00029417
     atom   10 type  1   force =    -0.00005405    0.00001436    0.00016072
     atom   11 type  2   force =     0.00001583    0.00003239   -0.00021294
     atom   12 type  2   force =    -0.00000957    0.00001270    0.00021034
     atom   13 type  1   force =     0.00023686    0.00032314    0.00020001
     atom   14 type  2   force =     0.00000269    0.00023216   -0.00009204
     atom   15 type  2   force =    -0.00001142    0.00011508    0.00030800
     atom   16 type  1   force =    -0.00002453   -0.00031118    0.00025557
     atom   17 type  2   force =     0.00003723   -0.00010411   -0.00004625
     atom   18 type  2   force =    -0.00000625   -0.00005348    0.00032994
     atom   19 type  1   force =     0.00002227   -0.00029439    0.00002767
     atom   20 type  2   force =    -0.00003139   -0.00004951    0.00029499
     atom   21 type  1   force =     0.00001962    0.00033858   -0.00002948
     atom   22 type  2   force =     0.00003165    0.00000349   -0.00018480
     atom   23 type  2   force =     0.00001299   -0.00001684    0.00021765
     atom   24 type  1   force =    -0.00000750    0.00050736    0.00008172
     atom   25 type  2   force =     0.00007441    0.00021848   -0.00012208
     atom   26 type  2   force =     0.00004678    0.00013146    0.00023114
     atom   27 type  1   force =     0.00002083   -0.00025063    0.00023052
     atom   28 type  2   force =    -0.00000462   -0.00003932   -0.00011877
     atom   29 type  2   force =    -0.00000527   -0.00001982    0.00033171
     atom   30 type  1   force =    -0.00002164   -0.00024739    0.00025904
     atom   31 type  2   force =    -0.00002332   -0.00012758   -0.00024127
     atom   32 type  2   force =     0.00001345   -0.00004989    0.00030609
     atom   33 type  1   force =     0.00000001    0.00006454    0.00001610
     atom   34 type  2   force =    -0.00004686   -0.00004597   -0.00017925
     atom   35 type  2   force =    -0.00000140   -0.00004867    0.00019968
     atom   36 type  3   force =     0.00001306    0.00008123   -0.00056851

     Total force =     0.391504     Total SCF correction =     0.001818
     Energy error            =      4.5E-01 Ry
     Gradient error          =      2.2E-01 Ry/Bohr

     number of scf cycles    =   2
     number of bfgs steps    =   1

     energy             old  =   -2245.8496552276 Ry
     energy             new  =   -2246.2984673547 Ry

     CASE: energy            _new < energy            _old

     new trust radius        =       0.1542622353 bohr
     new conv_thr            =       0.0000002169 Ry


ATOMIC_POSITIONS (angstrom)
Mo            6.5827551958        1.7725259524        2.8250236414
S             8.1676866954        0.8228302633        4.4383542631
S             8.1859696568        0.8195708719        1.2753545078
Mo            8.0959463730        4.4974235923        2.7162999386
S             6.4995895850        3.7193145673        4.3428904852
S             6.5538675649        3.5183288854        1.1211498607
Mo            6.4942081446        7.2093707904        2.6686155889
S             8.0849850412        6.3422898718        4.2539269679
S             8.0867558256        6.3085899554        1.0914388041
Mo            8.1354780830        9.9223335248        2.8081409781
S             6.5005910797        8.9421279848        4.3768993020
S             6.6157285491        9.0470220631        1.1429518300
Mo            3.4237104043        1.7495549272        2.7715305218
S             4.9803178395        0.8168061547        4.3592792124
S             5.0503957402        0.8483720353        1.2214061686
Mo            4.9797773555        4.5193547235        2.6360935615
S             3.4314913987        3.6724364064        4.2810503016
S             3.4358746765        3.5446303017        1.0663459277
Mo            3.4556107740        7.2081063639        2.6265797966
S             4.9846360734        6.3237966166        1.0368532778
Mo            5.0080529770        9.9040256867        2.7449908707
S             3.4711219688        8.9421424898        4.3230950226
S             3.4082146534        9.0632098057        1.0986446543
Mo            0.2886517000        1.7461803499        2.8371305308
S             1.8622012992        0.8121487641        4.4048759627
S             1.8539669142        0.8561676656        1.2051068861
Mo            1.8624509457        4.4963902613        2.6638445413
S             0.2728603417        3.6534798386        4.3348148797
S             0.2330891062        3.5266969841        1.1705485259
Mo            0.2750489568        7.2141856118        2.6625536978
S             1.8995803121        6.3147447765        4.2360817657
S             1.8581978728        6.3142609821        1.0497379835
Mo            1.8959943231        9.9542451013        2.7501164254
S             0.3150829762        9.1434208290        4.2162383410
S             0.2719000978        9.0475474948        1.1527079788
O             9.4073165105        8.3875694727        5.6156498175



     Writing config-only to output data dir ./MoS2-V-O.save/
     NEW-OLD atomic charge density approx. for the potential

     negative rho (up, down):  1.678E-04 0.000E+00

     total cpu time spent up to now is      266.1 secs

     Self-consistent Calculation

     iteration #  1     ecut=    80.00 Ry     beta= 0.70
     Davidson diagonalization with overlap
     ethr =  1.00E-06,  avg # of iterations = 16.0

     negative rho (up, down):  1.581E-04 0.000E+00

     total cpu time spent up to now is      283.5 secs

     total energy              =   -2246.35574402 Ry
     estimated scf accuracy    <       0.00938898 Ry

     iteration #  2     ecut=    80.00 Ry     beta= 0.70
     Davidson diagonalization with overlap
     ethr =  3.01E-06,  avg # of iterations =  2.0

     negative rho (up, down):  1.654E-04 0.000E+00

     total cpu time spent up to now is      294.7 secs

     total energy              =   -2246.35588657 Ry
     estimated scf accuracy    <       0.00242274 Ry

     iteration #  3     ecut=    80.00 Ry     beta= 0.70
     Davidson diagonalization with overlap
     ethr =  7.77E-07,  avg # of iterations =  2.0

     negative rho (up, down):  1.653E-04 0.000E+00

     total cpu time spent up to now is      309.1 secs

     total energy              =   -2246.35599355 Ry
     estimated scf accuracy    <       0.00039897 Ry

     iteration #  4     ecut=    80.00 Ry     beta= 0.70
     Davidson diagonalization with overlap
     ethr =  1.28E-07,  avg # of iterations =  6.0

     negative rho (up, down):  1.574E-04 0.000E+00

     total cpu time spent up to now is      322.3 secs

     total energy              =   -2246.35606862 Ry
     estimated scf accuracy    <       0.00003994 Ry

     iteration #  5     ecut=    80.00 Ry     beta= 0.70
     Davidson diagonalization with overlap
     ethr =  1.28E-08,  avg # of iterations =  5.0

     negative rho (up, down):  1.492E-04 0.000E+00

     total cpu time spent up to now is      336.1 secs

     total energy              =   -2246.35607818 Ry
     estimated scf accuracy    <       0.00001356 Ry

     iteration #  6     ecut=    80.00 Ry     beta= 0.70
     Davidson diagonalization with overlap
     ethr =  4.35E-09,  avg # of iterations =  2.0

     negative rho (up, down):  1.378E-04 0.000E+00

     total cpu time spent up to now is      348.7 secs

     total energy              =   -2246.35607876 Ry
     estimated scf accuracy    <       0.00000358 Ry

     iteration #  7     ecut=    80.00 Ry     beta= 0.70
     Davidson diagonalization with overlap
     ethr =  1.15E-09,  avg # of iterations =  5.0

     negative rho (up, down):  1.307E-04 0.000E+00

     total cpu time spent up to now is      362.6 secs

     total energy              =   -2246.35607919 Ry
     estimated scf accuracy    <       0.00000090 Ry

     iteration #  8     ecut=    80.00 Ry     beta= 0.70
     Davidson diagonalization with overlap
     ethr =  2.90E-10,  avg # of iterations =  4.0

     negative rho (up, down):  1.326E-04 0.000E+00

     total cpu time spent up to now is      375.5 secs

     total energy              =   -2246.35607937 Ry
     estimated scf accuracy    <       0.00000032 Ry

     iteration #  9     ecut=    80.00 Ry     beta= 0.70
     Davidson diagonalization with overlap
     ethr =  1.01E-10,  avg # of iterations =  5.0

     negative rho (up, down):  1.880E-04 0.000E+00

     total cpu time spent up to now is      379.9 secs

     End of self-consistent calculation

          k = 0.0000 0.0000 0.0000 (105382 PWs)   bands (ev):

   -63.0805 -63.0618 -63.0423 -63.0163 -63.0057 -63.0022 -62.9921 -62.9703
   -62.9559 -62.9496 -62.9376 -62.7863 -37.4106 -37.3965 -37.3483 -37.3262
   -37.3012 -37.2937 -37.2842 -37.2649 -37.2525 -37.2413 -37.2348 -37.2277
   -37.2066 -37.1941 -37.1845 -37.1810 -37.1703 -37.1653 -37.1583 -37.1534
   -37.1386 -37.1249 -37.1123 -37.1011 -37.0979 -37.0965 -37.0839 -37.0739
   -37.0611 -37.0294 -36.9864 -36.9798 -36.9641 -36.9286 -36.9206 -36.8424
   -20.8330 -16.1167 -15.3565 -15.2650 -15.1297 -15.0633 -14.9153 -14.6533
   -14.6296 -14.6057 -14.5808 -14.5353 -14.4908 -14.4522 -14.4154 -14.2998
   -14.2739 -14.2689 -14.1973 -14.1422 -14.0401 -14.0238 -13.9807 -13.9006
    -7.9468  -7.8476  -7.7315  -7.6129  -7.4775  -7.3906  -7.3753  -7.3280
    -7.3020  -7.0233  -6.9804  -6.9464  -6.9024  -6.8487  -6.7913  -6.6721
    -6.6256  -6.5485  -6.4630  -6.3979  -6.2171  -6.1422  -6.0609  -5.9964
    -5.9760  -5.9551  -5.9002  -5.8413  -5.8251  -5.8059  -5.7596  -5.6918
    -5.5920  -5.5657  -5.5246  -5.4318  -5.3411  -5.3001  -5.2813  -5.1779
    -5.1412  -5.0966  -5.0402  -4.7986  -4.7909  -4.6607  -4.5671  -4.5079
    -4.4648  -4.4021  -4.3007  -4.2190  -4.0924  -4.0389  -3.9562  -3.9432
    -3.9045  -3.8359  -3.7839  -3.7655  -3.7052  -3.6555  -3.6468  -3.6216
    -3.5659  -3.5090  -3.4496  -3.3181  -3.1906  -3.0960  -3.0491  -3.0073
    -2.9465  -2.9220  -2.8604  -2.8412  -2.7939  -2.7567  -2.6495  -2.4185
    -2.3776  -2.1876  -2.1516  -1.8851  -0.9584  -0.9005  -0.4864  -0.3454
    -0.3186  -0.2133  -0.1830  -0.0958  -0.0461   0.0525   0.0959   0.1234
     0.1568   0.2730   0.3009   0.3391   0.3678   0.3954   0.4167   0.4971
     0.5554   0.5941   0.6168   0.6644   0.6857   0.7424   0.7573   0.8335
     0.8457   0.8887   1.0018

     the Fermi energy is    -1.4222 ev

!    total energy              =   -2246.35607934 Ry
     estimated scf accuracy    <       0.00000007 Ry
     smearing contrib. (-TS)   =      -0.00000011 Ry
     internal energy E=F+TS    =   -2246.35607924 Ry

     The total energy is F=E-TS. E is the sum of the following terms:
     one-electron contribution =  -18433.65464184 Ry
     hartree contribution      =    9204.05361466 Ry
     xc contribution           =    -392.07390611 Ry
     ewald contribution        =    7385.18353553 Ry
     one-center paw contrib.   =      -9.86468148 Ry

     convergence has been achieved in   9 iterations

     negative rho (up, down):  1.880E-04 0.000E+00

     Forces acting on atoms (cartesian axes, Ry/au):

     atom    1 type  1   force =     0.00357007   -0.00990418   -0.00048688
     atom    2 type  2   force =    -0.00984518    0.01215772   -0.00015474
     atom    3 type  2   force =    -0.01157484    0.01535126   -0.01573734
     atom    4 type  1   force =     0.00188542    0.00356869    0.00103458
     atom    5 type  2   force =     0.00054075   -0.00545978   -0.00585412
     atom    6 type  2   force =     0.00013362    0.00677705    0.00204859
     atom    7 type  1   force =     0.00526915   -0.00854199    0.00122267
     atom    8 type  2   force =     0.00903513   -0.00058005    0.00736174
     atom    9 type  2   force =     0.00591699    0.00297135    0.00209032
     atom   10 type  1   force =    -0.01977522    0.01939230   -0.02085437
     atom   11 type  2   force =     0.00716159    0.00056653   -0.01313793
     atom   12 type  2   force =    -0.00800550   -0.00337845   -0.00291147
     atom   13 type  1   force =     0.00413110    0.00664257   -0.00256321
     atom   14 type  2   force =     0.00550838   -0.00002622    0.00894713
     atom   15 type  2   force =    -0.00841346    0.00273956   -0.00728180
     atom   16 type  1   force =     0.00032263    0.00627883    0.00349876
     atom   17 type  2   force =     0.00519297    0.00117931    0.00211684
     atom   18 type  2   force =    -0.00141698   -0.00322483    0.00999958
     atom   19 type  1   force =     0.00199641   -0.00643160    0.00175099
     atom   20 type  2   force =     0.00288667   -0.00520765   -0.00364980
     atom   21 type  1   force =    -0.00237997   -0.00130759    0.00338956
     atom   22 type  2   force =     0.00234968   -0.00256342   -0.00420326
     atom   23 type  2   force =     0.00758552   -0.00446936   -0.00347624
     atom   24 type  1   force =    -0.00490613   -0.00516864   -0.00679046
     atom   25 type  2   force =     0.01417222    0.01910361    0.00073571
     atom   26 type  2   force =    -0.00471849    0.00617652   -0.01157147
     atom   27 type  1   force =     0.00239715    0.00239661    0.00725861
     atom   28 type  2   force =    -0.00001594   -0.00186014   -0.00545292
     atom   29 type  2   force =     0.00251737    0.00124425   -0.00351902
     atom   30 type  1   force =    -0.00036121   -0.00875795   -0.01884425
     atom   31 type  2   force =    -0.00627151    0.00405678    0.00917164
     atom   32 type  2   force =    -0.00155168    0.00173655   -0.00022322
     atom   33 type  1   force =     0.01600261    0.00867754    0.00226061
     atom   34 type  2   force =    -0.07097659   -0.16435959    0.12817519
     atom   35 type  2   force =    -0.00072398    0.01413952   -0.00206805
     atom   36 type  3   force =     0.05236124    0.09608489   -0.06228199
     The non-local contrib.  to forces
     atom    1 type  1   force =    -0.00160540    0.02822946   -0.01127991
     atom    2 type  2   force =    -0.00611292   -0.00969305   -0.27705470
     atom    3 type  2   force =    -0.01148711    0.00041028    0.25932135
     atom    4 type  1   force =    -0.00061594    0.01138847    0.00270659
     atom    5 type  2   force =     0.00687519   -0.03407244   -0.25587602
     atom    6 type  2   force =    -0.00234279    0.00700037    0.26669498
     atom    7 type  1   force =    -0.01572624    0.00210878   -0.02077794
     atom    8 type  2   force =    -0.01129446   -0.00762913   -0.26193009
     atom    9 type  2   force =     0.00006462   -0.00965982    0.27105753
     atom   10 type  1   force =     0.01406926   -0.00502893    0.01194925
     atom   11 type  2   force =     0.00076639    0.00817159   -0.26953826
     atom   12 type  2   force =    -0.01706785   -0.02021542    0.25368028
     atom   13 type  1   force =     0.00343200    0.02407118   -0.00743609
     atom   14 type  2   force =     0.00939321   -0.01142218   -0.26893421
     atom   15 type  2   force =    -0.01053445   -0.00665945    0.26179732
     atom   16 type  1   force =    -0.00052152    0.03172025   -0.03500325
     atom   17 type  2   force =     0.00242506   -0.02903455   -0.25185854
[...]
     atom   28 type  2   force =     0.00111425   -0.01327829   -0.27761517
     atom   29 type  2   force =    -0.00127895   -0.00777039    0.27034047
     atom   30 type  1   force =     0.00006663    0.03035944    0.01904427
     atom   31 type  2   force =    -0.00834982    0.00427264   -0.27154421
     atom   32 type  2   force =     0.00550114   -0.01368090    0.26846591
     atom   33 type  1   force =    -0.00995221   -0.00091392    0.02020147
     atom   34 type  2   force =    -0.00083534   -0.00908318    0.29626989
     atom   35 type  2   force =    -0.00064686   -0.01629688    0.27689721
     atom   36 type  3   force =     0.00741988    0.03259367   -2.31737960
     The ionic contribution  to forces
     atom    1 type  1   force =    -0.55961586    1.28259579    1.57617104
     atom    2 type  2   force =    -0.70960672    1.11499280   38.28081090
     atom    3 type  2   force =     0.05579882    0.15696523  -38.29093919
     atom    4 type  1   force =    -0.35189763   -0.22087755   -0.92561903
     atom    5 type  2   force =    -0.91482818    1.14288520   38.11143279
     atom    6 type  2   force =     0.12066411   -0.36832415  -38.48278812
     atom    7 type  1   force =    -3.26760069   -2.47464952    0.77347559
     atom    8 type  2   force =    -1.78250125   -0.81868705   37.51502885
     atom    9 type  2   force =     0.22207987   -0.10995208  -38.85451258
     atom   10 type  1   force =    -1.38123824    0.17938097   -1.28474977
     atom   11 type  2   force =    -1.40182071   -1.53641749   37.82715450
     atom   12 type  2   force =     0.10385433    0.29059018  -38.76783297
     atom   13 type  1   force =     0.55815982    1.26555327    2.01559492
     atom   14 type  2   force =     0.02290564    0.29050720   38.35138004
     atom   15 type  2   force =    -0.01821858    0.02594442  -37.87224697
     atom   16 type  1   force =     0.02764713    3.26072917    1.15284262
     atom   17 type  2   force =     0.95763029    1.14795539   38.24616935
     atom   18 type  2   force =    -0.14723989   -0.36328112  -38.38112739
     atom   19 type  1   force =     3.31865816   -2.47134836    1.43551931
     atom   20 type  2   force =    -0.02585108   -0.12285746  -39.02180363
     atom   21 type  1   force =     0.03298918    0.03412103    0.02214710
     atom   22 type  2   force =     1.42891879   -1.51726760   37.89859388
     atom   23 type  2   force =    -0.12976653    0.25421975  -38.67398675
     atom   24 type  1   force =    -0.01365631    1.40494538    1.16226856
     atom   25 type  2   force =     0.68734509    1.12781010   38.34442813
     atom   26 type  2   force =    -0.03137857    0.15434870  -38.23332294
     atom   27 type  1   force =     0.33577583   -0.22326357   -0.14426774
     atom   28 type  2   force =    -0.03533322    0.47926889   37.83461117
     atom   29 type  2   force =     0.02983276   -0.13906031  -37.99223333
     atom   30 type  1   force =    -0.00359058   -1.76555860   -2.38224641
     atom   31 type  2   force =     1.73712415   -0.81251958   37.65921671
     atom   32 type  2   force =    -0.19997715   -0.11529862  -38.71936609
     atom   33 type  1   force =     1.35605051    0.19198326   -1.08804529
     atom   34 type  2   force =    -0.00037239   -0.40581000   28.62784291
     atom   35 type  2   force =     0.01866465    0.14642589  -38.15728163
     atom   36 type  3   force =    -0.03960552   -0.48604955   50.43768147
     The local contribution  to forces
     atom    1 type  1   force =     0.56317797   -1.30588033   -1.57163810
     atom    2 type  2   force =     0.71003557   -1.10375795  -38.03047747
     atom    3 type  2   force =    -0.05317244   -0.14761168   38.04627853
     atom    4 type  1   force =     0.34976203    0.21619665    0.92307257
     atom    5 type  2   force =     0.91050438   -1.11987208  -37.87589605
     atom    6 type  2   force =    -0.12142824    0.37036768   38.23809453
     atom    7 type  1   force =     3.28253895    2.47043157   -0.75168982
     atom    8 type  2   force =     1.77393318    0.81418903  -37.26495650
     atom    9 type  2   force =    -0.21672487    0.12244855   38.60741018
     atom   10 type  1   force =     1.37189995   -0.17856272    1.26493149
     atom   11 type  2   force =     1.39873773    1.53288473  -37.58436917
     atom   12 type  2   force =    -0.09659990   -0.27727714   38.52704139
     atom   13 type  1   force =    -0.56158824   -1.29059726   -2.01063252
     atom   14 type  2   force =    -0.02238043   -0.27968173  -38.09950768
     atom   15 type  2   force =     0.01801409   -0.01425346   37.62826723
     atom   16 type  1   force =    -0.02786700   -3.29369829   -1.11697946
     atom   17 type  2   force =    -0.95262196   -1.12549827  -38.01096015
     atom   18 type  2   force =     0.14733221    0.36574259   38.13640107
     atom   19 type  1   force =    -3.33326683    2.46739395   -1.41350363
     atom   20 type  2   force =     0.02521214    0.13446889   38.77796472
     atom   21 type  1   force =    -0.03293380   -0.06453572   -0.03395381
     atom   22 type  2   force =    -1.42492417    1.51430445  -37.65550034
     atom   23 type  2   force =     0.12224525   -0.24103554   38.43259079
     atom   24 type  1   force =     0.01454872   -1.41721172   -1.16069518
     atom   25 type  2   force =    -0.68792605   -1.11681138  -38.09427035
     atom   26 type  2   force =     0.02918025   -0.14483318   37.98864178
     atom   27 type  1   force =    -0.33428675    0.21953319    0.14151136
     atom   28 type  2   force =     0.03455729   -0.46672465  -37.57849611
     atom   29 type  2   force =    -0.02909585    0.14683021   37.74262403
     atom   30 type  1   force =     0.00322032    1.73511084    2.36408562
     atom   31 type  2   force =    -1.72940785    0.80831400  -37.40925864
     atom   32 type  2   force =     0.19506163    0.12785570   38.47187922
     atom   33 type  1   force =    -1.34872391   -0.19240691    1.06882242
     atom   34 type  2   force =     0.00077771    0.41450534  -28.91420317
     atom   35 type  2   force =    -0.01841323   -0.13284856   37.90126155
     atom   36 type  3   force =     0.03247933    0.45434207  -48.14637797
     The core correction contribution to forces
     atom    1 type  1   force =     0.00000000    0.00000000    0.00000000
     atom    2 type  2   force =     0.00002921    0.00045918    0.02122575
     atom    3 type  2   force =     0.00018818    0.00046943   -0.02083014
     atom    4 type  1   force =     0.00000000    0.00000000    0.00000000
     atom    5 type  2   force =    -0.00034530    0.00112095    0.02046894
     atom    6 type  2   force =     0.00013123   -0.00038381   -0.02087953
     atom    7 type  1   force =     0.00000000    0.00000000    0.00000000
     atom    8 type  2   force =    -0.00050062    0.00006592    0.02127864
     atom    9 type  2   force =     0.00058096    0.00080119   -0.02099239
     atom   10 type  1   force =     0.00000000    0.00000000    0.00000000
     atom   11 type  2   force =     0.00007998   -0.00047709    0.02103958
     atom   12 type  2   force =     0.00062721    0.00096827   -0.02074042
     atom   13 type  1   force =     0.00000000    0.00000000    0.00000000
     atom   14 type  2   force =     0.00004066    0.00018266    0.02113180
     atom   15 type  2   force =    -0.00007072    0.00049404   -0.02072082
     atom   16 type  1   force =     0.00000000    0.00000000    0.00000000
     atom   17 type  2   force =     0.00047538    0.00111834    0.02049490
     atom   18 type  2   force =    -0.00019362   -0.00035735   -0.02086904
     atom   19 type  1   force =     0.00000000    0.00000000    0.00000000
     atom   20 type  2   force =    -0.00011544    0.00051242   -0.02126407
     atom   21 type  1   force =     0.00000000    0.00000000    0.00000000
     atom   22 type  2   force =    -0.00008057   -0.00038873    0.02102956
     atom   23 type  2   force =    -0.00065292    0.00090625   -0.02072277
     atom   24 type  1   force =     0.00000000    0.00000000    0.00000000
     atom   25 type  2   force =    -0.00009451    0.00043538    0.02122544
     atom   26 type  2   force =    -0.00016313    0.00049689   -0.02082353
     atom   27 type  1   force =     0.00000000    0.00000000    0.00000000
     atom   28 type  2   force =    -0.00009291    0.00089543    0.02127513
     atom   29 type  2   force =     0.00010277    0.00016731   -0.02088338
     atom   30 type  1   force =     0.00000000    0.00000000    0.00000000
     atom   31 type  2   force =     0.00038274    0.00012419    0.02131052
     atom   32 type  2   force =    -0.00049669    0.00069958   -0.02098047
     atom   33 type  1   force =     0.00000000    0.00000000    0.00000000
     atom   34 type  2   force =     0.00004115    0.00039439   -0.00975287
     atom   35 type  2   force =     0.00004002    0.00091362   -0.02130722
     atom   36 type  3   force =    -0.00007966   -0.00036309    0.02458091
     The Hubbard contrib.    to forces
     atom    1 type  1   force =     0.00000000    0.00000000    0.00000000
     atom    2 type  2   force =     0.00000000    0.00000000    0.00000000
     atom    3 type  2   force =     0.00000000    0.00000000    0.00000000
     atom    4 type  1   force =     0.00000000    0.00000000    0.00000000
     atom    5 type  2   force =     0.00000000    0.00000000    0.00000000
     atom    6 type  2   force =     0.00000000    0.00000000    0.00000000
     atom    7 type  1   force =     0.00000000    0.00000000    0.00000000
     atom    8 type  2   force =     0.00000000    0.00000000    0.00000000
     atom    9 type  2   force =     0.00000000    0.00000000    0.00000000
     atom   10 type  1   force =     0.00000000    0.00000000    0.00000000
     atom   11 type  2   force =     0.00000000    0.00000000    0.00000000
     atom   12 type  2   force =     0.00000000    0.00000000    0.00000000
     atom   13 type  1   force =     0.00000000    0.00000000    0.00000000
     atom   14 type  2   force =     0.00000000    0.00000000    0.00000000
     atom   15 type  2   force =     0.00000000    0.00000000    0.00000000
     atom   16 type  1   force =     0.00000000    0.00000000    0.00000000
     atom   17 type  2   force =     0.00000000    0.00000000    0.00000000
     atom   18 type  2   force =     0.00000000    0.00000000    0.00000000
     atom   19 type  1   force =     0.00000000    0.00000000    0.00000000
     atom   20 type  2   force =     0.00000000    0.00000000    0.00000000
     atom   21 type  1   force =     0.00000000    0.00000000    0.00000000
     atom   22 type  2   force =     0.00000000    0.00000000    0.00000000
     atom   23 type  2   force =     0.00000000    0.00000000    0.00000000
     atom   24 type  1   force =     0.00000000    0.00000000    0.00000000
     atom   25 type  2   force =     0.00000000    0.00000000    0.00000000
     atom   26 type  2   force =     0.00000000    0.00000000    0.00000000
     atom   27 type  1   force =     0.00000000    0.00000000    0.00000000
     atom   28 type  2   force =     0.00000000    0.00000000    0.00000000
     atom   29 type  2   force =     0.00000000    0.00000000    0.00000000
     atom   30 type  1   force =     0.00000000    0.00000000    0.00000000
     atom   31 type  2   force =     0.00000000    0.00000000    0.00000000
     atom   32 type  2   force =     0.00000000    0.00000000    0.00000000
     atom   33 type  1   force =     0.00000000    0.00000000    0.00000000
     atom   34 type  2   force =     0.00000000    0.00000000    0.00000000
     atom   35 type  2   force =     0.00000000    0.00000000    0.00000000
     atom   36 type  3   force =     0.00000000    0.00000000    0.00000000
     The SCF correction term to forces
     atom    1 type  1   force =     0.00001470   -0.00001516    0.00002217
     atom    2 type  2   force =     0.00000327   -0.00002220    0.00000825
     atom    3 type  2   force =     0.00000428   -0.00000735    0.00000497
     atom    4 type  1   force =     0.00000977    0.00004512   -0.00000583
     atom    5 type  2   force =     0.00000227    0.00001395    0.00000302
     atom    6 type  2   force =     0.00001327    0.00002118   -0.00000377
     atom    7 type  1   force =     0.00002446    0.00001435    0.00000941
     atom    8 type  2   force =     0.00002296    0.00002106    0.00001180
     atom    9 type  2   force =     0.00001553    0.00000256   -0.00000439
     atom   10 type  1   force =     0.00004646   -0.00005805    0.00004525
     atom   11 type  2   force =     0.00000821    0.00000339    0.00001615
     atom   12 type  2   force =     0.00000153   -0.00000943    0.00000331
     atom   13 type  1   force =     0.00000794   -0.00002507    0.00002617
     atom   14 type  2   force =    -0.00000953   -0.00002083    0.00000871
     atom   15 type  2   force =    -0.00000397   -0.00001602    0.00001655
     atom   16 type  1   force =    -0.00001718    0.00003304    0.00001012
     atom   17 type  2   force =    -0.00000369    0.00001420    0.00000886
     atom   18 type  2   force =    -0.00000222    0.00002122    0.00000273
     atom   19 type  1   force =    -0.00003589    0.00000788    0.00002395
     atom   20 type  2   force =    -0.00000330    0.00000653   -0.00000446
     atom   21 type  1   force =    -0.00000111   -0.00002792    0.00003825
     atom   22 type  2   force =    -0.00002120   -0.00000343    0.00000831
     atom   23 type  2   force =    -0.00000062   -0.00001869    0.00001907
     atom   24 type  1   force =     0.00000531   -0.00001079    0.00001469
     atom   25 type  2   force =    -0.00000147   -0.00002773    0.00000658
     atom   26 type  2   force =    -0.00000908   -0.00000575    0.00001629
     atom   27 type  1   force =    -0.00002530    0.00005611    0.00001485
     atom   28 type  2   force =     0.00000670    0.00001611   -0.00000122
     atom   29 type  2   force =    -0.00000423    0.00001666    0.00000167
     atom   30 type  1   force =     0.00000848    0.00003883    0.00003641
     atom   31 type  2   force =    -0.00000815    0.00002492    0.00000658
     atom   32 type  2   force =    -0.00000763    0.00000722    0.00001170
     atom   33 type  1   force =    -0.00003587   -0.00007068    0.00008107
     atom   34 type  2   force =     0.00001127   -0.00002292    0.00000011
     atom   35 type  2   force =     0.00000100   -0.00001700    0.00003531
     atom   36 type  3   force =    -0.00000189   -0.00006252   -0.00002417

     Total force =     0.006976     Total SCF correction =     0.000234
     Energy error            =      8.6E-05 Ry
     Gradient error          =      2.7E-03 Ry/Bohr

     bfgs converged in  21 scf cycles and  20 bfgs steps
     (criteria: energy <  1.0E-04 Ry, force <  1.0E-02 Ry/Bohr)

     End of BFGS Geometry Optimization

     Final energy             =   -2246.4497943308 Ry

     File ./MoS2-V-O.bfgs deleted, as requested
Begin final coordinates

ATOMIC_POSITIONS (angstrom)
Mo            6.5563383265        1.7438922546        2.7592537259
S             8.1215906888        0.8328569463        4.3721090150
S             8.1305214142        0.8464896799        1.1666735291
Mo            8.1132486309        4.4874142945        2.7038675180
S             6.5209798208        3.6544923609        4.3048039321
S             6.5466645972        3.5464153327        1.1086426707
Mo            6.5144073096        7.1716697469        2.6605914342
S             8.0761740377        6.2910758377        4.2967948678
S             8.1249876817        6.3092822973        1.0898280784
Mo            8.1058711608        9.9420548750        2.7515052926
S             6.5211502322        8.9332438419        4.3201441018
S             6.5712984661        9.0144913608        1.1131164369
Mo            3.4186878123        1.7473255713        2.7673335073
S             4.9896601025        0.7974876062        4.3509815815
S             4.9825160793        0.8237801402        1.1755947509
Mo            4.9903913382        4.5216888489        2.6586701305
S             3.4663727348        3.6582270015        4.3155698922
S             3.4294585445        3.5471155796        1.1180382424
Mo            3.4619991611        7.1703973597        2.6729260570
S             4.9827390182        6.2955096609        1.0478637874
Mo            4.9873938359        9.8840888189        2.7335732354
S             3.4528225238        8.9399378067        4.3254888018
S             3.4030022991        9.0104792976        1.1220648221
Mo            0.2579255461        1.7283495933        2.7716034390
S             1.8483332147        0.8359065894        4.3774962803
S             1.8460819463        0.8494845987        1.1716050463
Mo            1.8665305441        4.4857011733        2.7182026463
S             0.2552656486        3.5978344082        4.3156820022
S             0.2659945012        3.5469987236        1.1514215752
Mo            0.2608654166        7.1738142304        2.7170218488
S             1.8949004107        6.2931892619        4.3090228902
S             1.8577055061        6.3015046859        1.1017500828
Mo            1.8719247050        9.9455965238        2.7560148191
S             0.2594528924        9.0105956945        4.2598387852
S             0.2640975354        9.0477658189        1.1819002146
O             9.7117533285        8.9950441441        5.7593277786
End final coordinates



     Writing all to output data dir ./MoS2-V-O.save/
 
     init_run     :      4.75s CPU      5.23s WALL (       1 calls)
     electrons    :   1866.69s CPU   2133.35s WALL (      21 calls)
     update_pot   :     66.97s CPU     71.91s WALL (      20 calls)
     forces       :     63.69s CPU     74.30s WALL (      21 calls)

     Called by init_run:
     wfcinit      :      0.50s CPU      0.55s WALL (       1 calls)
     potinit      :      2.49s CPU      2.71s WALL (       1 calls)
     hinit0       :      0.44s CPU      0.47s WALL (       1 calls)

     Called by electrons:
     c_bands      :    293.29s CPU    301.53s WALL (     184 calls)
     sum_band     :    115.75s CPU    159.03s WALL (     184 calls)
     v_of_rho     :    229.12s CPU    278.00s WALL (     198 calls)
     newd         :     72.51s CPU    110.26s WALL (     198 calls)
     PAW_pot      :      7.89s CPU      7.93s WALL (     218 calls)
     mix_rho      :   1174.95s CPU   1307.05s WALL (     184 calls)

     Called by c_bands:
     init_us_2    :      4.24s CPU      4.61s WALL (     389 calls)
     init_us_2:cp :      4.24s CPU      4.60s WALL (     389 calls)
     regterg      :    279.46s CPU    287.34s WALL (     184 calls)

     Called by *egterg:
     rdiaghg      :     17.66s CPU     17.93s WALL (     975 calls)
     h_psi        :    174.73s CPU    176.38s WALL (    1003 calls)
     s_psi        :     15.29s CPU     15.36s WALL (    1003 calls)
     g_psi        :      1.66s CPU      1.67s WALL (     818 calls)

     Called by h_psi:
     h_psi:calbec :     18.81s CPU     18.93s WALL (    1003 calls)
     vloc_psi     :    137.74s CPU    139.16s WALL (    1003 calls)
     add_vuspsi   :     15.40s CPU     15.49s WALL (    1003 calls)

     General routines
     calbec       :     27.03s CPU     27.20s WALL (    1291 calls)
     fft          :    167.55s CPU    187.46s WALL (   13302 calls)
     ffts         :    522.03s CPU    649.36s WALL (  285632 calls)
     fftw         :     90.10s CPU     90.94s WALL (  114204 calls)
     interpolate  :      2.48s CPU      2.85s WALL (     198 calls)
 
     Parallel routines
 
     PWSCF        :  33m32.41s CPU  38m20.20s WALL

 
   This run was terminated on:  21:47:46   1Nov2023            

=------------------------------------------------------------------------------=
   JOB DONE.
=------------------------------------------------------------------------------=
