
     Program PWSCF v.7.2 starts on  1Nov2023 at 17:14:54 

     This program is part of the open-source Quantum ESPRESSO suite
     for quantum simulation of materials; please cite
         "P. Giannozzi et al., J. Phys.:Condens. Matter 21 395502 (2009);
         "P. Giannozzi et al., J. Phys.:Condens. Matter 29 465901 (2017);
         "P. Giannozzi et al., J. Chem. Phys. 152 154105 (2020);
          URL http://www.quantum-espresso.org", 
     in publications or presentations arising from this work. More details at
     http://www.quantum-espresso.org/quote

     Parallel version (MPI & OpenMP), running on      48 processor cores
     Number of MPI processes:                48
     Threads/MPI process:                     1

     MPI processes distributed on     1 nodes
     59418 MiB available memory on the printing compute node when the environment starts
 
     Waiting for input...
     Reading input from standard input
Warning: card &CELL ignored
Warning: card CELL_DYNAMICS = 'BFGS', ignored
Warning: card CELL_DOFREE = '2DXY' ignored
Warning: card / ignored

     Current dimensions of program PWSCF are:
     Max number of different atomic species (ntypx) = 10
     Max number of k-points (npk) =  40000
     Max angular momentum in pseudopotentials (lmaxx) =  4
     file O.pbe-n-kjpaw_psl.0.1.UPF: wavefunction(s)  2P renormalized

     IMPORTANT: XC functional enforced from input :
     Exchange-correlation= RVV10
                           (   1   4  13   4  26   0   0)
     Any further DFT definition will be discarded
     Please, verify this is what you really want


     gamma-point specific algorithms are used
     signal trapping enabled: kill the code with -SIGUSR1 to stop cleanly the simulation 
 
     R & G space division:  proc/nbgrp/npool/nimage =      48
     Subspace diagonalization in iterative solution of the eigenvalue problem:
     one sub-group per band group will be used
     scalapack distributed-memory algorithm (size of sub-group:  2*  2 procs)

 
     Parallelization info
     --------------------
     sticks:   dense  smooth     PW     G-vecs:    dense   smooth      PW
     Min         396     194     47               101632    35090    4376
     Max         398     196     50               101674    35128    4410
     Sum       19091    9389   2349              4879585  1685513  210763
 
     Using Slab Decomposition
 


     bravais-lattice index     =            0
     lattice parameter (alat)  =      17.8707  a.u.
     unit-cell volume          =   17436.2743 (a.u.)^3
     number of atoms/cell      =           36
     number of atomic types    =            3
     number of electrons       =       312.00
     number of Kohn-Sham states=          187
     kinetic-energy cutoff     =      80.0000  Ry
     charge density cutoff     =     650.0000  Ry
     scf convergence threshold =      1.0E-06
     mixing beta               =       0.7000
     number of iterations used =            8  local-TF  mixing
     energy convergence thresh.=      1.0E-04
     force convergence thresh. =      1.0E-02
     Exchange-correlation= RVV10
                           (   1   4  13   4  26   0   0)
     nstep                     =          200


     celldm(1)=  17.870686  celldm(2)=   0.000000  celldm(3)=   0.000000
     celldm(4)=   0.000000  celldm(5)=   0.000000  celldm(6)=   0.000000

     crystal axes: (cart. coord. in units of alat)
               a(1) = (   1.000000   0.000000   0.000000 )  
               a(2) = (   0.000000   1.155671   0.000000 )  
               a(3) = (   0.000000   0.000000   2.643601 )  

     reciprocal axes: (cart. coord. in units 2 pi/alat)
               b(1) = (  1.000000  0.000000  0.000000 )  
               b(2) = (  0.000000  0.865298  0.000000 )  
               b(3) = (  0.000000  0.000000  0.378272 )  


     PseudoPot. # 1 for Mo read from file:
     ../pseudo/Mo_ONCV_PBE-1.0.oncvpsp.upf
     MD5 check sum: 1b5d28e075c9ccadda658a603575cd1f
     Pseudo is Norm-conserving, Zval = 14.0
     Generated using ONCVPSP code by D. R. Hamann
     Using radial grid of 1526 points,  6 beta functions with: 
                l(1) =   0
                l(2) =   0
                l(3) =   1
                l(4) =   1
                l(5) =   2
                l(6) =   2

     PseudoPot. # 2 for S  read from file:
     ../pseudo/s_pbe_v1.4.uspp.F.UPF
     MD5 check sum: 88d86576ff6df21479756cfb9bdac1df
     Pseudo is Ultrasoft + core correction, Zval =  6.0
     Generated by new atomic code, or converted to UPF format
     Using radial grid of  907 points,  6 beta functions with: 
                l(1) =   0
                l(2) =   0
                l(3) =   1
                l(4) =   1
                l(5) =   2
                l(6) =   2
     Q(r) pseudized with  8 coefficients,  rinner =    1.300   1.300   1.300
                                                       1.300   1.300

     PseudoPot. # 3 for O  read from file:
     ../pseudo/O.pbe-n-kjpaw_psl.0.1.UPF
     MD5 check sum: 0234752ac141de4415c5fc33072bef88
     Pseudo is Projector augmented-wave + core cor, Zval =  6.0
     Generated using "atomic" code by A. Dal Corso  v.5.0.99 svn rev. 10869
     Shape of augmentation charge: BESSEL
     Using radial grid of 1095 points,  4 beta functions with: 
                l(1) =   0
                l(2) =   0
                l(3) =   1
                l(4) =   1
     Q(r) pseudized with 0 coefficients 


     atomic species   valence    mass     pseudopotential
        Mo            14.00    95.94000     Mo( 1.00)
        S              6.00    32.06500     S ( 1.00)
        O              6.00    15.99940     O ( 1.00)

     No symmetry found



   Cartesian axes

     site n.     atom                  positions (alat units)
         1           Mo  tau(   1) = (   0.6952221   0.1890506   0.2985846  )
         2           S   tau(   2) = (   0.8646417   0.0856217   0.4689279  )
         3           S   tau(   3) = (   0.8663890   0.0857843   0.1351291  )
         4           Mo  tau(   4) = (   0.8560186   0.4753274   0.2873942  )
         5           S   tau(   5) = (   0.6873294   0.3936244   0.4596353  )
         6           S   tau(   6) = (   0.6929804   0.3713468   0.1185692  )
         7           Mo  tau(   7) = (   0.6862796   0.7633098   0.2825370  )
         8           S   tau(   8) = (   0.8545980   0.6708292   0.4486168  )
         9           S   tau(   9) = (   0.8545123   0.6666874   0.1146125  )
        10           Mo  tau(  10) = (   0.8629403   1.0471007   0.3006803  )
        11           S   tau(  11) = (   0.6868280   0.9456650   0.4634891  )
        12           S   tau(  12) = (   0.6998113   0.9568511   0.1205389  )
        13           Mo  tau(  13) = (   0.3618216   0.1847309   0.2935964  )
        14           S   tau(  14) = (   0.5260962   0.0863870   0.4600448  )
        15           S   tau(  15) = (   0.5348379   0.0894875   0.1297123  )
        16           Mo  tau(  16) = (   0.5265817   0.4772436   0.2784130  )
        17           S   tau(  17) = (   0.3624753   0.3882513   0.4525556  )
        18           S   tau(  18) = (   0.3635411   0.3752055   0.1119148  )
        19           Mo  tau(  19) = (   0.3652268   0.7630864   0.2781795  )
        20           S   tau(  20) = (   0.5269494   0.6690381   0.1096838  )
        21           Mo  tau(  21) = (   0.5300192   1.0470394   0.2900995  )
        22           S   tau(  22) = (   0.3670346   0.9457522   0.4574073  )
        23           S   tau(  23) = (   0.3604225   0.9585725   0.1159032  )
        24           Mo  tau(  24) = (   0.0313099   0.1847895   0.3013130  )
        25           S   tau(  25) = (   0.1956761   0.0838230   0.4650863  )
        26           S   tau(  26) = (   0.1967693   0.0903508   0.1278874  )
        27           Mo  tau(  27) = (   0.1967578   0.4753919   0.2813011  )
        28           S   tau(  28) = (   0.0287851   0.3864324   0.4586755  )
        29           S   tau(  29) = (   0.0244514   0.3729871   0.1239344  )
        30           Mo  tau(  30) = (   0.0286728   0.7631204   0.2856894  )
        31           S   tau(  31) = (   0.2011512   0.6675435   0.4465001  )
        32           S   tau(  32) = (   0.1969214   0.6672839   0.1104564  )
        33           Mo  tau(  33) = (   0.1950294   1.0511147   0.2932237  )
        34           S   tau(  34) = (   0.0312912   0.9612169   0.4667423  )
        35           S   tau(  35) = (   0.0292670   0.9563028   0.1216485  )
        36           O   tau(  36) = (   0.4444444   0.0000000   0.5650415  )

     number of k points=     1  Gaussian smearing, width (Ry)=  0.0100
                       cart. coord. in units 2pi/alat
        k(    1) = (   0.0000000   0.0000000   0.0000000), wk =   2.0000000

     Dense  grid:  2439793 G-vectors     FFT dimensions: ( 150, 180, 384)

     Smooth grid:   842757 G-vectors     FFT dimensions: ( 108, 120, 270)

     Estimated max dynamical RAM per process >     269.22 MB

     Estimated total dynamical RAM >      12.62 GB

     Initial potential from superposition of free atoms

     starting charge     311.9873, renormalised to     312.0000

     negative rho (up, down):  2.756E-04 0.000E+00


---------------------------------------------------------------------------------
Carrying out rVV10 run using the following parameters:
Nqs =      20    Nr_points =    1024   r_max =   100.000
b_value =  6.30000    beta =  0.00901
     q_mesh =  0.00010000  0.00030000  0.00058939  0.00100810
               0.00161396  0.00249058  0.00375900  0.00559430
               0.00824984  0.01209221  0.01765183  0.02569619
               0.03733578  0.05417739  0.07854596  0.11380545
               0.16482331  0.23864234  0.34545298  0.50000000

Gradients computed in Reciprocal space

---------------------------------------------------------------------------------


     Starting wfcs are  216 randomized atomic wfcs
     Checking if some PAW data can be deallocated... 

     total cpu time spent up to now is        5.4 secs

     Self-consistent Calculation

     iteration #  1     ecut=    80.00 Ry     beta= 0.70
     Davidson diagonalization with overlap
     ethr =  1.00E-02,  avg # of iterations =  2.0

     Threshold (ethr) on eigenvalues was too large:
     Diagonalizing with lowered threshold

     Davidson diagonalization with overlap
     ethr =  4.51E-04,  avg # of iterations =  4.0

     negative rho (up, down):  4.070E-08 0.000E+00

     total cpu time spent up to now is       19.9 secs

     total energy              =   -2246.25898439 Ry
     estimated scf accuracy    <       1.65686362 Ry

     iteration #  2     ecut=    80.00 Ry     beta= 0.70
     Davidson diagonalization with overlap
     ethr =  5.31E-04,  avg # of iterations =  4.0

     total cpu time spent up to now is       24.6 secs

     total energy              =   -2246.26022484 Ry
     estimated scf accuracy    <       0.57993305 Ry

     iteration #  3     ecut=    80.00 Ry     beta= 0.70
     Davidson diagonalization with overlap
     ethr =  1.86E-04,  avg # of iterations =  2.0

     total cpu time spent up to now is       28.7 secs

     total energy              =   -2246.25871827 Ry
     estimated scf accuracy    <       0.15144219 Ry

     iteration #  4     ecut=    80.00 Ry     beta= 0.70
     Davidson diagonalization with overlap
     ethr =  4.85E-05,  avg # of iterations = 18.0

     total cpu time spent up to now is       33.6 secs

     total energy              =   -2246.28608737 Ry
     estimated scf accuracy    <       0.02589676 Ry

     iteration #  5     ecut=    80.00 Ry     beta= 0.70
     Davidson diagonalization with overlap
     ethr =  8.30E-06,  avg # of iterations =  4.0

     total cpu time spent up to now is       37.5 secs

     total energy              =   -2246.28603128 Ry
     estimated scf accuracy    <       0.01564333 Ry

     iteration #  6     ecut=    80.00 Ry     beta= 0.70
     Davidson diagonalization with overlap
     ethr =  5.01E-06,  avg # of iterations = 14.0

     total cpu time spent up to now is       41.5 secs

     total energy              =   -2246.28513151 Ry
     estimated scf accuracy    <       0.01003460 Ry

     iteration #  7     ecut=    80.00 Ry     beta= 0.70
     Davidson diagonalization with overlap
     ethr =  3.22E-06,  avg # of iterations =  2.0

     negative rho (up, down):  5.700E-06 0.000E+00

     total cpu time spent up to now is       46.9 secs

     total energy              =   -2246.28395254 Ry
     estimated scf accuracy    <       0.00607654 Ry

     iteration #  8     ecut=    80.00 Ry     beta= 0.70
     Davidson diagonalization with overlap
     ethr =  1.95E-06,  avg # of iterations =  8.0

     negative rho (up, down):  1.064E-02 0.000E+00

     total cpu time spent up to now is       53.0 secs

     total energy              =   -2246.28347727 Ry
     estimated scf accuracy    <       0.00337736 Ry

     iteration #  9     ecut=    80.00 Ry     beta= 0.70
     Davidson diagonalization with overlap
     ethr =  1.08E-06,  avg # of iterations =  2.0

     negative rho (up, down):  2.446E-02 0.000E+00

     total cpu time spent up to now is       58.9 secs

     total energy              =   -2246.28326786 Ry
     estimated scf accuracy    <       0.00183182 Ry

     iteration # 10     ecut=    80.00 Ry     beta= 0.70
     Davidson diagonalization with overlap
     ethr =  5.87E-07,  avg # of iterations =  2.0

     negative rho (up, down):  2.363E-02 0.000E+00

     total cpu time spent up to now is       65.2 secs

     total energy              =   -2246.28328761 Ry
     estimated scf accuracy    <       0.00078378 Ry

     iteration # 11     ecut=    80.00 Ry     beta= 0.70
     Davidson diagonalization with overlap
     ethr =  2.51E-07,  avg # of iterations =  2.0

     negative rho (up, down):  1.483E-02 0.000E+00

     total cpu time spent up to now is       72.8 secs

     total energy              =   -2246.28328456 Ry
     estimated scf accuracy    <       0.00015486 Ry

     iteration # 12     ecut=    80.00 Ry     beta= 0.70
     Davidson diagonalization with overlap
     ethr =  4.96E-08,  avg # of iterations =  5.0

     negative rho (up, down):  3.477E-03 0.000E+00

     total cpu time spent up to now is       80.6 secs

     total energy              =   -2246.28332192 Ry
     estimated scf accuracy    <       0.00003384 Ry

     iteration # 13     ecut=    80.00 Ry     beta= 0.70
     Davidson diagonalization with overlap
     ethr =  1.08E-08,  avg # of iterations =  5.0

     negative rho (up, down):  8.043E-04 0.000E+00

     total cpu time spent up to now is       90.6 secs

     total energy              =   -2246.28333707 Ry
     estimated scf accuracy    <       0.00000573 Ry

     iteration # 14     ecut=    80.00 Ry     beta= 0.70
     Davidson diagonalization with overlap
     ethr =  1.84E-09,  avg # of iterations =  5.0

     negative rho (up, down):  3.178E-04 0.000E+00

     total cpu time spent up to now is      100.0 secs

     total energy              =   -2246.28333740 Ry
     estimated scf accuracy    <       0.00000119 Ry

     iteration # 15     ecut=    80.00 Ry     beta= 0.70
     Davidson diagonalization with overlap
     ethr =  3.81E-10,  avg # of iterations =  4.0

     negative rho (up, down):  2.083E-04 0.000E+00

     total cpu time spent up to now is      103.7 secs

     End of self-consistent calculation

          k = 0.0000 0.0000 0.0000 (105382 PWs)   bands (ev):

   -63.0444 -62.9646 -62.9431 -62.9346 -62.8834 -62.8749 -62.8641 -62.8500
   -62.8396 -62.8194 -62.7835 -62.7747 -37.3518 -37.2759 -37.2557 -37.2216
   -37.2068 -37.1955 -37.1772 -37.1506 -37.1426 -37.1326 -37.1279 -37.1214
   -37.1076 -37.0883 -37.0759 -37.0661 -37.0640 -37.0451 -37.0382 -37.0316
   -37.0191 -37.0026 -36.9905 -36.9864 -36.9808 -36.9711 -36.9639 -36.9551
   -36.9337 -36.9307 -36.9186 -36.9015 -36.8803 -36.8343 -36.8236 -36.7740
   -22.7889 -15.9834 -15.2573 -15.1597 -15.0287 -14.9475 -14.7577 -14.6138
   -14.5282 -14.5068 -14.4655 -14.4366 -14.4195 -14.3584 -14.2407 -14.2325
   -14.1889 -14.1618 -14.1470 -13.9583 -13.9117 -13.8920 -13.8595 -13.6755
    -8.3349  -8.0004  -7.8251  -7.5356  -7.4649  -7.3352  -7.3057  -7.2464
    -7.1995  -7.0610  -6.9325  -6.8523  -6.8115  -6.7419  -6.7109  -6.6809
    -6.5252  -6.5002  -6.4036  -6.3217  -6.1957  -6.0447  -5.9985  -5.9056
    -5.8748  -5.8452  -5.7954  -5.7527  -5.7214  -5.7035  -5.6781  -5.5660
    -5.5392  -5.5163  -5.4652  -5.3567  -5.2693  -5.1468  -5.1198  -5.0624
    -5.0279  -4.9934  -4.9136  -4.8300  -4.8208  -4.5841  -4.4701  -4.3637
    -4.3129  -4.2933  -4.1934  -4.1505  -4.0554  -4.0251  -3.8721  -3.8213
    -3.7720  -3.7156  -3.6643  -3.6086  -3.5863  -3.5789  -3.5463  -3.5236
    -3.4997  -3.4485  -3.3758  -3.2950  -3.0545  -3.0054  -2.9756  -2.8894
    -2.8363  -2.8219  -2.7424  -2.7366  -2.6901  -2.6313  -2.6085  -2.3763
    -2.1906  -2.0127  -1.9807  -1.8505  -0.9959  -0.7897  -0.7724  -0.2128
    -0.2031  -0.1476  -0.0402  -0.0076   0.0762   0.1005   0.1550   0.2058
     0.2285   0.3401   0.4035   0.4691   0.4783   0.4921   0.5442   0.5625
     0.6115   0.6653   0.6958   0.6994   0.7735   0.8166   0.8831   0.8890
     0.9766   1.0356   1.2250

     the Fermi energy is    -1.4232 ev

!    total energy              =   -2246.28333910 Ry
     estimated scf accuracy    <       0.00000046 Ry
     smearing contrib. (-TS)   =      -0.00000059 Ry
     internal energy E=F+TS    =   -2246.28333852 Ry

     The total energy is F=E-TS. E is the sum of the following terms:
     one-electron contribution =  -18462.87805520 Ry
     hartree contribution      =    9219.58720206 Ry
     xc contribution           =    -392.16263983 Ry
     ewald contribution        =    7399.02748934 Ry
     one-center paw contrib.   =      -9.85733489 Ry

     convergence has been achieved in  15 iterations

     negative rho (up, down):  2.083E-04 0.000E+00

     Forces acting on atoms (cartesian axes, Ry/au):

     atom    1 type  1   force =     0.03482955   -0.00892124    0.02815619
     atom    2 type  2   force =    -0.00839919    0.01881541   -0.00403051
     atom    3 type  2   force =    -0.01377622    0.00602857   -0.00722554
     atom    4 type  1   force =     0.00487964    0.00381950    0.00054215
     atom    5 type  2   force =     0.00089303    0.00148298   -0.00726189
     atom    6 type  2   force =     0.00140300    0.00696730   -0.00344574
     atom    7 type  1   force =     0.01035382   -0.01638230   -0.00687801
     atom    8 type  2   force =     0.00097613   -0.00394322    0.01743510
     atom    9 type  2   force =     0.01214767    0.00702190    0.01218111
     atom   10 type  1   force =    -0.01286387    0.00461709   -0.02880006
     atom   11 type  2   force =     0.00343991   -0.00031460   -0.00569688
     atom   12 type  2   force =    -0.00050045    0.00061517    0.00686965
     atom   13 type  1   force =     0.00410439    0.01216045   -0.01896088
     atom   14 type  2   force =    -0.04452890   -0.02125527   -0.07720999
     atom   15 type  2   force =    -0.01167502    0.00274634   -0.00753877
     atom   16 type  1   force =    -0.00245753    0.00948624    0.00549431
     atom   17 type  2   force =     0.00513389    0.00282789    0.00427221
     atom   18 type  2   force =    -0.00260583   -0.00131960    0.01239238
     atom   19 type  1   force =     0.00177084   -0.01777696   -0.00644710
     atom   20 type  2   force =     0.00310063   -0.00409263   -0.00060029
     atom   21 type  1   force =     0.01853589   -0.00826671   -0.05786079
     atom   22 type  2   force =    -0.01189589   -0.02161560   -0.02121158
     atom   23 type  2   force =    -0.00300160    0.00146568    0.01046357
     atom   24 type  1   force =    -0.00813775   -0.00456880   -0.01678732
     atom   25 type  2   force =     0.00636943    0.02467706   -0.00292521
     atom   26 type  2   force =    -0.01185840   -0.00298253   -0.00344896
     atom   27 type  1   force =    -0.00014742   -0.00081628    0.00634463
     atom   28 type  2   force =     0.00078386   -0.00084411   -0.00353207
     atom   29 type  2   force =     0.00173551   -0.00018657   -0.00325651
     atom   30 type  1   force =    -0.00419196    0.01074218   -0.00343267
     atom   31 type  2   force =     0.00168735    0.00157775    0.01668578
     atom   32 type  2   force =    -0.00893424    0.00787920    0.00779413
     atom   33 type  1   force =     0.01420861   -0.00168361   -0.00724091
     atom   34 type  2   force =     0.00380423   -0.04367851   -0.00885802
     atom   35 type  2   force =    -0.01025128    0.00727629    0.01274809
     atom   36 type  3   force =     0.02506816    0.02844156    0.16127040
     The non-local contrib.  to forces
     atom    1 type  1   force =     0.00232361    0.00554628   -0.01826511
     atom    2 type  2   force =    -0.01204891    0.00821467   -0.27409982
     atom    3 type  2   force =    -0.01508194   -0.00013241    0.26953545
     atom    4 type  1   force =     0.00604350    0.01163084    0.00643757
     atom    5 type  2   force =     0.00582334   -0.03372377   -0.25425904
     atom    6 type  2   force =     0.00218007    0.00823306    0.26560050
     atom    7 type  1   force =    -0.01772049    0.00687391   -0.02046417
     atom    8 type  2   force =     0.00412510   -0.00446347   -0.25627312
     atom    9 type  2   force =     0.00696214   -0.00840808    0.27876929
     atom   10 type  1   force =     0.00403798    0.00122720   -0.00066402
     atom   11 type  2   force =     0.01596124    0.00330496   -0.26339184
     atom   12 type  2   force =    -0.01161919   -0.01622006    0.26448696
     atom   13 type  1   force =     0.02224425    0.01189112    0.01300957
     atom   14 type  2   force =    -0.15446254   -0.18273290    0.18309059
     atom   15 type  2   force =    -0.01377682   -0.00278979    0.26251205
     atom   16 type  1   force =    -0.00219314    0.03476062   -0.02555644
     atom   17 type  2   force =     0.00528525   -0.03519506   -0.25184959
     atom   18 type  2   force =    -0.00316813    0.00124368    0.27112910
     atom   19 type  1   force =     0.00150890    0.01166732   -0.02143501
     atom   20 type  2   force =     0.00117393   -0.02276858    0.26739566
     atom   21 type  1   force =     0.00357077    0.04296249    0.03695587
     atom   22 type  2   force =    -0.02151784   -0.00628388   -0.24822207
     atom   23 type  2   force =     0.00280273   -0.01495256    0.26703480
     atom   24 type  1   force =     0.01389348    0.01752993   -0.00643163
     atom   25 type  2   force =    -0.01590323    0.01811269   -0.26565869
     atom   26 type  2   force =    -0.00568081   -0.01273966    0.25841622
     atom   27 type  1   force =    -0.00608002    0.00631203    0.01249299
     atom   28 type  2   force =    -0.00273136   -0.02405517   -0.27739400
     atom   29 type  2   force =     0.00594886    0.00183368    0.26379878
     atom   30 type  1   force =     0.00143886    0.02054158    0.00877261
     atom   31 type  2   force =    -0.00498214    0.00315465   -0.25294251
     atom   32 type  2   force =    -0.00169611   -0.01118389    0.27689438
     atom   33 type  1   force =    -0.00733621    0.00306313    0.00719392
     atom   34 type  2   force =    -0.00487185   -0.03763776   -0.27386147
     atom   35 type  2   force =    -0.00314033   -0.01075719    0.27137672
     atom   36 type  3   force =     1.14254057    1.25618143   -1.22248539
     The ionic contribution  to forces
     atom    1 type  1   force =     1.76897566    1.47140526    3.38474920
     atom    2 type  2   force =    -0.13969597    0.64723910   38.92708784
     atom    3 type  2   force =    -0.05736682    0.09345703  -36.77876269
     atom    4 type  1   force =     0.26306885    0.89459099   -0.28384354
     atom    5 type  2   force =    -0.61327972    2.07802135   38.46006410
     atom    6 type  2   force =     0.44946397   -0.32262668  -38.62343679
     atom    7 type  1   force =    -2.13179791   -3.58259525    1.24764783
     atom    8 type  2   force =    -0.87980585   -0.14233128   37.18950438
     atom    9 type  2   force =     0.37895700   -0.09904026  -38.48347761
     atom   10 type  1   force =    -0.46227455   -0.75835660    4.07354030
     atom   11 type  2   force =     0.63238659   -2.75200048   38.48791721
     atom   12 type  2   force =     0.62855077    0.49296901  -38.63046384
     atom   13 type  1   force =    -0.48369809    3.25233873   -1.06235024
     atom   14 type  2   force =     4.59069210    4.82441677   32.54997622
     atom   15 type  2   force =     0.31559343    0.11367614  -37.98645767
     atom   16 type  1   force =     0.15323167    4.55568276   -0.80270669
     atom   17 type  2   force =     0.59672062    2.44659331   37.50922975
     atom   18 type  2   force =    -0.21196072   -0.42547539  -39.23359633
     atom   19 type  1   force =     2.46631828   -3.56904741   -0.95880830
     atom   20 type  2   force =     0.26520795   -0.30256428  -39.04629580
     atom   21 type  1   force =     1.41291414   -1.77689577   -4.01992206
     atom   22 type  2   force =    -0.61235739   -4.67529114   36.80573390
     atom   23 type  2   force =    -0.18958566    0.39258597  -39.25144001
     atom   24 type  1   force =    -1.10905444    1.78487172    4.37915386
     atom   25 type  2   force =    -1.59191285    1.10205550   38.20314567
     atom   26 type  2   force =    -0.53721476    0.18726587  -38.23940227
     atom   27 type  1   force =    -0.31449451    0.85868479   -3.36946063
     atom   28 type  2   force =    -0.10433822    1.33900569   37.99342004
     atom   29 type  2   force =    -0.31392451   -0.29576035  -37.79038865
     atom   30 type  1   force =    -0.56318472   -1.41268425   -1.09009750
     atom   31 type  2   force =     1.01412424   -0.32295372   37.08120133
     atom   32 type  2   force =    -0.55126908   -0.08806756  -39.15778511
     atom   33 type  1   force =    -0.99441295   -1.73871769   -0.77174554
     atom   34 type  2   force =    -0.17095262   -1.87379833   39.04650718
     atom   35 type  2   force =    -0.38627489    0.33817040  -38.44804996
     atom   36 type  3   force =    -2.51734904   -2.73482394   48.68961239
     The local contribution  to forces
     atom    1 type  1   force =    -1.73649369   -1.48597728   -3.33897733
     atom    2 type  2   force =     0.14275118   -0.63620098  -38.67811153
     atom    3 type  2   force =     0.05791761   -0.08721396   36.52245053
     atom    4 type  1   force =    -0.26429023   -0.90249330    0.27710168
     atom    5 type  2   force =     0.60886127   -2.04492759  -38.23366490
     atom    6 type  2   force =    -0.45036742    0.32220736   38.37498879
     atom    7 type  1   force =     2.15982021    3.55958674   -1.23481710
     atom    8 type  2   force =     0.87673056    0.14232171  -36.93651250
     atom    9 type  2   force =    -0.37367300    0.11399417   38.23751342
     atom   10 type  1   force =     0.44529766    0.76179014   -4.10233525
     atom   11 type  2   force =    -0.64415794    2.74893354  -38.25127261
     atom   12 type  2   force =    -0.61847995   -0.47751880   38.39334296
     atom   13 type  1   force =     0.46557651   -3.25216457    1.02970548
     atom   14 type  2   force =    -4.48971486   -4.67319389  -32.80716730
     atom   15 type  2   force =    -0.31420256   -0.10833920   37.73673547
     atom   16 type  1   force =    -0.15353890   -4.58105045    0.83294846
     atom   17 type  2   force =    -0.59664809   -2.41048114  -37.27359414
     atom   18 type  2   force =     0.21252746    0.42367937   38.99533418
     atom   19 type  1   force =    -2.46608564    3.53984195    0.97304999
     atom   20 type  2   force =    -0.26333648    0.32034625   38.79905598
     atom   21 type  1   force =    -1.39796217    1.72564200    3.92444793
     atom   22 type  2   force =     0.62083286    4.65925975  -36.59940773
     atom   23 type  2   force =     0.18406645   -0.37746850   39.01528536
     atom   24 type  1   force =     1.08702570   -1.80713660   -4.39015720
     atom   25 type  2   force =     1.61270511   -1.09430937  -37.96182976
     atom   26 type  2   force =     0.53103932   -0.17821396   37.99775831
     atom   27 type  1   force =     0.32053110   -0.86584719    3.36249104
     atom   28 type  2   force =     0.10765503   -1.31765541  -37.74085392
     atom   29 type  2   force =     0.31021688    0.29434470   37.54347587
     atom   30 type  1   force =     0.55761612    1.40304547    1.07703074
     atom   31 type  2   force =    -1.00772383    0.32143238  -36.83226958
     atom   32 type  2   force =     0.54422388    0.10649152   38.90938370
     atom   33 type  1   force =     1.01603963    1.73396591    0.75667118
     atom   34 type  2   force =     0.17907539    1.86663486  -38.80283886
     atom   35 type  2   force =     0.37921477   -0.32105534   38.21010786
     atom   36 type  3   force =     1.41211309    1.52069247  -47.31810573
     The core correction contribution to forces
     atom    1 type  1   force =     0.00000000    0.00000000    0.00000000
     atom    2 type  2   force =     0.00053639   -0.00048833    0.02092904
     atom    3 type  2   force =     0.00071710   -0.00011045   -0.02084556
     atom    4 type  1   force =     0.00000000    0.00000000    0.00000000
     atom    5 type  2   force =    -0.00054795    0.00200907    0.02040980
     atom    6 type  2   force =     0.00010567   -0.00089239   -0.02102531
     atom    7 type  1   force =     0.00000000    0.00000000    0.00000000
     atom    8 type  2   force =    -0.00012043    0.00060605    0.02052124
     atom    9 type  2   force =    -0.00011259    0.00051718   -0.02110404
     atom   10 type  1   force =     0.00000000    0.00000000    0.00000000
     atom   11 type  2   force =    -0.00079800   -0.00049368    0.02087343
     atom   12 type  2   force =     0.00103016    0.00138261   -0.02089689
     atom   13 type  1   force =     0.00000000    0.00000000    0.00000000
     atom   14 type  2   force =     0.00900524    0.01025102   -0.00320501
     atom   15 type  2   force =     0.00071740    0.00017407   -0.02073672
     atom   16 type  1   force =     0.00000000    0.00000000    0.00000000
     atom   17 type  2   force =    -0.00022902    0.00184606    0.02031690
     atom   18 type  2   force =    -0.00000395   -0.00077702   -0.02091909
     atom   19 type  1   force =     0.00000000    0.00000000    0.00000000
     atom   20 type  2   force =     0.00004933    0.00094211   -0.02125652
     atom   21 type  1   force =     0.00000000    0.00000000    0.00000000
     atom   22 type  2   force =     0.00114545    0.00074792    0.02053469
     atom   23 type  2   force =    -0.00029750    0.00130989   -0.02082642
     atom   24 type  1   force =     0.00000000    0.00000000    0.00000000
     atom   25 type  2   force =     0.00150944   -0.00125717    0.02127612
     atom   26 type  2   force =     0.00002742    0.00064742   -0.02063344
     atom   27 type  1   force =     0.00000000    0.00000000    0.00000000
     atom   28 type  2   force =     0.00023381    0.00179639    0.02111531
     atom   29 type  2   force =    -0.00049492   -0.00060457   -0.02059137
     atom   30 type  1   force =     0.00000000    0.00000000    0.00000000
     atom   31 type  2   force =     0.00033038   -0.00000040    0.02051507
     atom   32 type  2   force =    -0.00017279    0.00066625   -0.02118292
     atom   33 type  1   force =     0.00000000    0.00000000    0.00000000
     atom   34 type  2   force =     0.00060056    0.00120090    0.02116872
     atom   35 type  2   force =    -0.00002593    0.00093708   -0.02111010
     atom   36 type  3   force =    -0.01220733   -0.01360310    0.01211416
     The Hubbard contrib.    to forces
     atom    1 type  1   force =     0.00000000    0.00000000    0.00000000
     atom    2 type  2   force =     0.00000000    0.00000000    0.00000000
     atom    3 type  2   force =     0.00000000    0.00000000    0.00000000
     atom    4 type  1   force =     0.00000000    0.00000000    0.00000000
     atom    5 type  2   force =     0.00000000    0.00000000    0.00000000
     atom    6 type  2   force =     0.00000000    0.00000000    0.00000000
     atom    7 type  1   force =     0.00000000    0.00000000    0.00000000
     atom    8 type  2   force =     0.00000000    0.00000000    0.00000000
     atom    9 type  2   force =     0.00000000    0.00000000    0.00000000
     atom   10 type  1   force =     0.00000000    0.00000000    0.00000000
     atom   11 type  2   force =     0.00000000    0.00000000    0.00000000
     atom   12 type  2   force =     0.00000000    0.00000000    0.00000000
     atom   13 type  1   force =     0.00000000    0.00000000    0.00000000
     atom   14 type  2   force =     0.00000000    0.00000000    0.00000000
     atom   15 type  2   force =     0.00000000    0.00000000    0.00000000
     atom   16 type  1   force =     0.00000000    0.00000000    0.00000000
     atom   17 type  2   force =     0.00000000    0.00000000    0.00000000
     atom   18 type  2   force =     0.00000000    0.00000000    0.00000000
     atom   19 type  1   force =     0.00000000    0.00000000    0.00000000
     atom   20 type  2   force =     0.00000000    0.00000000    0.00000000
     atom   21 type  1   force =     0.00000000    0.00000000    0.00000000
     atom   22 type  2   force =     0.00000000    0.00000000    0.00000000
     atom   23 type  2   force =     0.00000000    0.00000000    0.00000000
     atom   24 type  1   force =     0.00000000    0.00000000    0.00000000
     atom   25 type  2   force =     0.00000000    0.00000000    0.00000000
     atom   26 type  2   force =     0.00000000    0.00000000    0.00000000
     atom   27 type  1   force =     0.00000000    0.00000000    0.00000000
     atom   28 type  2   force =     0.00000000    0.00000000    0.00000000
     atom   29 type  2   force =     0.00000000    0.00000000    0.00000000
     atom   30 type  1   force =     0.00000000    0.00000000    0.00000000
     atom   31 type  2   force =     0.00000000    0.00000000    0.00000000
     atom   32 type  2   force =     0.00000000    0.00000000    0.00000000
     atom   33 type  1   force =     0.00000000    0.00000000    0.00000000
     atom   34 type  2   force =     0.00000000    0.00000000    0.00000000
     atom   35 type  2   force =     0.00000000    0.00000000    0.00000000
     atom   36 type  3   force =     0.00000000    0.00000000    0.00000000
     The SCF correction term to forces
     atom    1 type  1   force =     0.00002334    0.00010472    0.00063430
     atom    2 type  2   force =     0.00005749    0.00005116    0.00014882
     atom    3 type  2   force =     0.00003719    0.00002859    0.00038160
     atom    4 type  1   force =     0.00005690    0.00009119    0.00083130
     atom    5 type  2   force =     0.00003547    0.00010415    0.00017303
     atom    6 type  2   force =     0.00002008    0.00004616    0.00041193
     atom    7 type  1   force =     0.00005137   -0.00024748    0.00074030
     atom    8 type  2   force =     0.00004612   -0.00007602    0.00017996
     atom    9 type  2   force =     0.00001350   -0.00004090    0.00046491
     atom   10 type  1   force =     0.00007441   -0.00004343    0.00064378
     atom   11 type  2   force =     0.00004740   -0.00005872    0.00016180
     atom   12 type  2   force =     0.00001714    0.00000263    0.00038534
     atom   13 type  1   force =    -0.00001891    0.00009539    0.00065917
     atom   14 type  2   force =    -0.00004947    0.00000395    0.00008038
     atom   15 type  2   force =    -0.00000709    0.00002534    0.00039297
     atom   16 type  1   force =     0.00004221    0.00009352    0.00079385
     atom   17 type  2   force =     0.00000452    0.00006493    0.00015414
     atom   18 type  2   force =    -0.00000112    0.00000996    0.00042938
     atom   19 type  1   force =     0.00002866   -0.00023861    0.00073109
     atom   20 type  2   force =     0.00000527   -0.00004791    0.00048524
     atom   21 type  1   force =     0.00001253    0.00002479    0.00064234
     atom   22 type  2   force =     0.00000040   -0.00004803    0.00013448
     atom   23 type  2   force =     0.00001176   -0.00000890    0.00039471
     atom   24 type  1   force =    -0.00000313    0.00016637    0.00063253
     atom   25 type  2   force =    -0.00002967    0.00007563    0.00012633
     atom   26 type  2   force =    -0.00003019    0.00005802    0.00039708
     atom   27 type  1   force =    -0.00010462    0.00003430    0.00080610
     atom   28 type  2   force =    -0.00003603    0.00006461    0.00016536
     atom   29 type  2   force =    -0.00001143    0.00000019    0.00043373
     atom   30 type  1   force =    -0.00006284   -0.00016039    0.00084634
     atom   31 type  2   force =    -0.00006194   -0.00005493    0.00016632
     atom   32 type  2   force =    -0.00002076   -0.00002690    0.00046894
     atom   33 type  1   force =    -0.00008249    0.00000525    0.00062439
     atom   34 type  2   force =    -0.00004787   -0.00007796    0.00015128
     atom   35 type  2   force =    -0.00002552   -0.00001845    0.00040845
     atom   36 type  3   force =    -0.00002975   -0.00000508    0.00011984

     Total force =     0.227725     Total SCF correction =     0.002995

     BFGS Geometry Optimization
     Energy error            =      0.0E+00 Ry
     Gradient error          =      1.6E-01 Ry/Bohr

     number of scf cycles    =   1
     number of bfgs steps    =   0

     energy             new  =   -2246.2833391034 Ry

     new trust radius        =       0.1656667639 bohr
     new conv_thr            =       0.0000010000 Ry


ATOMIC_POSITIONS (angstrom)
Mo            6.5929794146        1.7830853129        2.8385426455
S             8.1722646783        0.8196607088        4.4324054973
S             8.1859430224        0.8144319286        1.2740598362
Mo            8.0977447594        4.4970781345        2.7181052848
S             6.5003818299        3.7231962461        4.3428178233
S             6.5540922352        3.5154244901        1.1194568214
Mo            6.4954607004        7.2097681428        2.6682448001
S             8.0822442740        6.3417843281        4.2516878183
S             8.0873459161        6.3084181435        1.0903089640
Mo            8.1538117791        9.9046236724        2.8282214275
S             6.4969879190        8.9427603330        4.3800908731
S             6.6176823736        9.0490367460        1.1435425652
Mo            3.4238316141        1.7533908857        2.7664374982
S             4.9516018099        0.8056934058        4.3096753265
S             5.0516556014        0.8477154090        1.2226691153
Mo            4.9784562130        4.5181979034        2.6357920154
S             3.4305584016        3.6730961406        4.2819703346
S             3.4365416329        3.5475303945        1.0649094453
Mo            3.4547988276        7.2069173779        2.6272652050
S             4.9848749732        6.3247665601        1.0369360692
Mo            5.0220726904        9.8972254978        2.7127823513
S             3.4646630846        8.9323127855        4.3143666270
S             3.4068407852        9.0657655881        1.1016053811
Mo            0.2917841732        1.7450918271        2.8405612430
S             1.8538327710        0.8057525422        4.3966614859
S             1.8545248419        0.8528476305        1.2075757420
Mo            1.8606133000        4.4952348020        2.6635548140
S             0.2726286496        3.6539521416        4.3357150071
S             0.2321496011        3.5271504959        1.1702946127
Mo            0.2689338621        7.2223306132        2.6998799369
S             1.9031311546        6.3136337460        4.2312738535
S             1.8575104194        6.3145133067        1.0486837586
Mo            1.8518655347        9.9392482254        2.7691145289
S             0.2979260135        9.0668841562        4.4091820056
S             0.2713466546        9.0473761632        1.1571467770
O             4.2162699448        0.0150506254        5.4288023809



     Writing config-only to output data dir ./MoS2-V-O.save/
     NEW-OLD atomic charge density approx. for the potential

     negative rho (up, down):  1.453E-04 0.000E+00

     total cpu time spent up to now is      111.0 secs

     Self-consistent Calculation

     iteration #  1     ecut=    80.00 Ry     beta= 0.70
     Davidson diagonalization with overlap
     ethr =  1.00E-06,  avg # of iterations =  9.0

     negative rho (up, down):  7.172E-04 0.000E+00

     total cpu time spent up to now is      123.4 secs

     total energy              =   -2246.32279333 Ry
     estimated scf accuracy    <       0.00556815 Ry

     iteration #  2     ecut=    80.00 Ry     beta= 0.70
     Davidson diagonalization with overlap
     ethr =  1.78E-06,  avg # of iterations =  4.0

     negative rho (up, down):  1.213E-03 0.000E+00

     total cpu time spent up to now is      136.4 secs

     total energy              =   -2246.32324791 Ry
     estimated scf accuracy    <       0.00273810 Ry

     iteration #  3     ecut=    80.00 Ry     beta= 0.70
     Davidson diagonalization with overlap
     ethr =  8.78E-07,  avg # of iterations =  2.0

     negative rho (up, down):  2.030E-03 0.000E+00

     total cpu time spent up to now is      151.2 secs

     total energy              =   -2246.32321685 Ry
     estimated scf accuracy    <       0.00051932 Ry

     iteration #  4     ecut=    80.00 Ry     beta= 0.70
     Davidson diagonalization with overlap
     ethr =  1.66E-07,  avg # of iterations =  4.0

     negative rho (up, down):  2.126E-03 0.000E+00

     total cpu time spent up to now is      161.6 secs

     total energy              =   -2246.32328924 Ry
     estimated scf accuracy    <       0.00020230 Ry

     iteration #  5     ecut=    80.00 Ry     beta= 0.70
     Davidson diagonalization with overlap
     ethr =  6.48E-08,  avg # of iterations =  2.0

     negative rho (up, down):  1.997E-03 0.000E+00

     total cpu time spent up to now is      173.0 secs

     total energy              =   -2246.32327379 Ry
     estimated scf accuracy    <       0.00008236 Ry

     iteration #  6     ecut=    80.00 Ry     beta= 0.70
     Davidson diagonalization with overlap
     ethr =  2.64E-08,  avg # of iterations =  5.0

     negative rho (up, down):  1.706E-03 0.000E+00

     total cpu time spent up to now is      184.6 secs

     total energy              =   -2246.32328793 Ry
     estimated scf accuracy    <       0.00004888 Ry

     iteration #  7     ecut=    80.00 Ry     beta= 0.70
     Davidson diagonalization with overlap
     ethr =  1.57E-08,  avg # of iterations =  3.0

     negative rho (up, down):  1.128E-03 0.000E+00

     total cpu time spent up to now is      195.3 secs

     total energy              =   -2246.32328757 Ry
     estimated scf accuracy    <       0.00000542 Ry

     iteration #  8     ecut=    80.00 Ry     beta= 0.70
     Davidson diagonalization with overlap
     ethr =  1.74E-09,  avg # of iterations =  5.0

     negative rho (up, down):  9.029E-04 0.000E+00

     total cpu time spent up to now is      205.4 secs

     total energy              =   -2246.32328807 Ry
     estimated scf accuracy    <       0.00000431 Ry

     iteration #  9     ecut=    80.00 Ry     beta= 0.70
     Davidson diagonalization with overlap
     ethr =  1.38E-09,  avg # of iterations =  2.0

     negative rho (up, down):  4.569E-04 0.000E+00

     total cpu time spent up to now is      215.6 secs

     total energy              =   -2246.32328625 Ry
     estimated scf accuracy    <       0.00000109 Ry

     iteration # 10     ecut=    80.00 Ry     beta= 0.70
     Davidson diagonalization with overlap
     ethr =  3.50E-10,  avg # of iterations =  4.0

     negative rho (up, down):  2.025E-04 0.000E+00

     total cpu time spent up to now is      219.2 secs

     End of self-consistent calculation

          k = 0.0000 0.0000 0.0000 (105382 PWs)   bands (ev):

   -63.0425 -62.9911 -62.9711 -62.9630 -62.9077 -62.8991 -62.8880 -62.8781
   -62.8682 -62.8523 -62.8323 -62.8205 -37.3542 -37.2948 -37.2745 -37.2428
   -37.2370 -37.2199 -37.2041 -37.1769 -37.1716 -37.1536 -37.1520 -37.1484
   -37.1360 -37.1168 -37.1008 -37.0980 -37.0922 -37.0736 -37.0641 -37.0602
   -37.0445 -37.0302 -37.0221 -37.0185 -37.0182 -37.0091 -37.0009 -36.9875
   -36.9748 -36.9612 -36.9555 -36.9355 -36.9237 -36.8719 -36.8575 -36.8055
   -21.9926 -16.0176 -15.2812 -15.1958 -15.0535 -14.9804 -14.7873 -14.6157
   -14.5587 -14.5206 -14.5019 -14.4692 -14.4435 -14.3888 -14.2681 -14.2507
   -14.2130 -14.1939 -14.1830 -13.9783 -13.9515 -13.9358 -13.8953 -13.7949
    -8.0707  -7.8954  -7.7312  -7.5184  -7.4964  -7.3667  -7.3424  -7.2519
    -7.2361  -7.0634  -6.9222  -6.8766  -6.8333  -6.7711  -6.7411  -6.6867
    -6.5504  -6.5243  -6.4260  -6.3472  -6.1988  -6.0614  -6.0196  -5.9295
    -5.8999  -5.8703  -5.8306  -5.7906  -5.7510  -5.7432  -5.7040  -5.5875
    -5.5737  -5.5358  -5.4810  -5.3669  -5.2710  -5.1753  -5.1447  -5.0952
    -5.0669  -5.0095  -4.9378  -4.8582  -4.8137  -4.6166  -4.4966  -4.3829
    -4.3317  -4.3231  -4.2189  -4.1723  -4.0759  -4.0460  -3.8924  -3.8553
    -3.7889  -3.7494  -3.6797  -3.6379  -3.6177  -3.6056  -3.5850  -3.5538
    -3.5217  -3.4652  -3.3945  -3.3097  -3.0715  -3.0182  -3.0008  -2.9167
    -2.8867  -2.8364  -2.7841  -2.7804  -2.7303  -2.6696  -2.6382  -2.4065
    -2.2566  -2.0610  -2.0150  -1.9212  -0.9476  -0.8274  -0.7080  -0.2482
    -0.2405  -0.1615  -0.0641  -0.0195   0.0438   0.0753   0.1451   0.1914
     0.2026   0.3199   0.3708   0.4518   0.4703   0.4748   0.5100   0.5461
     0.5883   0.6440   0.6543   0.6817   0.7393   0.8038   0.8601   0.8853
     0.9191   1.0036   1.1982

     the Fermi energy is    -1.4343 ev

!    total energy              =   -2246.32328601 Ry
     estimated scf accuracy    <       0.00000046 Ry
     smearing contrib. (-TS)   =      -0.00000003 Ry
     internal energy E=F+TS    =   -2246.32328598 Ry

     The total energy is F=E-TS. E is the sum of the following terms:
     one-electron contribution =  -18455.46299740 Ry
     hartree contribution      =    9215.62795923 Ry
     xc contribution           =    -392.12010819 Ry
     ewald contribution        =    7395.49241177 Ry
     one-center paw contrib.   =      -9.86055139 Ry

     convergence has been achieved in  10 iterations

     negative rho (up, down):  2.025E-04 0.000E+00

     Forces acting on atoms (cartesian axes, Ry/au):

     atom    1 type  1   force =     0.01369683   -0.00518571    0.01005147
     atom    2 type  2   force =    -0.00368954    0.01081899   -0.00140336
     atom    3 type  2   force =    -0.01156240    0.00573284   -0.00973230
     atom    4 type  1   force =     0.00456594    0.00335066    0.00021000
     atom    5 type  2   force =     0.00181602    0.00108587   -0.00343700
     atom    6 type  2   force =     0.00145158    0.00573866    0.00224139
     atom    7 type  1   force =     0.00713953   -0.01017187    0.00007059
     atom    8 type  2   force =     0.00195073   -0.00368913    0.01307715
     atom    9 type  2   force =     0.01169758    0.00540728    0.00732791
     atom   10 type  1   force =    -0.00399198    0.00595452   -0.00980973
     atom   11 type  2   force =     0.00133542    0.00042998   -0.01167175
     atom   12 type  2   force =     0.00432893   -0.00420917   -0.00526485
     atom   13 type  1   force =    -0.00948520    0.00928010   -0.01465415
     atom   14 type  2   force =    -0.06743421   -0.06543048    0.00165527
     atom   15 type  2   force =    -0.00230016    0.00726727   -0.00878045
     atom   16 type  1   force =     0.00100718    0.00675812    0.00280128
     atom   17 type  2   force =     0.00480229    0.00218219    0.00399165
     atom   18 type  2   force =    -0.00165496    0.00131931    0.00842540
     atom   19 type  1   force =     0.00064276   -0.01268516   -0.00270275
     atom   20 type  2   force =     0.00361683   -0.00468436   -0.00350455
     atom   21 type  1   force =    -0.00204243   -0.01174867   -0.01990258
     atom   22 type  2   force =    -0.00021003   -0.01058652   -0.02058706
     atom   23 type  2   force =    -0.00365315   -0.00197492    0.00141402
     atom   24 type  1   force =    -0.00625117   -0.00265581   -0.01109307
     atom   25 type  2   force =     0.00728745    0.01877643   -0.00610568
     atom   26 type  2   force =    -0.00832504   -0.00248974   -0.00555247
     atom   27 type  1   force =    -0.00027505    0.00008126    0.00601696
     atom   28 type  2   force =     0.00067472   -0.00191853   -0.00350318
     atom   29 type  2   force =     0.00156040    0.00136996   -0.00361883
     atom   30 type  1   force =    -0.00223488    0.00236683    0.00341678
     atom   31 type  2   force =     0.00036885    0.00009146    0.01152122
     atom   32 type  2   force =    -0.00836392    0.00579089    0.00566113
     atom   33 type  1   force =     0.00491218   -0.00078740   -0.00050069
     atom   34 type  2   force =     0.00086194   -0.03126964   -0.01345007
     atom   35 type  2   force =    -0.00676832    0.00766214    0.00661016
     atom   36 type  3   force =     0.06452529    0.06802235    0.07078213
     The non-local contrib.  to forces
     atom    1 type  1   force =     0.00278720    0.00661152   -0.01580706
     atom    2 type  2   force =    -0.00887344    0.00339214   -0.27223033
     atom    3 type  2   force =    -0.01176125   -0.00252013    0.26578048
     atom    4 type  1   force =     0.00621184    0.01245637    0.00664093
     atom    5 type  2   force =     0.00643711   -0.03475075   -0.25354315
     atom    6 type  2   force =     0.00183757    0.00801665    0.26865628
     atom    7 type  1   force =    -0.01707030    0.00638201   -0.02260988
     atom    8 type  2   force =     0.00451205   -0.00415506   -0.25891125
     atom    9 type  2   force =     0.00622477   -0.00998267    0.27589096
     atom   10 type  1   force =     0.00224175    0.00080203   -0.00129288
     atom   11 type  2   force =     0.01529448    0.00117338   -0.26838493
     atom   12 type  2   force =    -0.00766816   -0.01955763    0.25744703
     atom   13 type  1   force =     0.01858311    0.01378565    0.01112233
     atom   14 type  2   force =    -0.15113105   -0.19351663    0.25555165
     atom   15 type  2   force =    -0.00764937   -0.00327512    0.26458427
     atom   16 type  1   force =    -0.00303740    0.03513105   -0.02672187
     atom   17 type  2   force =     0.00428019   -0.03364252   -0.25269792
     atom   18 type  2   force =    -0.00254739    0.00316359    0.26890387
     atom   19 type  1   force =     0.00346376    0.01107784   -0.02185614
     atom   20 type  2   force =     0.00185832   -0.02215183    0.26529308
     atom   21 type  1   force =     0.00468239    0.03822546    0.03546291
     atom   22 type  2   force =    -0.01353881   -0.00280970   -0.25687784
     atom   23 type  2   force =     0.00518501   -0.01783961    0.26359610
     atom   24 type  1   force =     0.01193814    0.01732303   -0.00428270
     atom   25 type  2   force =    -0.01224345    0.01349329   -0.27197890
     atom   26 type  2   force =    -0.00182791   -0.01132282    0.25809900
     atom   27 type  1   force =    -0.00591059    0.00651244    0.01112860
     atom   28 type  2   force =    -0.00293699   -0.02401123   -0.27848235
     atom   29 type  2   force =     0.00591476    0.00168543    0.26460839
     atom   30 type  1   force =     0.00075458    0.02179462    0.00757568
     atom   31 type  2   force =    -0.00592693    0.00163034   -0.25767977
     atom   32 type  2   force =    -0.00155088   -0.01230775    0.27532689
     atom   33 type  1   force =    -0.00562395    0.00286870    0.00553580
     atom   34 type  2   force =    -0.00627866   -0.02786426   -0.27934598
     atom   35 type  2   force =    -0.00121764   -0.00991174    0.26849700
     atom   36 type  3   force =     1.01687968    1.14002090   -1.34049544
     The ionic contribution  to forces
     atom    1 type  1   force =     1.26509948    1.61791919    4.20368404
     atom    2 type  2   force =     0.00359211    0.42826019   39.04352944
     atom    3 type  2   force =    -0.05570602    0.14195316  -36.89877554
     atom    4 type  1   force =     0.24592801    0.84353245   -0.24553026
     atom    5 type  2   force =    -0.67312346    2.05494872   38.43421394
     atom    6 type  2   force =     0.38086831   -0.40242145  -38.54228018
     atom    7 type  1   force =    -2.24564826   -3.42121057    1.31486330
     atom    8 type  2   force =    -0.87464400   -0.10984436   37.34273671
     atom    9 type  2   force =     0.39465482   -0.15492595  -38.47426486
     atom   10 type  1   force =    -0.18344234   -0.71488474    3.83729157
     atom   11 type  2   force =     0.49918150   -2.64410930   38.45574696
     atom   12 type  2   force =     0.67270559    0.35858387  -38.68997791
     atom   13 type  1   force =    -0.49584237    3.03403015   -1.31830873
     atom   14 type  2   force =     3.93858821    4.06023269   32.10256096
     atom   15 type  2   force =     0.39125673    0.30804071  -37.93914239
     atom   16 type  1   force =     0.24063335    4.31137503   -0.60058327
     atom   17 type  2   force =     0.60883135    2.34792013   37.56682878
     atom   18 type  2   force =    -0.18425346   -0.37806812  -39.18703001
     atom   19 type  1   force =     2.46853379   -3.36941612   -0.97077918
     atom   20 type  2   force =     0.25710013   -0.31033861  -39.09933438
     atom   21 type  1   force =     1.03743990   -1.64989229   -4.74400983
     atom   22 type  2   force =    -0.37859383   -4.29914749   36.68803192
     atom   23 type  2   force =    -0.27652707    0.32426116  -39.18400238
     atom   24 type  1   force =    -0.84597311    1.64352053    4.13733979
     atom   25 type  2   force =    -1.51604061    0.97221769   38.12956370
     atom   26 type  2   force =    -0.50417240    0.17004011  -38.19061544
     atom   27 type  1   force =    -0.35745023    0.86599905   -3.12504024
     atom   28 type  2   force =    -0.07765316    1.26947812   37.99320918
     atom   29 type  2   force =    -0.29160849   -0.25323471  -37.80742369
     atom   30 type  1   force =    -0.43369444   -1.48246196   -1.03689429
     atom   31 type  2   force =     0.99806607   -0.29134197   37.17332184
     atom   32 type  2   force =    -0.55806075   -0.12173363  -39.11633515
     atom   33 type  1   force =    -0.98162523   -1.51396628   -0.47301760
     atom   34 type  2   force =    -0.19507202   -1.62831108   38.97044862
     atom   35 type  2   force =    -0.28962621    0.35544041  -38.37083331
     atom   36 type  3   force =    -1.98372189   -2.36244472   48.62080790
     The local contribution  to forces
     atom    1 type  1   force =    -1.25434551   -1.62982396   -4.17764757
     atom    2 type  2   force =     0.00101556   -0.42037003  -38.79365640
     atom    3 type  2   force =     0.05536531   -0.13376661   36.64397626
     atom    4 type  1   force =    -0.24761650   -0.85262554    0.23909065
     atom    5 type  2   force =     0.66912216   -2.02118740  -38.20446671
     atom    6 type  2   force =    -0.38130653    0.40115263   38.29684519
     atom    7 type  1   force =     2.26983259    3.40463541   -1.29231588
     atom    8 type  2   force =     0.87218032    0.10967412  -37.09134744
     atom    9 type  2   force =    -0.38915294    0.16977184   38.22669745
     atom   10 type  1   force =     0.17707871    0.72004628   -3.84595858
     atom   11 type  2   force =    -0.51224249    2.64368440  -38.22019287
     atom   12 type  2   force =    -0.66166612   -0.34459742   38.44794699
     atom   13 type  1   force =     0.46800748   -3.03844926    1.29249968
     atom   14 type  2   force =    -3.86372005   -3.94282152  -32.34950703
     atom   15 type  2   force =    -0.38646331   -0.29793067   37.68654382
     atom   16 type  1   force =    -0.23658377   -4.33968179    0.63009442
     atom   17 type  2   force =    -0.60809228   -2.31380617  -37.33052685
     atom   18 type  2   force =     0.18517665    0.37700664   38.94739867
     atom   19 type  1   force =    -2.47127094    3.34559825    0.98980604
     atom   20 type  2   force =    -0.25537427    0.32690692   38.85169991
     atom   21 type  1   force =    -1.04399543    1.59999730    4.68837011
     atom   22 type  2   force =     0.39099019    4.29049422  -36.47288295
     atom   23 type  2   force =     0.26824983   -0.30976179   38.94249255
     atom   24 type  1   force =     0.82766431   -1.66341550   -4.14418443
     atom   25 type  2   force =     1.53413930   -0.96578091  -37.88533635
     atom   26 type  2   force =     0.49786689   -0.16175784   37.94750478
     atom   27 type  1   force =     0.36313631   -0.87241441    3.11988667
     atom   28 type  2   force =     0.08099835   -1.24907964  -37.73936972
     atom   29 type  2   force =     0.28772468    0.25349328   37.55975373
     atom   30 type  1   force =     0.43065346    1.46302798    1.03263224
     atom   31 type  2   force =    -0.99207949    0.28965848  -36.92476692
     atom   32 type  2   force =     0.55150695    0.13915387   38.86772990
     atom   33 type  1   force =     0.99215202    1.51019761    0.46674002
     atom   34 type  2   force =     0.20157787    1.62401363  -38.72590951
     atom   35 type  2   force =     0.28411979   -0.33877414   38.12987579
     atom   36 type  3   force =     1.04292861    1.30350968  -47.22390932
     The core correction contribution to forces
     atom    1 type  1   force =     0.00000000    0.00000000    0.00000000
     atom    2 type  2   force =     0.00051878   -0.00042663    0.02097756
     atom    3 type  2   force =     0.00052126    0.00004882   -0.02078544
     atom    4 type  1   force =     0.00000000    0.00000000    0.00000000
     atom    5 type  2   force =    -0.00061103    0.00208047    0.02039725
     atom    6 type  2   force =     0.00006939   -0.00097977   -0.02106002
     atom    7 type  1   force =     0.00000000    0.00000000    0.00000000
     atom    8 type  2   force =    -0.00011508    0.00059760    0.02063717
     atom    9 type  2   force =    -0.00005216    0.00055003   -0.02106441
     atom   10 type  1   force =     0.00000000    0.00000000    0.00000000
     atom   11 type  2   force =    -0.00085401   -0.00032311    0.02110368
     atom   12 type  2   force =     0.00093521    0.00137778   -0.02072876
     atom   13 type  1   force =     0.00000000    0.00000000    0.00000000
     atom   14 type  2   force =     0.00913821    0.01099960   -0.00739373
     atom   15 type  2   force =     0.00055705    0.00039760   -0.02078156
     atom   16 type  1   force =     0.00000000    0.00000000    0.00000000
     atom   17 type  2   force =    -0.00018212    0.00172901    0.02038923
     atom   18 type  2   force =    -0.00002102   -0.00077972   -0.02089673
     atom   19 type  1   force =     0.00000000    0.00000000    0.00000000
     atom   20 type  2   force =     0.00002980    0.00091919   -0.02121128
     atom   21 type  1   force =     0.00000000    0.00000000    0.00000000
     atom   22 type  2   force =     0.00091897    0.00064887    0.02094884
     atom   23 type  2   force =    -0.00050462    0.00135275   -0.02073299
     atom   24 type  1   force =     0.00000000    0.00000000    0.00000000
     atom   25 type  2   force =     0.00134758   -0.00103752    0.02156162
     atom   26 type  2   force =    -0.00016106    0.00056573   -0.02062041
     atom   27 type  1   force =     0.00000000    0.00000000    0.00000000
     atom   28 type  2   force =     0.00023883    0.00173049    0.02117855
     atom   29 type  2   force =    -0.00048657   -0.00055789   -0.02063119
     atom   30 type  1   force =     0.00000000    0.00000000    0.00000000
     atom   31 type  2   force =     0.00033792    0.00010855    0.02067803
     atom   32 type  2   force =    -0.00022049    0.00068636   -0.02113858
     atom   33 type  1   force =     0.00000000    0.00000000    0.00000000
     atom   34 type  2   force =     0.00059355    0.00085864    0.02137847
     atom   35 type  2   force =    -0.00006507    0.00090904   -0.02102159
     atom   36 type  3   force =    -0.01116103   -0.01263568    0.01393735
     The Hubbard contrib.    to forces
     atom    1 type  1   force =     0.00000000    0.00000000    0.00000000
     atom    2 type  2   force =     0.00000000    0.00000000    0.00000000
     atom    3 type  2   force =     0.00000000    0.00000000    0.00000000
     atom    4 type  1   force =     0.00000000    0.00000000    0.00000000
     atom    5 type  2   force =     0.00000000    0.00000000    0.00000000
     atom    6 type  2   force =     0.00000000    0.00000000    0.00000000
     atom    7 type  1   force =     0.00000000    0.00000000    0.00000000
     atom    8 type  2   force =     0.00000000    0.00000000    0.00000000
     atom    9 type  2   force =     0.00000000    0.00000000    0.00000000
     atom   10 type  1   force =     0.00000000    0.00000000    0.00000000
     atom   11 type  2   force =     0.00000000    0.00000000    0.00000000
     atom   12 type  2   force =     0.00000000    0.00000000    0.00000000
     atom   13 type  1   force =     0.00000000    0.00000000    0.00000000
     atom   14 type  2   force =     0.00000000    0.00000000    0.00000000
     atom   15 type  2   force =     0.00000000    0.00000000    0.00000000
     atom   16 type  1   force =     0.00000000    0.00000000    0.00000000
     atom   17 type  2   force =     0.00000000    0.00000000    0.00000000
     atom   18 type  2   force =     0.00000000    0.00000000    0.00000000
     atom   19 type  1   force =     0.00000000    0.00000000    0.00000000
     atom   20 type  2   force =     0.00000000    0.00000000    0.00000000
     atom   21 type  1   force =     0.00000000    0.00000000    0.00000000
     atom   22 type  2   force =     0.00000000    0.00000000    0.00000000
     atom   23 type  2   force =     0.00000000    0.00000000    0.00000000
     atom   24 type  1   force =     0.00000000    0.00000000    0.00000000
     atom   25 type  2   force =     0.00000000    0.00000000    0.00000000
     atom   26 type  2   force =     0.00000000    0.00000000    0.00000000
     atom   27 type  1   force =     0.00000000    0.00000000    0.00000000
     atom   28 type  2   force =     0.00000000    0.00000000    0.00000000
     atom   29 type  2   force =     0.00000000    0.00000000    0.00000000
     atom   30 type  1   force =     0.00000000    0.00000000    0.00000000
     atom   31 type  2   force =     0.00000000    0.00000000    0.00000000
     atom   32 type  2   force =     0.00000000    0.00000000    0.00000000
     atom   33 type  1   force =     0.00000000    0.00000000    0.00000000
     atom   34 type  2   force =     0.00000000    0.00000000    0.00000000
     atom   35 type  2   force =     0.00000000    0.00000000    0.00000000
     atom   36 type  3   force =     0.00000000    0.00000000    0.00000000
     The SCF correction term to forces
     atom    1 type  1   force =     0.00016043    0.00011164   -0.00017880
     atom    2 type  2   force =     0.00006222   -0.00003259   -0.00002449
     atom    3 type  2   force =     0.00002307    0.00002169    0.00007109
     atom    4 type  1   force =     0.00004736   -0.00000854    0.00000782
     atom    5 type  2   force =    -0.00000399   -0.00000108   -0.00003918
     atom    6 type  2   force =    -0.00001239   -0.00002530    0.00007927
     atom    7 type  1   force =     0.00003028    0.00002537    0.00013220
     atom    8 type  2   force =     0.00002222    0.00004266   -0.00003889
     atom    9 type  2   force =     0.00002786   -0.00000187    0.00006792
     atom   10 type  1   force =     0.00013466   -0.00000495    0.00014931
     atom   11 type  2   force =    -0.00003928    0.00000870    0.00005456
     atom   12 type  2   force =     0.00002718   -0.00001168    0.00004695
     atom   13 type  1   force =    -0.00022865   -0.00008234    0.00003171
     atom   14 type  2   force =    -0.00030475   -0.00032052    0.00044258
     atom   15 type  2   force =     0.00000353    0.00003885    0.00001455
     atom   16 type  1   force =    -0.00000023   -0.00006208    0.00001116
     atom   17 type  2   force =    -0.00003006   -0.00001417   -0.00000244
     atom   18 type  2   force =    -0.00000498    0.00000103    0.00004875
     atom   19 type  1   force =    -0.00007907    0.00005896    0.00012568
     atom   20 type  2   force =     0.00000761   -0.00001594    0.00004727
     atom   21 type  1   force =    -0.00016452   -0.00007505    0.00027339
     atom   22 type  2   force =     0.00001823    0.00023168    0.00019212
     atom   23 type  2   force =    -0.00005153    0.00001666    0.00005989
     atom   24 type  1   force =     0.00012428   -0.00007978    0.00003342
     atom   25 type  2   force =     0.00008941   -0.00011202    0.00008340
     atom   26 type  2   force =    -0.00002579   -0.00001082    0.00007875
     atom   27 type  1   force =    -0.00004576   -0.00001172    0.00004107
     atom   28 type  2   force =     0.00003247   -0.00003219   -0.00003969
     atom   29 type  2   force =     0.00002080   -0.00001206    0.00007307
     atom   30 type  1   force =     0.00005629    0.00001029    0.00010230
     atom   31 type  2   force =    -0.00002395    0.00004017   -0.00003282
     atom   32 type  2   force =    -0.00003397   -0.00000386    0.00007722
     atom   33 type  1   force =     0.00001412    0.00011667    0.00024024
     atom   34 type  2   force =     0.00004598    0.00003753   -0.00002252
     atom   35 type  2   force =     0.00002559    0.00000267    0.00009142
     atom   36 type  3   force =    -0.00039530   -0.00042374    0.00044079

     Total force =     0.169598     Total SCF correction =     0.001254
     Energy error            =      4.0E-02 Ry
     Gradient error          =      7.1E-02 Ry/Bohr

     number of scf cycles    =   2
     number of bfgs steps    =   1

     energy             old  =   -2246.2833391034 Ry
     energy             new  =   -2246.3232860116 Ry

     CASE: energy            _new < energy            _old

     new trust radius        =       0.1822334403 bohr
     new conv_thr            =       0.0000000708 Ry


ATOMIC_POSITIONS (angstrom)
Mo            6.6092286107        1.7781162395        2.8511872580
S             8.1681602006        0.8300840155        4.4306125147
S             8.1765596151        0.8188619799        1.2673736593
Mo            8.1012947661        4.4997494468        2.7183566739
S             6.5015031982        3.7241299513        4.3391502616
S             6.5551797038        3.5201176888        1.1195795263
Mo            6.5017670744        7.2003309620        2.6663712214
S             8.0834535000        6.3389158599        4.2628147263
S             8.0963426980        6.3129670562        1.0972127515
Mo            8.1483235647        9.9087689191        2.8155145475
S             6.4985844176        8.9428799472        4.3728955728
S             6.6196262480        9.0471823041        1.1429148431
Mo            3.4204065494        1.7612281515        2.7541287336
S             4.9068093066        0.7683195893        4.2890583525
S             5.0473110490        0.8519733941        1.2163540050
Mo            4.9782592035        4.5240801679        2.6386635126
S             3.4342926352        3.6749302859        4.2850755850
S             3.4350227259        3.5477991460        1.0723998317
Mo            3.4555991826        7.1958842483        2.6241768710
S             4.9874749708        6.3213778471        1.0350835304
Mo            5.0262307916        9.8892804784        2.6871600849
S             3.4612628464        8.9212247155        4.2985793040
S             3.4042507748        9.0652219345        1.1051876280
Mo            0.2865197923        1.7425469972        2.8305685412
S             1.8591052881        0.8216298731        4.3929127432
S             1.8472308328        0.8508226331        1.2039478932
Mo            1.8604400898        4.4950475067        2.6682092133
S             0.2731706527        3.6527950223        4.3330500322
S             0.2333816399        3.5277578434        1.1676504194
Mo            0.2666960576        7.2264485327        2.7005717541
S             1.9037765763        6.3141153225        4.2414443776
S             1.8510086902        6.3194845403        1.0535689700
Mo            1.8581694064        9.9384024739        2.7668654594
S             0.2993957593        9.0397264413        4.4002544423
S             0.2652473073        9.0530804545        1.1638624943
O             4.2542657307        0.0556644407        5.5075825363



     Writing config-only to output data dir ./MoS2-V-O.save/
     NEW-OLD atomic charge density approx. for the potential

     negative rho (up, down):  1.514E-04 0.000E+00

     total cpu time spent up to now is      226.5 secs

     Self-consistent Calculation

     iteration #  1     ecut=    80.00 Ry     beta= 0.70
     Davidson diagonalization with overlap
     ethr =  1.00E-06,  avg # of iterations =  9.0

     negative rho (up, down):  3.677E-04 0.000E+00

     total cpu time spent up to now is      239.5 secs

     total energy              =   -2246.35477201 Ry
     estimated scf accuracy    <       0.00757914 Ry

     iteration #  2     ecut=    80.00 Ry     beta= 0.70
     Davidson diagonalization with overlap
     ethr =  2.43E-06,  avg # of iterations =  9.0

     negative rho (up, down):  5.919E-04 0.000E+00

     total cpu time spent up to now is      254.4 secs

     total energy              =   -2246.35660805 Ry
     estimated scf accuracy    <       0.00482536 Ry

     iteration #  3     ecut=    80.00 Ry     beta= 0.70
     Davidson diagonalization with overlap
     ethr =  1.55E-06,  avg # of iterations =  2.0

     negative rho (up, down):  1.041E-03 0.000E+00

     total cpu time spent up to now is      267.5 secs

     total energy              =   -2246.35655594 Ry
     estimated scf accuracy    <       0.00082827 Ry

     iteration #  4     ecut=    80.00 Ry     beta= 0.70
     Davidson diagonalization with overlap
     ethr =  2.65E-07,  avg # of iterations =  5.0

     negative rho (up, down):  1.111E-03 0.000E+00

     total cpu time spent up to now is      279.6 secs

     total energy              =   -2246.35673713 Ry
     estimated scf accuracy    <       0.00028632 Ry

     iteration #  5     ecut=    80.00 Ry     beta= 0.70
     Davidson diagonalization with overlap
     ethr =  9.18E-08,  avg # of iterations =  2.0

     negative rho (up, down):  1.114E-03 0.000E+00

     total cpu time spent up to now is      290.0 secs

     total energy              =   -2246.35672744 Ry
     estimated scf accuracy    <       0.00009417 Ry

     iteration #  6     ecut=    80.00 Ry     beta= 0.70
     Davidson diagonalization with overlap
     ethr =  3.02E-08,  avg # of iterations =  4.0

     negative rho (up, down):  1.019E-03 0.000E+00

     total cpu time spent up to now is      302.3 secs

     total energy              =   -2246.35674219 Ry
     estimated scf accuracy    <       0.00000793 Ry

     iteration #  7     ecut=    80.00 Ry     beta= 0.70
     Davidson diagonalization with overlap
     ethr =  2.54E-09,  avg # of iterations =  4.0

     negative rho (up, down):  7.845E-04 0.000E+00

     total cpu time spent up to now is      312.8 secs

     total energy              =   -2246.35674289 Ry
     estimated scf accuracy    <       0.00000306 Ry

     iteration #  8     ecut=    80.00 Ry     beta= 0.70
     Davidson diagonalization with overlap
     ethr =  9.80E-10,  avg # of iterations =  2.0

     negative rho (up, down):  6.309E-04 0.000E+00

     total cpu time spent up to now is      322.3 secs

     total energy              =   -2246.35674246 Ry
     estimated scf accuracy    <       0.00000187 Ry

     iteration #  9     ecut=    80.00 Ry     beta= 0.70
     Davidson diagonalization with overlap
     ethr =  6.00E-10,  avg # of iterations =  2.0

     negative rho (up, down):  3.988E-04 0.000E+00

     total cpu time spent up to now is      331.5 secs

     total energy              =   -2246.35674197 Ry
     estimated scf accuracy    <       0.00000044 Ry

     iteration # 10     ecut=    80.00 Ry     beta= 0.70
     Davidson diagonalization with overlap
     ethr =  1.41E-10,  avg # of iterations =  7.0

     negative rho (up, down):  3.671E-04 0.000E+00

     total cpu time spent up to now is      343.5 secs

     total energy              =   -2246.35674201 Ry
     estimated scf accuracy    <       0.00000013 Ry

     iteration # 11     ecut=    80.00 Ry     beta= 0.70
     Davidson diagonalization with overlap
     ethr =  4.30E-11,  avg # of iterations =  2.0

     negative rho (up, down):  1.976E-04 0.000E+00

     total cpu time spent up to now is      346.9 secs

     End of self-consistent calculation

          k = 0.0000 0.0000 0.0000 (105382 PWs)   bands (ev):

   -63.0293 -63.0036 -62.9886 -62.9809 -62.9237 -62.9130 -62.9033 -62.8992
   -62.8835 -62.8787 -62.8611 -62.8442 -37.3523 -37.2976 -37.2864 -37.2570
   -37.2457 -37.2318 -37.2173 -37.1904 -37.1873 -37.1672 -37.1650 -37.1613
   -37.1524 -37.1351 -37.1192 -37.1147 -37.1079 -37.0916 -37.0829 -37.0783
   -37.0622 -37.0509 -37.0473 -37.0424 -37.0361 -37.0284 -37.0199 -37.0110
   -36.9992 -36.9858 -36.9772 -36.9536 -36.9448 -36.8951 -36.8758 -36.8298
   -21.9095 -16.0414 -15.2982 -15.2151 -15.0708 -14.9976 -14.8087 -14.6153
   -14.5777 -14.5262 -14.5250 -14.4995 -14.4434 -14.4098 -14.2919 -14.2485
   -14.2260 -14.2188 -14.2006 -13.9982 -13.9789 -13.9585 -13.9059 -13.8248
    -7.9814  -7.8750  -7.7323  -7.5331  -7.4964  -7.3856  -7.3716  -7.2804
    -7.2401  -7.0894  -6.9304  -6.8970  -6.8285  -6.7910  -6.7664  -6.6971
    -6.5673  -6.5431  -6.4435  -6.3637  -6.2102  -6.0796  -6.0281  -5.9470
    -5.9101  -5.8911  -5.8565  -5.8129  -5.7812  -5.7601  -5.7207  -5.6008
    -5.5921  -5.5480  -5.4930  -5.3705  -5.2684  -5.2025  -5.1662  -5.1196
    -5.0906  -5.0188  -4.9518  -4.8870  -4.8143  -4.6324  -4.5229  -4.4012
    -4.3535  -4.3347  -4.2414  -4.2032  -4.1009  -4.0692  -3.9132  -3.8927
    -3.8015  -3.7757  -3.6887  -3.6701  -3.6375  -3.6251  -3.6048  -3.5733
    -3.5347  -3.4755  -3.4078  -3.3158  -3.1082  -3.0345  -3.0294  -2.9287
    -2.9185  -2.8432  -2.8245  -2.8076  -2.7527  -2.6915  -2.6543  -2.4542
    -2.3218  -2.0924  -2.0483  -1.9671  -0.9155  -0.8593  -0.5783  -0.2772
    -0.2641  -0.1596  -0.0803  -0.0209   0.0204   0.0529   0.1323   0.1883
     0.2089   0.3109   0.3470   0.4404   0.4583   0.4665   0.4940   0.5444
     0.5752   0.6090   0.6516   0.6761   0.7317   0.8075   0.8438   0.8542
     0.9132   0.9841   1.1724

     the Fermi energy is    -1.4415 ev

!    total energy              =   -2246.35674200 Ry
     estimated scf accuracy    <       0.00000004 Ry
     smearing contrib. (-TS)   =      -0.00000000 Ry
     internal energy E=F+TS    =   -2246.35674199 Ry

     The total energy is F=E-TS. E is the sum of the following terms:
     one-electron contribution =  -18447.67970680 Ry
     hartree contribution      =    9211.55343560 Ry
     xc contribution           =    -392.12964847 Ry
     ewald contribution        =    7391.75956713 Ry
     one-center paw contrib.   =      -9.86038944 Ry

     convergence has been achieved in  11 iterations

     negative rho (up, down):  1.976E-04 0.000E+00

     Forces acting on atoms (cartesian axes, Ry/au):

     atom    1 type  1   force =    -0.01321444   -0.00485718   -0.00138681
     atom    2 type  2   force =     0.00005522    0.00324978    0.00193671
     atom    3 type  2   force =    -0.00914490    0.00530281   -0.01050693
     atom    4 type  1   force =     0.00435205    0.00257571    0.00022090
     atom    5 type  2   force =     0.00231955   -0.00033764   -0.00005735
     atom    6 type  2   force =     0.00170315    0.00431563    0.00663296
     atom    7 type  1   force =     0.00375661   -0.00417469    0.00366210
     atom    8 type  2   force =     0.00248018   -0.00368640    0.00886700
     atom    9 type  2   force =     0.01032098    0.00341957    0.00278659
     atom   10 type  1   force =     0.00246503    0.00723931    0.00462077
     atom   11 type  2   force =    -0.00009437    0.00071559   -0.01486934
     atom   12 type  2   force =     0.00811866   -0.00830545   -0.01346116
     atom   13 type  1   force =    -0.01694397    0.00421766   -0.00748395
     atom   14 type  2   force =    -0.04189742   -0.05879074    0.02141489
     atom   15 type  2   force =     0.00416722    0.00899831   -0.00625003
     atom   16 type  1   force =     0.00381564    0.00337789    0.00145526
     atom   17 type  2   force =     0.00443004    0.00123053    0.00295658
     atom   18 type  2   force =    -0.00088460    0.00480350    0.00333322
     atom   19 type  1   force =    -0.00002785   -0.00684822   -0.00065560
     atom   20 type  2   force =     0.00405627   -0.00444442   -0.00509907
     atom   21 type  1   force =    -0.01653794   -0.01325630    0.00594341
     atom   22 type  2   force =     0.00734115   -0.00471643   -0.01574408
     atom   23 type  2   force =    -0.00489188   -0.00548365   -0.00656934
     atom   24 type  1   force =    -0.00397617   -0.00075805   -0.00566660
     atom   25 type  2   force =     0.00505079    0.01247247   -0.00743065
     atom   26 type  2   force =    -0.00539270   -0.00217349   -0.00783798
     atom   27 type  1   force =    -0.00046435    0.00110616    0.00497615
     atom   28 type  2   force =     0.00035464   -0.00287099   -0.00325714
     atom   29 type  2   force =     0.00150657    0.00290844   -0.00353900
     atom   30 type  1   force =    -0.00025574   -0.00474693    0.00694710
     atom   31 type  2   force =    -0.00050366   -0.00183357    0.00674503
     atom   32 type  2   force =    -0.00720927    0.00322339    0.00385553
     atom   33 type  1   force =    -0.00318246    0.00009013    0.00250628
     atom   34 type  2   force =    -0.00142932   -0.01720918   -0.01393935
     atom   35 type  2   force =    -0.00283003    0.00685959    0.00170094
     atom   36 type  3   force =     0.06258733    0.06838686    0.03319299
     The non-local contrib.  to forces
     atom    1 type  1   force =     0.00411671    0.00921713   -0.01314113
     atom    2 type  2   force =    -0.00556211   -0.00213359   -0.26887647
     atom    3 type  2   force =    -0.00836785   -0.00447662    0.26282206
     atom    4 type  1   force =     0.00614588    0.01287805    0.00680658
     atom    5 type  2   force =     0.00651375   -0.03567785   -0.25259095
     atom    6 type  2   force =     0.00184262    0.00740013    0.27095014
     atom    7 type  1   force =    -0.01608767    0.00521903   -0.02434345
     atom    8 type  2   force =     0.00470473   -0.00387794   -0.26120828
     atom    9 type  2   force =     0.00453292   -0.01179278    0.27270790
     atom   10 type  1   force =     0.00081286    0.00076506   -0.00125967
     atom   11 type  2   force =     0.01426241   -0.00059076   -0.27091684
     atom   12 type  2   force =    -0.00386712   -0.02264472    0.25219016
     atom   13 type  1   force =     0.01648616    0.01472522    0.01122130
     atom   14 type  2   force =    -0.12068564   -0.16400298    0.28525330
     atom   15 type  2   force =    -0.00442610   -0.00604329    0.26829878
     atom   16 type  1   force =    -0.00368538    0.03475546   -0.02814530
     atom   17 type  2   force =     0.00298501   -0.03198312   -0.25310758
[...]
     atom   28 type  2   force =    -0.00005771   -0.01426045   -0.27955924
     atom   29 type  2   force =     0.00012193   -0.00985583    0.26989385
     atom   30 type  1   force =     0.00034587    0.02054972    0.00499602
     atom   31 type  2   force =    -0.00501535   -0.00036847   -0.26684759
     atom   32 type  2   force =     0.00539018   -0.01272099    0.26957693
     atom   33 type  1   force =    -0.00194811    0.00699202    0.00272276
     atom   34 type  2   force =    -0.00001677   -0.00625354   -0.27512531
     atom   35 type  2   force =     0.00075947   -0.01289526    0.26710414
     atom   36 type  3   force =     0.01277130    0.04780365   -2.32316236
     The ionic contribution  to forces
     atom    1 type  1   force =     0.73935506    1.33049405   -1.34444917
     atom    2 type  2   force =     0.83475032    0.00279117   38.18415782
     atom    3 type  2   force =     0.10149665   -0.06933654  -38.26934900
     atom    4 type  1   force =     0.24981428    0.82337520   -0.21863648
     atom    5 type  2   force =    -0.38126428    2.15239358   37.84188468
     atom    6 type  2   force =     0.19148159   -0.19197198  -38.74097131
     atom    7 type  1   force =    -2.57174335   -2.41753607    1.89464259
     atom    8 type  2   force =    -1.02569821    0.15924329   38.11556569
     atom    9 type  2   force =     0.35762944   -0.03056027  -38.37156206
     atom   10 type  1   force =     0.15474951   -0.96559122    1.34239738
     atom   11 type  2   force =     0.09567058   -2.39862527   37.94125831
     atom   12 type  2   force =     0.27586446    0.20726356  -38.70655140
     atom   13 type  1   force =    -0.74539198    1.31656356   -1.54661052
     atom   14 type  2   force =     0.02994674    0.03076226   28.35479212
     atom   15 type  2   force =     0.01839650   -0.09851386  -38.12830705
     atom   16 type  1   force =    -0.01746083    4.23287096    0.90755148
     atom   17 type  2   force =     0.37373221    2.14302943   37.79421962
     atom   18 type  2   force =    -0.16596967   -0.18077262  -38.77033631
     atom   19 type  1   force =     2.54342607   -2.39593141    1.43542560
     atom   20 type  2   force =     0.01570504   -0.04366550  -38.94250935
     atom   21 type  1   force =    -0.00575264   -1.39027619   -3.08772358
     atom   22 type  2   force =    -0.11212230   -2.40937675   37.85375681
     atom   23 type  2   force =    -0.27230640    0.21363862  -38.75848216
     atom   24 type  1   force =    -0.00828130    0.82572871    1.25488487
     atom   25 type  2   force =    -0.81733597    0.00809361   38.17516228
     atom   26 type  2   force =    -0.11866596   -0.05807588  -38.35332321
     atom   27 type  1   force =    -0.26473110    0.85061704   -0.40924579
     atom   28 type  2   force =     0.01202074    0.80558985   37.89412628
     atom   29 type  2   force =    -0.01682142   -0.00478431  -37.98109163
     atom   30 type  1   force =     0.01824980   -0.79976549    0.96591153
     atom   31 type  2   force =     1.05771030    0.16063145   38.06491900
     atom   32 type  2   force =    -0.37401388   -0.03473659  -38.44353626
     atom   33 type  1   force =    -0.13591302   -0.99464457    1.12610743
     atom   34 type  2   force =     0.01074829   -0.77755006   38.52137860
     atom   35 type  2   force =    -0.01115307    0.04905544  -38.00504405
     atom   36 type  3   force =    -0.03612218   -0.05042720   50.40958723
     The local contribution  to forces
     atom    1 type  1   force =    -0.73188760   -1.34584930    1.33148176
     atom    2 type  2   force =    -0.83357784    0.00212058  -37.93219601
     atom    3 type  2   force =    -0.09913906    0.07955651   38.02559145
     atom    4 type  1   force =    -0.25588542   -0.83087150    0.21310689
     atom    5 type  2   force =     0.37825703   -2.13094546  -37.60463275
     atom    6 type  2   force =    -0.19218578    0.19443162   38.49677921
     atom    7 type  1   force =     2.58082915    2.41771389   -1.87126693
     atom    8 type  2   force =     1.02157253   -0.15918547  -37.86912871
     atom    9 type  2   force =    -0.35203590    0.04287629   38.12404111
     atom   10 type  1   force =    -0.15563309    0.95971913   -1.34396207
     atom   11 type  2   force =    -0.10222371    2.39934558  -37.69825870
     atom   12 type  2   force =    -0.26751235   -0.19382778   38.46332475
     atom   13 type  1   force =     0.73622445   -1.33076096    1.53358777
     atom   14 type  2   force =    -0.02935122   -0.01917994  -28.64163193
     atom   15 type  2   force =    -0.01812673    0.10939685   37.87542394
     atom   16 type  1   force =     0.01836563   -4.26279955   -0.87397586
     atom   17 type  2   force =    -0.37086079   -2.12154040  -37.55672771
     atom   18 type  2   force =     0.16695605    0.18347943   38.52616804
     atom   19 type  1   force =    -2.55369268    2.39486808   -1.41197604
     atom   20 type  2   force =    -0.01536655    0.05665289   38.69843662
     atom   21 type  1   force =     0.00493585    1.35337175    3.07155698
     atom   22 type  2   force =     0.11839499    2.40989318  -37.61065433
     atom   23 type  2   force =     0.26395264   -0.20054256   38.51565106
     atom   24 type  1   force =     0.00803124   -0.84254574   -1.26338805
     atom   25 type  2   force =     0.81713371   -0.00307288  -37.92387450
     atom   26 type  2   force =     0.11617205    0.06825898   38.11056783
     atom   27 type  1   force =     0.27101587   -0.85716532    0.40345984
     atom   28 type  2   force =    -0.01164655   -0.79219746  -37.63648295
     atom   29 type  2   force =     0.01662389    0.01443986   37.73125452
     atom   30 type  1   force =    -0.01887212    0.77907983   -0.96964593
     atom   31 type  2   force =    -1.05331281   -0.16020146  -37.81857216
     atom   32 type  2   force =     0.36773712    0.04706808   38.19625243
     atom   33 type  1   force =     0.13746772    0.98776387   -1.12857887
     atom   34 type  2   force =    -0.01033909    0.78398546  -38.26668055
     atom   35 type  2   force =     0.01095794   -0.03652349   37.75920906
     atom   36 type  3   force =     0.02394803    0.00328439  -48.11290452
     The core correction contribution to forces
     atom    1 type  1   force =     0.00000000    0.00000000    0.00000000
     atom    2 type  2   force =    -0.00003989    0.00009188    0.02132778
     atom    3 type  2   force =     0.00012604    0.00041139   -0.02074958
     atom    4 type  1   force =     0.00000000    0.00000000    0.00000000
     atom    5 type  2   force =    -0.00039307    0.00097821    0.02068120
     atom    6 type  2   force =     0.00009828   -0.00020070   -0.02081983
     atom    7 type  1   force =     0.00000000    0.00000000    0.00000000
     atom    8 type  2   force =    -0.00015757    0.00031741    0.02099004
     atom    9 type  2   force =     0.00055206    0.00069103   -0.02100160
     atom   10 type  1   force =     0.00000000    0.00000000    0.00000000
     atom   11 type  2   force =    -0.00015521   -0.00012827    0.02103970
     atom   12 type  2   force =     0.00075894    0.00095435   -0.02084688
     atom   13 type  1   force =     0.00000000    0.00000000    0.00000000
     atom   14 type  2   force =     0.00007476    0.00036208   -0.00998764
     atom   15 type  2   force =     0.00003516    0.00055604   -0.02112696
     atom   16 type  1   force =     0.00000000    0.00000000    0.00000000
     atom   17 type  2   force =     0.00035972    0.00098300    0.02068728
     atom   18 type  2   force =    -0.00008683   -0.00023018   -0.02082361
     atom   19 type  1   force =     0.00000000    0.00000000    0.00000000
     atom   20 type  2   force =     0.00007044    0.00058060   -0.02125583
     atom   21 type  1   force =     0.00000000    0.00000000    0.00000000
     atom   22 type  2   force =     0.00008341   -0.00016104    0.02103556
     atom   23 type  2   force =    -0.00075579    0.00102116   -0.02084169
     atom   24 type  1   force =     0.00000000    0.00000000    0.00000000
     atom   25 type  2   force =     0.00001897    0.00008624    0.02135636
     atom   26 type  2   force =    -0.00014992    0.00041990   -0.02078873
     atom   27 type  1   force =     0.00000000    0.00000000    0.00000000
     atom   28 type  2   force =     0.00001720    0.00087526    0.02136012
     atom   29 type  2   force =    -0.00001557    0.00026327   -0.02086187
     atom   30 type  1   force =     0.00000000    0.00000000    0.00000000
     atom   31 type  2   force =     0.00026152    0.00028986    0.02098911
     atom   32 type  2   force =    -0.00056696    0.00064954   -0.02101090
     atom   33 type  1   force =     0.00000000    0.00000000    0.00000000
     atom   34 type  2   force =     0.00001031    0.00021272    0.02127399
     atom   35 type  2   force =    -0.00004738    0.00076335   -0.02091827
     atom   36 type  3   force =    -0.00013869   -0.00052616    0.02465395
     The Hubbard contrib.    to forces
     atom    1 type  1   force =     0.00000000    0.00000000    0.00000000
     atom    2 type  2   force =     0.00000000    0.00000000    0.00000000
     atom    3 type  2   force =     0.00000000    0.00000000    0.00000000
     atom    4 type  1   force =     0.00000000    0.00000000    0.00000000
     atom    5 type  2   force =     0.00000000    0.00000000    0.00000000
     atom    6 type  2   force =     0.00000000    0.00000000    0.00000000
     atom    7 type  1   force =     0.00000000    0.00000000    0.00000000
     atom    8 type  2   force =     0.00000000    0.00000000    0.00000000
     atom    9 type  2   force =     0.00000000    0.00000000    0.00000000
     atom   10 type  1   force =     0.00000000    0.00000000    0.00000000
     atom   11 type  2   force =     0.00000000    0.00000000    0.00000000
     atom   12 type  2   force =     0.00000000    0.00000000    0.00000000
     atom   13 type  1   force =     0.00000000    0.00000000    0.00000000
     atom   14 type  2   force =     0.00000000    0.00000000    0.00000000
     atom   15 type  2   force =     0.00000000    0.00000000    0.00000000
     atom   16 type  1   force =     0.00000000    0.00000000    0.00000000
     atom   17 type  2   force =     0.00000000    0.00000000    0.00000000
     atom   18 type  2   force =     0.00000000    0.00000000    0.00000000
     atom   19 type  1   force =     0.00000000    0.00000000    0.00000000
     atom   20 type  2   force =     0.00000000    0.00000000    0.00000000
     atom   21 type  1   force =     0.00000000    0.00000000    0.00000000
     atom   22 type  2   force =     0.00000000    0.00000000    0.00000000
     atom   23 type  2   force =     0.00000000    0.00000000    0.00000000
     atom   24 type  1   force =     0.00000000    0.00000000    0.00000000
     atom   25 type  2   force =     0.00000000    0.00000000    0.00000000
     atom   26 type  2   force =     0.00000000    0.00000000    0.00000000
     atom   27 type  1   force =     0.00000000    0.00000000    0.00000000
     atom   28 type  2   force =     0.00000000    0.00000000    0.00000000
     atom   29 type  2   force =     0.00000000    0.00000000    0.00000000
     atom   30 type  1   force =     0.00000000    0.00000000    0.00000000
     atom   31 type  2   force =     0.00000000    0.00000000    0.00000000
     atom   32 type  2   force =     0.00000000    0.00000000    0.00000000
     atom   33 type  1   force =     0.00000000    0.00000000    0.00000000
     atom   34 type  2   force =     0.00000000    0.00000000    0.00000000
     atom   35 type  2   force =     0.00000000    0.00000000    0.00000000
     atom   36 type  3   force =     0.00000000    0.00000000    0.00000000
     The SCF correction term to forces
     atom    1 type  1   force =     0.00003362    0.00001481    0.00000421
     atom    2 type  2   force =    -0.00001574    0.00002155   -0.00002416
     atom    3 type  2   force =    -0.00000339   -0.00000090    0.00000086
     atom    4 type  1   force =    -0.00000527   -0.00001390   -0.00001419
     atom    5 type  2   force =    -0.00000094   -0.00000271   -0.00001399
     atom    6 type  2   force =    -0.00000130    0.00000376    0.00001006
     atom    7 type  1   force =     0.00000902   -0.00002893   -0.00005412
     atom    8 type  2   force =     0.00000674   -0.00002284   -0.00001363
     atom    9 type  2   force =     0.00000783    0.00000063   -0.00001099
     atom   10 type  1   force =     0.00001129    0.00001557   -0.00005532
     atom   11 type  2   force =     0.00002413   -0.00000039   -0.00002490
     atom   12 type  2   force =     0.00001405    0.00000162   -0.00001516
     atom   13 type  1   force =     0.00002492    0.00004250   -0.00003534
     atom   14 type  2   force =     0.00003407    0.00004068   -0.00003499
     atom   15 type  2   force =     0.00000861    0.00000241   -0.00001121
     atom   16 type  1   force =     0.00001824   -0.00000859   -0.00001254
     atom   17 type  2   force =     0.00000703    0.00001763   -0.00001427
     atom   18 type  2   force =    -0.00000059    0.00001826   -0.00000329
     atom   19 type  1   force =    -0.00002199   -0.00004499   -0.00006936
     atom   20 type  2   force =     0.00000799   -0.00001101   -0.00001321
     atom   21 type  1   force =     0.00002020    0.00002087   -0.00009013
     atom   22 type  2   force =    -0.00000644   -0.00000812   -0.00002107
     atom   23 type  2   force =    -0.00000271   -0.00000061   -0.00003503
     atom   24 type  1   force =    -0.00000907    0.00002740   -0.00003947
     atom   25 type  2   force =    -0.00002833    0.00001626   -0.00002084
     atom   26 type  2   force =    -0.00002169   -0.00000981   -0.00001928
     atom   27 type  1   force =    -0.00000602   -0.00000134   -0.00001587
     atom   28 type  2   force =    -0.00001064    0.00000070   -0.00001381
     atom   29 type  2   force =    -0.00000226   -0.00000225    0.00000249
     atom   30 type  1   force =    -0.00004170   -0.00001963   -0.00004752
     atom   31 type  2   force =    -0.00000805   -0.00003029   -0.00001329
     atom   32 type  2   force =    -0.00000184   -0.00000349   -0.00002048
     atom   33 type  1   force =    -0.00003900    0.00000713   -0.00007327
     atom   34 type  2   force =    -0.00001450   -0.00000024   -0.00002124
     atom   35 type  2   force =    -0.00000567    0.00000276   -0.00001860
     atom   36 type  3   force =     0.00004970    0.00007472   -0.00002944

     Total force =     0.006541     Total SCF correction =     0.000263
     Energy error            =      8.5E-05 Ry
     Gradient error          =      1.9E-03 Ry/Bohr

     bfgs converged in  21 scf cycles and  20 bfgs steps
     (criteria: energy <  1.0E-04 Ry, force <  1.0E-02 Ry/Bohr)

     End of BFGS Geometry Optimization

     Final energy             =   -2246.4491344384 Ry

     File ./MoS2-V-O.bfgs deleted, as requested
Begin final coordinates

ATOMIC_POSITIONS (angstrom)
Mo            6.5670561721        1.7575107330        2.7487814396
S             8.1055321700        0.8277973350        4.3683854966
S             8.1282366505        0.8152364033        1.1709928118
Mo            8.1001446942        4.4787425987        2.7173489601
S             6.5035753844        3.6480935519        4.3188217717
S             6.5356353045        3.5650956006        1.1070984850
Mo            6.5053789529        7.1635743664        2.6738363382
S             8.0731362071        6.2866340127        4.3050683882
S             8.1214679541        6.3031176465        1.1134270380
Mo            8.1131881434        9.9138612996        2.7661346658
S             6.4972450653        8.9282221153        4.3278911966
S             6.5832538655        8.9963481750        1.1163408288
Mo            3.3794523767        1.7532528119        2.7447340681
S             4.9726459179        0.7962096947        4.2471029461
S             4.9760999356        0.8250957372        1.1800193256
Mo            4.9724137496        4.5174688247        2.6647791875
S             3.4397350650        3.6433453746        4.3153523812
S             3.4106894671        3.5607265116        1.1044454670
Mo            3.4450667870        7.1662066002        2.6655783186
S             4.9782328103        6.2963379821        1.0535646214
Mo            4.9745820466        9.8536356308        2.7120681614
S             3.4452243343        8.9295324056        4.3217475856
S             3.3653872004        9.0034870773        1.1107940572
Mo            0.2446481564        1.7126014412        2.7706694481
S             1.8364768109        0.8263342909        4.3677774978
S             1.8150016244        0.8160713797        1.1639504798
Mo            1.8472906682        4.4765682339        2.7135258807
S             0.2452942055        3.5860967896        4.3202596476
S             0.2434369396        3.5364390417        1.1552670403
Mo            0.2492693164        7.1925599892        2.7334226607
S             1.8863977870        6.2839518814        4.3010739452
S             1.8305027283        6.3013018172        1.1070990509
Mo            1.8307643022        9.9164648041        2.7622088874
S             0.2454323642        9.0043116651        4.3558805815
S             0.2422762000        9.0272756779        1.1685845100
O             4.9651800991        0.7714369100        5.7463067019
End final coordinates



     Writing all to output data dir ./MoS2-V-O.save/
 
     init_run     :      4.68s CPU      5.19s WALL (       1 calls)
     electrons    :   1941.23s CPU   2195.52s WALL (      21 calls)
     update_pot   :     61.20s CPU     65.28s WALL (      20 calls)
     forces       :     57.29s CPU     65.40s WALL (      21 calls)

     Called by init_run:
     wfcinit      :      0.48s CPU      0.55s WALL (       1 calls)
     potinit      :      2.43s CPU      2.68s WALL (       1 calls)
     hinit0       :      0.44s CPU      0.47s WALL (       1 calls)

     Called by electrons:
     c_bands      :    286.05s CPU    293.11s WALL (     200 calls)
     sum_band     :    111.80s CPU    144.50s WALL (     200 calls)
     v_of_rho     :    188.39s CPU    229.95s WALL (     215 calls)
     newd         :     66.77s CPU     97.37s WALL (     215 calls)
     PAW_pot      :      8.51s CPU      8.54s WALL (     235 calls)
     mix_rho      :   1300.78s CPU   1445.22s WALL (     200 calls)

     Called by c_bands:
     init_us_2    :      4.61s CPU      4.95s WALL (     421 calls)
     init_us_2:cp :      4.60s CPU      4.95s WALL (     421 calls)
     regterg      :    270.99s CPU    277.70s WALL (     200 calls)

     Called by *egterg:
     rdiaghg      :     18.96s CPU     19.16s WALL (    1071 calls)
     h_psi        :    175.62s CPU    177.16s WALL (    1098 calls)
     s_psi        :     16.79s CPU     16.84s WALL (    1098 calls)
     g_psi        :      0.86s CPU      0.86s WALL (     897 calls)

     Called by h_psi:
     h_psi:calbec :     18.65s CPU     18.75s WALL (    1098 calls)
     vloc_psi     :    138.21s CPU    139.54s WALL (    1098 calls)
     add_vuspsi   :     16.56s CPU     16.66s WALL (    1098 calls)

     General routines
     calbec       :     26.95s CPU     27.10s WALL (    1402 calls)
     fft          :    128.60s CPU    149.07s WALL (   14338 calls)
     ffts         :    581.26s CPU    720.58s WALL (  318762 calls)
     fftw         :     88.09s CPU     88.84s WALL (  122578 calls)
     interpolate  :      2.71s CPU      3.10s WALL (     215 calls)
 
     Parallel routines
 
     PWSCF        :  34m33.48s CPU  39m 4.68s WALL

 
   This run was terminated on:  17:53:59   1Nov2023            

=------------------------------------------------------------------------------=
   JOB DONE.
=------------------------------------------------------------------------------=
