
     Program PWSCF v.7.2 starts on  1Nov2023 at 12:32:22 

     This program is part of the open-source Quantum ESPRESSO suite
     for quantum simulation of materials; please cite
         "P. Giannozzi et al., J. Phys.:Condens. Matter 21 395502 (2009);
         "P. Giannozzi et al., J. Phys.:Condens. Matter 29 465901 (2017);
         "P. Giannozzi et al., J. Chem. Phys. 152 154105 (2020);
          URL http://www.quantum-espresso.org", 
     in publications or presentations arising from this work. More details at
     http://www.quantum-espresso.org/quote

     Parallel version (MPI & OpenMP), running on      48 processor cores
     Number of MPI processes:                48
     Threads/MPI process:                     1

     MPI processes distributed on     1 nodes
     75378 MiB available memory on the printing compute node when the environment starts
 
     Waiting for input...
     Reading input from standard input
Warning: card &CELL ignored
Warning: card CELL_DYNAMICS = 'BFGS', ignored
Warning: card CELL_DOFREE = '2DXY' ignored
Warning: card / ignored

     Current dimensions of program PWSCF are:
     Max number of different atomic species (ntypx) = 10
     Max number of k-points (npk) =  40000
     Max angular momentum in pseudopotentials (lmaxx) =  4
     file O.pbe-n-kjpaw_psl.0.1.UPF: wavefunction(s)  2P renormalized

     IMPORTANT: XC functional enforced from input :
     Exchange-correlation= RVV10
                           (   1   4  13   4  26   0   0)
     Any further DFT definition will be discarded
     Please, verify this is what you really want


     gamma-point specific algorithms are used
     signal trapping enabled: kill the code with -SIGUSR1 to stop cleanly the simulation 
 
     R & G space division:  proc/nbgrp/npool/nimage =      48
     Subspace diagonalization in iterative solution of the eigenvalue problem:
     one sub-group per band group will be used
     scalapack distributed-memory algorithm (size of sub-group:  2*  2 procs)

 
     Parallelization info
     --------------------
     sticks:   dense  smooth     PW     G-vecs:    dense   smooth      PW
     Min         396     194     47               101632    35090    4376
     Max         398     196     50               101674    35128    4410
     Sum       19091    9389   2349              4879585  1685513  210763
 
     Using Slab Decomposition
 


     bravais-lattice index     =            0
     lattice parameter (alat)  =      17.8707  a.u.
     unit-cell volume          =   17436.2743 (a.u.)^3
     number of atoms/cell      =           36
     number of atomic types    =            3
     number of electrons       =       312.00
     number of Kohn-Sham states=          187
     kinetic-energy cutoff     =      80.0000  Ry
     charge density cutoff     =     650.0000  Ry
     scf convergence threshold =      1.0E-06
     mixing beta               =       0.7000
     number of iterations used =            8  local-TF  mixing
     energy convergence thresh.=      1.0E-04
     force convergence thresh. =      1.0E-02
     Exchange-correlation= RVV10
                           (   1   4  13   4  26   0   0)
     nstep                     =          200


     celldm(1)=  17.870686  celldm(2)=   0.000000  celldm(3)=   0.000000
     celldm(4)=   0.000000  celldm(5)=   0.000000  celldm(6)=   0.000000

     crystal axes: (cart. coord. in units of alat)
               a(1) = (   1.000000   0.000000   0.000000 )  
               a(2) = (   0.000000   1.155671   0.000000 )  
               a(3) = (   0.000000   0.000000   2.643601 )  

     reciprocal axes: (cart. coord. in units 2 pi/alat)
               b(1) = (  1.000000  0.000000  0.000000 )  
               b(2) = (  0.000000  0.865298  0.000000 )  
               b(3) = (  0.000000  0.000000  0.378272 )  


     PseudoPot. # 1 for Mo read from file:
     ../pseudo/Mo_ONCV_PBE-1.0.oncvpsp.upf
     MD5 check sum: 1b5d28e075c9ccadda658a603575cd1f
     Pseudo is Norm-conserving, Zval = 14.0
     Generated using ONCVPSP code by D. R. Hamann
     Using radial grid of 1526 points,  6 beta functions with: 
                l(1) =   0
                l(2) =   0
                l(3) =   1
                l(4) =   1
                l(5) =   2
                l(6) =   2

     PseudoPot. # 2 for S  read from file:
     ../pseudo/s_pbe_v1.4.uspp.F.UPF
     MD5 check sum: 88d86576ff6df21479756cfb9bdac1df
     Pseudo is Ultrasoft + core correction, Zval =  6.0
     Generated by new atomic code, or converted to UPF format
     Using radial grid of  907 points,  6 beta functions with: 
                l(1) =   0
                l(2) =   0
                l(3) =   1
                l(4) =   1
                l(5) =   2
                l(6) =   2
     Q(r) pseudized with  8 coefficients,  rinner =    1.300   1.300   1.300
                                                       1.300   1.300

     PseudoPot. # 3 for O  read from file:
     ../pseudo/O.pbe-n-kjpaw_psl.0.1.UPF
     MD5 check sum: 0234752ac141de4415c5fc33072bef88
     Pseudo is Projector augmented-wave + core cor, Zval =  6.0
     Generated using "atomic" code by A. Dal Corso  v.5.0.99 svn rev. 10869
     Shape of augmentation charge: BESSEL
     Using radial grid of 1095 points,  4 beta functions with: 
                l(1) =   0
                l(2) =   0
                l(3) =   1
                l(4) =   1
     Q(r) pseudized with 0 coefficients 


     atomic species   valence    mass     pseudopotential
        Mo            14.00    95.94000     Mo( 1.00)
        S              6.00    32.06500     S ( 1.00)
        O              6.00    15.99940     O ( 1.00)

     No symmetry found



   Cartesian axes

     site n.     atom                  positions (alat units)
         1           Mo  tau(   1) = (   0.6952221   0.1890506   0.2985846  )
         2           S   tau(   2) = (   0.8646417   0.0856217   0.4689279  )
         3           S   tau(   3) = (   0.8663890   0.0857843   0.1351291  )
         4           Mo  tau(   4) = (   0.8560186   0.4753274   0.2873942  )
         5           S   tau(   5) = (   0.6873294   0.3936244   0.4596353  )
         6           S   tau(   6) = (   0.6929804   0.3713468   0.1185692  )
         7           Mo  tau(   7) = (   0.6862796   0.7633098   0.2825370  )
         8           S   tau(   8) = (   0.8545980   0.6708292   0.4486168  )
         9           S   tau(   9) = (   0.8545123   0.6666874   0.1146125  )
        10           Mo  tau(  10) = (   0.8629403   1.0471007   0.3006803  )
        11           S   tau(  11) = (   0.6868280   0.9456650   0.4634891  )
        12           S   tau(  12) = (   0.6998113   0.9568511   0.1205389  )
        13           Mo  tau(  13) = (   0.3618216   0.1847309   0.2935964  )
        14           S   tau(  14) = (   0.5260962   0.0863870   0.4600448  )
        15           S   tau(  15) = (   0.5348379   0.0894875   0.1297123  )
        16           Mo  tau(  16) = (   0.5265817   0.4772436   0.2784130  )
        17           S   tau(  17) = (   0.3624753   0.3882513   0.4525556  )
        18           S   tau(  18) = (   0.3635411   0.3752055   0.1119148  )
        19           Mo  tau(  19) = (   0.3652268   0.7630864   0.2781795  )
        20           S   tau(  20) = (   0.5269494   0.6690381   0.1096838  )
        21           Mo  tau(  21) = (   0.5300192   1.0470394   0.2900995  )
        22           S   tau(  22) = (   0.3670346   0.9457522   0.4574073  )
        23           S   tau(  23) = (   0.3604225   0.9585725   0.1159032  )
        24           Mo  tau(  24) = (   0.0313099   0.1847895   0.3013130  )
        25           S   tau(  25) = (   0.1956761   0.0838230   0.4650863  )
        26           S   tau(  26) = (   0.1967693   0.0903508   0.1278874  )
        27           Mo  tau(  27) = (   0.1967578   0.4753919   0.2813011  )
        28           S   tau(  28) = (   0.0287851   0.3864324   0.4586755  )
        29           S   tau(  29) = (   0.0244514   0.3729871   0.1239344  )
        30           Mo  tau(  30) = (   0.0286728   0.7631204   0.2856894  )
        31           S   tau(  31) = (   0.2011512   0.6675435   0.4465001  )
        32           S   tau(  32) = (   0.1969214   0.6672839   0.1104564  )
        33           Mo  tau(  33) = (   0.1950294   1.0511147   0.2932237  )
        34           S   tau(  34) = (   0.0312912   0.9612169   0.4667423  )
        35           S   tau(  35) = (   0.0292670   0.9563028   0.1216485  )
        36           O   tau(  36) = (   0.7777778   0.1284079   0.5407634  )

     number of k points=     1  Gaussian smearing, width (Ry)=  0.0100
                       cart. coord. in units 2pi/alat
        k(    1) = (   0.0000000   0.0000000   0.0000000), wk =   2.0000000

     Dense  grid:  2439793 G-vectors     FFT dimensions: ( 150, 180, 384)

     Smooth grid:   842757 G-vectors     FFT dimensions: ( 108, 120, 270)

     Estimated max dynamical RAM per process >     269.22 MB

     Estimated total dynamical RAM >      12.62 GB

     Initial potential from superposition of free atoms

     starting charge     311.9873, renormalised to     312.0000

     negative rho (up, down):  2.735E-04 0.000E+00


---------------------------------------------------------------------------------
Carrying out rVV10 run using the following parameters:
Nqs =      20    Nr_points =    1024   r_max =   100.000
b_value =  6.30000    beta =  0.00901
     q_mesh =  0.00010000  0.00030000  0.00058939  0.00100810
               0.00161396  0.00249058  0.00375900  0.00559430
               0.00824984  0.01209221  0.01765183  0.02569619
               0.03733578  0.05417739  0.07854596  0.11380545
               0.16482331  0.23864234  0.34545298  0.50000000

Gradients computed in Reciprocal space

---------------------------------------------------------------------------------


     Starting wfcs are  216 randomized atomic wfcs
     Checking if some PAW data can be deallocated... 

     total cpu time spent up to now is        5.5 secs

     Self-consistent Calculation

     iteration #  1     ecut=    80.00 Ry     beta= 0.70
     Davidson diagonalization with overlap
     ethr =  1.00E-02,  avg # of iterations =  2.0

     Threshold (ethr) on eigenvalues was too large:
     Diagonalizing with lowered threshold

     Davidson diagonalization with overlap
     ethr =  5.34E-04,  avg # of iterations =  4.0

     negative rho (up, down):  3.733E-08 0.000E+00

     total cpu time spent up to now is       21.0 secs

     total energy              =   -2245.68048642 Ry
     estimated scf accuracy    <       1.91018229 Ry

     iteration #  2     ecut=    80.00 Ry     beta= 0.70
     Davidson diagonalization with overlap
     ethr =  6.12E-04,  avg # of iterations =  4.0

     total cpu time spent up to now is       26.7 secs

     total energy              =   -2245.67209225 Ry
     estimated scf accuracy    <       0.61002116 Ry

     iteration #  3     ecut=    80.00 Ry     beta= 0.70
     Davidson diagonalization with overlap
     ethr =  1.96E-04,  avg # of iterations =  4.0

     total cpu time spent up to now is       32.0 secs

     total energy              =   -2245.69612546 Ry
     estimated scf accuracy    <       0.11214221 Ry

     iteration #  4     ecut=    80.00 Ry     beta= 0.70
     Davidson diagonalization with overlap
     ethr =  3.59E-05,  avg # of iterations = 11.0

     total cpu time spent up to now is       37.9 secs

     total energy              =   -2245.71109718 Ry
     estimated scf accuracy    <       0.02710183 Ry

     iteration #  5     ecut=    80.00 Ry     beta= 0.70
     Davidson diagonalization with overlap
     ethr =  8.69E-06,  avg # of iterations =  4.0

     total cpu time spent up to now is       42.8 secs

     total energy              =   -2245.71004511 Ry
     estimated scf accuracy    <       0.01651760 Ry

     iteration #  6     ecut=    80.00 Ry     beta= 0.70
     Davidson diagonalization with overlap
     ethr =  5.29E-06,  avg # of iterations =  2.0

     total cpu time spent up to now is       47.9 secs

     total energy              =   -2245.70879248 Ry
     estimated scf accuracy    <       0.00972346 Ry

     iteration #  7     ecut=    80.00 Ry     beta= 0.70
     Davidson diagonalization with overlap
     c_bands:  1 eigenvalues not converged
     ethr =  3.12E-06,  avg # of iterations = 20.0

     negative rho (up, down):  1.575E-05 0.000E+00

     total cpu time spent up to now is       56.3 secs

     total energy              =   -2245.70805808 Ry
     estimated scf accuracy    <       0.00580468 Ry

     iteration #  8     ecut=    80.00 Ry     beta= 0.70
     Davidson diagonalization with overlap
     ethr =  1.86E-06,  avg # of iterations = 11.0

     negative rho (up, down):  2.093E-02 0.000E+00

     total cpu time spent up to now is       64.2 secs

     total energy              =   -2245.70718720 Ry
     estimated scf accuracy    <       0.00388921 Ry

     iteration #  9     ecut=    80.00 Ry     beta= 0.70
     Davidson diagonalization with overlap
     ethr =  1.25E-06,  avg # of iterations =  2.0

     negative rho (up, down):  3.316E-02 0.000E+00

     total cpu time spent up to now is       70.8 secs

     total energy              =   -2245.70697614 Ry
     estimated scf accuracy    <       0.00213012 Ry

     iteration # 10     ecut=    80.00 Ry     beta= 0.70
     Davidson diagonalization with overlap
     ethr =  6.83E-07,  avg # of iterations =  2.0

     negative rho (up, down):  2.750E-02 0.000E+00

     total cpu time spent up to now is       78.4 secs

     total energy              =   -2245.70690348 Ry
     estimated scf accuracy    <       0.00101429 Ry

     iteration # 11     ecut=    80.00 Ry     beta= 0.70
     Davidson diagonalization with overlap
     ethr =  3.25E-07,  avg # of iterations =  2.0

     negative rho (up, down):  1.766E-02 0.000E+00

     total cpu time spent up to now is       86.1 secs

     total energy              =   -2245.70690080 Ry
     estimated scf accuracy    <       0.00016856 Ry

     iteration # 12     ecut=    80.00 Ry     beta= 0.70
     Davidson diagonalization with overlap
     ethr =  5.40E-08,  avg # of iterations =  6.0

     negative rho (up, down):  4.531E-03 0.000E+00

     total cpu time spent up to now is       95.0 secs

     total energy              =   -2245.70692246 Ry
     estimated scf accuracy    <       0.00004275 Ry

     iteration # 13     ecut=    80.00 Ry     beta= 0.70
     Davidson diagonalization with overlap
     ethr =  1.37E-08,  avg # of iterations =  5.0

     negative rho (up, down):  1.588E-03 0.000E+00

     total cpu time spent up to now is      123.4 secs

     total energy              =   -2245.70693771 Ry
     estimated scf accuracy    <       0.00000863 Ry

     iteration # 14     ecut=    80.00 Ry     beta= 0.70
     Davidson diagonalization with overlap
     ethr =  2.77E-09,  avg # of iterations =  2.0

     negative rho (up, down):  3.370E-04 0.000E+00

     total cpu time spent up to now is      130.8 secs

     total energy              =   -2245.70693713 Ry
     estimated scf accuracy    <       0.00000190 Ry

     iteration # 15     ecut=    80.00 Ry     beta= 0.70
     Davidson diagonalization with overlap
     ethr =  6.10E-10,  avg # of iterations =  5.0

     negative rho (up, down):  2.459E-04 0.000E+00

     total cpu time spent up to now is      135.9 secs

     End of self-consistent calculation

          k = 0.0000 0.0000 0.0000 (105382 PWs)   bands (ev):

   -62.8324 -62.8257 -62.8131 -62.8060 -62.7899 -62.7523 -62.7385 -62.7346
   -62.7107 -62.7040 -62.6856 -62.6756 -37.1750 -37.1089 -37.0921 -37.0842
   -37.0772 -37.0507 -37.0397 -37.0272 -37.0172 -37.0132 -36.9983 -36.9933
   -36.9843 -36.9758 -36.9704 -36.9551 -36.9410 -36.9294 -36.9175 -36.9111
   -36.8901 -36.8861 -36.8820 -36.8804 -36.8671 -36.8589 -36.8457 -36.8404
   -36.8240 -36.8175 -36.8112 -36.7980 -36.7801 -36.6969 -36.6719 -36.6607
   -28.8531 -15.8762 -15.1418 -15.0337 -14.9167 -14.8316 -14.7142 -14.4533
   -14.4088 -14.3895 -14.3608 -14.3143 -14.3108 -14.2231 -14.1593 -14.0934
   -14.0703 -14.0427 -13.9732 -13.9221 -13.7918 -13.7749 -13.7498 -12.9617
   -11.2102 -10.8860  -8.9543  -7.5299  -7.3848  -7.2159  -7.2031  -7.1322
    -7.1124  -6.9929  -6.9762  -6.7479  -6.7360  -6.6578  -6.6235  -6.5784
    -6.4191  -6.4035  -6.3400  -6.2875  -6.0270  -5.9856  -5.8834  -5.8472
    -5.7953  -5.7592  -5.6796  -5.6250  -5.5994  -5.5879  -5.5501  -5.5322
    -5.4537  -5.4425  -5.3650  -5.3189  -5.2390  -5.1307  -5.0731  -4.9953
    -4.9235  -4.8874  -4.8404  -4.7540  -4.6556  -4.5543  -4.4205  -4.4051
    -4.2556  -4.2154  -4.1880  -4.0967  -3.9857  -3.8597  -3.7961  -3.7392
    -3.6973  -3.6615  -3.6254  -3.5648  -3.5241  -3.4651  -3.4334  -3.3907
    -3.3415  -3.3248  -3.2682  -3.2073  -2.9914  -2.9058  -2.8755  -2.7707
    -2.7513  -2.7061  -2.6702  -2.6587  -2.5778  -2.5086  -2.4770  -2.2398
    -2.0131  -1.9201  -1.8782  -1.2900  -0.9326  -0.7106  -0.4964  -0.1188
    -0.0773  -0.0008   0.0291   0.0819   0.1803   0.2899   0.3156   0.3342
     0.3756   0.4302   0.5176   0.5661   0.6063   0.6119   0.6366   0.6907
     0.7472   0.7899   0.8136   0.8696   0.8928   0.9488   0.9869   1.0151
     1.0674   1.2829   1.4182

     the Fermi energy is    -1.1113 ev

!    total energy              =   -2245.70693797 Ry
     estimated scf accuracy    <       0.00000049 Ry
     smearing contrib. (-TS)   =      -0.00201205 Ry
     internal energy E=F+TS    =   -2245.70492592 Ry

     The total energy is F=E-TS. E is the sum of the following terms:
     one-electron contribution =  -18513.62163275 Ry
     hartree contribution      =    9245.60952673 Ry
     xc contribution           =    -392.84832886 Ry
     ewald contribution        =    7424.98390925 Ry
     one-center paw contrib.   =      -9.82840029 Ry

     convergence has been achieved in  15 iterations

     negative rho (up, down):  2.459E-04 0.000E+00

     Forces acting on atoms (cartesian axes, Ry/au):

     atom    1 type  1   force =     0.00687979   -0.00791143   -0.12053855
     atom    2 type  2   force =     1.57506178   -0.77714533   -1.39877688
     atom    3 type  2   force =    -0.01273221    0.00982129   -0.00821733
     atom    4 type  1   force =    -0.00049979   -0.00096193   -0.00395486
     atom    5 type  2   force =    -0.00972200    0.01159612   -0.00670834
     atom    6 type  2   force =    -0.00229202    0.00379380    0.00484491
     atom    7 type  1   force =     0.00720745   -0.01500670   -0.00942546
     atom    8 type  2   force =     0.00167199   -0.00349405    0.01811980
     atom    9 type  2   force =     0.01218145    0.00829357    0.01116506
     atom   10 type  1   force =    -0.03621147    0.00756136   -0.00711344
     atom   11 type  2   force =     0.00319081   -0.00199913   -0.00117430
     atom   12 type  2   force =     0.00115062    0.00152784    0.00381230
     atom   13 type  1   force =     0.00513173    0.00446323   -0.01485260
     atom   14 type  2   force =    -0.03408166   -0.00834703    0.00248654
     atom   15 type  2   force =    -0.01128334    0.01006873   -0.00600452
     atom   16 type  1   force =     0.00301179    0.01277894    0.00424055
     atom   17 type  2   force =     0.00545230    0.00106965    0.00180195
     atom   18 type  2   force =    -0.00668953   -0.00764995    0.01385966
     atom   19 type  1   force =     0.00714693   -0.00580858   -0.00631619
     atom   20 type  2   force =     0.00432928   -0.00376754    0.00026327
     atom   21 type  1   force =    -0.00210123    0.00847256   -0.00269884
     atom   22 type  2   force =    -0.00282128   -0.00151451   -0.00379245
     atom   23 type  2   force =    -0.00192875    0.00054318    0.00938688
     atom   24 type  1   force =    -0.03302579    0.02496363    0.00455836
     atom   25 type  2   force =     0.02452224    0.01378960    0.00536967
     atom   26 type  2   force =    -0.00610156   -0.00508237   -0.00577432
     atom   27 type  1   force =    -0.00060227   -0.00058271    0.00567461
     atom   28 type  2   force =     0.00128843   -0.00069547   -0.00078006
     atom   29 type  2   force =     0.00364448   -0.00512364   -0.00590719
     atom   30 type  1   force =     0.00088274    0.00721588   -0.00475605
     atom   31 type  2   force =    -0.00034801    0.00131589    0.01587421
     atom   32 type  2   force =    -0.00899147    0.00501468    0.00988853
     atom   33 type  1   force =     0.01633017   -0.00404167   -0.00156059
     atom   34 type  2   force =     0.00776359   -0.04832170   -0.01036581
     atom   35 type  2   force =    -0.00386822    0.00592559    0.01105622
     atom   36 type  3   force =    -1.51354695    0.75923821    1.49631529
     The non-local contrib.  to forces
     atom    1 type  1   force =     0.03741351    0.02074344    0.00522473
     atom    2 type  2   force =     0.82136098   -0.39983713   -0.80926480
     atom    3 type  2   force =    -0.00967233   -0.00394914    0.26662305
     atom    4 type  1   force =    -0.00552780    0.00355703    0.00593199
     atom    5 type  2   force =     0.00392511    0.01083655   -0.25087879
     atom    6 type  2   force =    -0.00232621    0.00486534    0.26638063
     atom    7 type  1   force =    -0.02711463   -0.00180695   -0.01764591
     atom    8 type  2   force =     0.00547907   -0.00126213   -0.25300561
     atom    9 type  2   force =     0.00732296   -0.00964893    0.27923927
     atom   10 type  1   force =     0.01584074    0.03067591   -0.00205224
     atom   11 type  2   force =     0.02346841    0.01159028   -0.26096269
     atom   12 type  2   force =    -0.00735785   -0.01787091    0.26496666
     atom   13 type  1   force =     0.00019395    0.01467480   -0.01409055
     atom   14 type  2   force =    -0.06525970   -0.02562598   -0.26136198
     atom   15 type  2   force =    -0.00720755   -0.00843266    0.26559340
     atom   16 type  1   force =     0.00279767    0.01919943   -0.04121962
     atom   17 type  2   force =     0.00359910   -0.02637605   -0.24597027
     atom   18 type  2   force =    -0.00730081   -0.00198014    0.27202262
     atom   19 type  1   force =     0.01095405   -0.00590460   -0.01406263
     atom   20 type  2   force =     0.00102057   -0.02109243    0.26561839
     atom   21 type  1   force =    -0.00015946    0.02340324    0.00469269
     atom   22 type  2   force =    -0.00998742    0.00715449   -0.25636749
     atom   23 type  2   force =     0.00711050   -0.01368592    0.26930295
     atom   24 type  1   force =    -0.00465735   -0.01721938   -0.00158886
     atom   25 type  2   force =     0.00980537    0.00496682   -0.25335938
     atom   26 type  2   force =     0.00025283   -0.01623492    0.25977304
     atom   27 type  1   force =     0.00382291    0.01139816    0.00852792
     atom   28 type  2   force =    -0.00837156   -0.03832983   -0.27196320
     atom   29 type  2   force =     0.01068612   -0.00197149    0.26509017
     atom   30 type  1   force =    -0.00141258    0.01314908    0.01108451
     atom   31 type  2   force =    -0.00772776    0.00241951   -0.25382244
     atom   32 type  2   force =    -0.00305829   -0.00811300    0.27280472
     atom   33 type  1   force =    -0.00040776   -0.00060879    0.00290297
     atom   34 type  2   force =     0.00020090   -0.03381046   -0.26920990
     atom   35 type  2   force =     0.00249074   -0.01264672    0.26638588
     atom   36 type  3   force =     1.72831399   -0.80430961   -1.03804364
     The ionic contribution  to forces
     atom    1 type  1   force =    -1.82456759    1.90604576   -1.49538744
     atom    2 type  2   force =    10.41894531   -5.07589742   30.02757170
     atom    3 type  2   force =     0.04733680   -0.09820944  -37.46455361
     atom    4 type  1   force =     0.47437654    2.25032373   -1.20645958
     atom    5 type  2   force =    -1.71246473    3.72876813   37.98711433
     atom    6 type  2   force =     0.23801681   -0.16143560  -38.95541267
     atom    7 type  1   force =    -2.80079443   -3.15129505    1.44041788
     atom    8 type  2   force =    -0.89175061    0.18964937   37.18622606
     atom    9 type  2   force =     0.37677376    0.01971264  -38.55362170
     atom   10 type  1   force =    -0.19062401   -2.95170490    2.45561132
     atom   11 type  2   force =    -0.94216491   -3.00898769   38.73562921
     atom   12 type  2   force =     0.37041309    0.38443975  -38.62008857
     atom   13 type  1   force =    -0.29462834    1.24662732    1.22927460
     atom   14 type  2   force =    -2.60633720   -0.48695324   37.53756962
     atom   15 type  2   force =    -0.16021136   -0.13109362  -37.80591562
     atom   16 type  1   force =    -0.67089778    4.97097660   -0.92932296
     atom   17 type  2   force =     0.50712519    1.95389957   37.70141483
     atom   18 type  2   force =    -0.24343950   -0.48441692  -39.17214262
     atom   19 type  1   force =     2.56126959   -2.62389624   -0.22554244
     atom   20 type  2   force =     0.15760737   -0.15690473  -38.98390535
     atom   21 type  1   force =    -1.18208589   -1.33218829   -0.83798136
     atom   22 type  2   force =     0.24061079   -2.12276866   38.25029010
     atom   23 type  2   force =    -0.14968332    0.50849008  -38.84158064
     atom   24 type  1   force =     1.88280335    1.76186007    2.71661985
     atom   25 type  2   force =     1.25598507    0.14251911   38.98007339
     atom   26 type  2   force =    -0.16113306    0.02492985  -38.04845610
     atom   27 type  1   force =     0.30335710    1.04022569   -3.33181002
     atom   28 type  2   force =     0.94110457    2.03658434   37.80485901
     atom   29 type  2   force =    -0.07189080   -0.17598821  -38.02515889
     atom   30 type  1   force =    -0.01640201   -1.17269512   -1.01760386
     atom   31 type  2   force =     1.30752423    0.01992642   37.18100573
     atom   32 type  2   force =    -0.44683556    0.02618495  -39.10036270
     atom   33 type  1   force =     1.27534221   -1.58635160    0.77532916
     atom   34 type  2   force =     0.81824634   -2.26637352   39.09288390
     atom   35 type  2   force =    -0.15971575    0.25092968  -38.46226065
     atom   36 type  3   force =    -8.65121124    4.52506719   51.97567607
     The local contribution  to forces
     atom    1 type  1   force =     1.79396943   -1.93468626    1.37053733
     atom    2 type  2   force =    -9.60974304    4.67159242  -30.67477692
     atom    3 type  2   force =    -0.05080240    0.11186077   37.21040414
     atom    4 type  1   force =    -0.46924983   -2.25489179    1.19724453
     atom    5 type  2   force =     1.69942956   -3.72790496  -37.76264961
     atom    6 type  2   force =    -0.23826071    0.16119893   38.71488279
     atom    7 type  1   force =     2.83526382    3.13816713   -1.43149510
     atom    8 type  2   force =     0.88819299   -0.19226234  -36.93492802
     atom    9 type  2   force =    -0.37172207   -0.00234278   38.30668933
     atom   10 type  1   force =     0.13856728    2.92861168   -2.45980349
     atom   11 type  2   force =     0.92313356    2.99651947  -38.49582491
     atom   12 type  2   force =    -0.36279289   -0.36641253   38.37987910
     atom   13 type  1   force =     0.29958035   -1.25683089   -1.22922835
     atom   14 type  2   force =     2.63446000    0.50329403  -37.29383469
     atom   15 type  2   force =     0.15565358    0.14907167   37.55514347
     atom   16 type  1   force =     0.67115321   -4.97761460    0.97551947
     atom   17 type  2   force =    -0.50520790   -1.92793082  -37.47311838
     atom   18 type  2   force =     0.24378804    0.47927423   38.93493897
     atom   19 type  1   force =    -2.56522332    2.62411902    0.23395895
     atom   20 type  2   force =    -0.15437082    0.17341833   38.73964464
     atom   21 type  1   force =     1.18011385    1.31738563    0.83133361
     atom   22 type  2   force =    -0.23379661    2.11474946  -38.01760608
     atom   23 type  2   force =     0.14120163   -0.49548394   38.60262996
     atom   24 type  1   force =    -1.91110806   -1.71960893   -2.70957863
     atom   25 type  2   force =    -1.24132901   -0.13325677  -38.74106794
     atom   26 type  2   force =     0.15508212   -0.01461705   37.80369060
     atom   27 type  1   force =    -0.30791651   -1.05231033    3.32963914
     atom   28 type  2   force =    -0.93206967   -2.00167344  -37.55384027
     atom   29 type  2   force =     0.06558328    0.17326025   37.77484284
     atom   30 type  1   force =     0.01867520    1.16676231    1.00242650
     atom   31 type  2   force =    -1.30063494   -0.02100950  -36.93131463
     atom   32 type  2   force =     0.44097775   -0.01356245   38.85845041
     atom   33 type  1   force =    -1.25856565    1.58293362   -0.77900782
     atom   34 type  2   force =    -0.81109553    2.25097009  -38.85433274
     atom   35 type  2   force =     0.15369910   -0.23341728   38.22785268
     atom   36 type  3   force =     5.41582383   -2.96415584  -49.44135388
     The core correction contribution to forces
     atom    1 type  1   force =     0.00000000    0.00000000    0.00000000
     atom    2 type  2   force =    -0.05546590    0.02697249    0.05820490
     atom    3 type  2   force =     0.00037887    0.00012482   -0.02064635
     atom    4 type  1   force =     0.00000000    0.00000000    0.00000000
     atom    5 type  2   force =    -0.00060621   -0.00016644    0.02025144
     atom    6 type  2   force =     0.00029709   -0.00085445   -0.02097031
     atom    7 type  1   force =     0.00000000    0.00000000    0.00000000
     atom    8 type  2   force =    -0.00022227    0.00036889    0.02033857
     atom    9 type  2   force =    -0.00014886    0.00055447   -0.02111727
     atom   10 type  1   force =     0.00000000    0.00000000    0.00000000
     atom   11 type  2   force =    -0.00123106   -0.00106949    0.02053740
     atom   12 type  2   force =     0.00089378    0.00138672   -0.02093332
     atom   13 type  1   force =     0.00000000    0.00000000    0.00000000
     atom   14 type  2   force =     0.00305552    0.00095431    0.02063634
     atom   15 type  2   force =     0.00047098    0.00053545   -0.02074610
     atom   16 type  1   force =     0.00000000    0.00000000    0.00000000
     atom   17 type  2   force =    -0.00005876    0.00139417    0.02003462
     atom   18 type  2   force =     0.00025701   -0.00058235   -0.02094214
     atom   19 type  1   force =     0.00000000    0.00000000    0.00000000
     atom   20 type  2   force =     0.00005918    0.00081823   -0.02116426
     atom   21 type  1   force =     0.00000000    0.00000000    0.00000000
     atom   22 type  2   force =     0.00033743   -0.00062826    0.02042553
     atom   23 type  2   force =    -0.00056070    0.00121549   -0.02095120
     atom   24 type  1   force =     0.00000000    0.00000000    0.00000000
     atom   25 type  2   force =     0.00006805   -0.00041136    0.02027090
     atom   26 type  2   force =    -0.00027214    0.00087481   -0.02071977
     atom   27 type  1   force =     0.00000000    0.00000000    0.00000000
     atom   28 type  2   force =     0.00060785    0.00269844    0.02067814
     atom   29 type  2   force =    -0.00074877   -0.00040068   -0.02063447
     atom   30 type  1   force =     0.00000000    0.00000000    0.00000000
     atom   31 type  2   force =     0.00047422   -0.00000321    0.02052010
     atom   32 type  2   force =    -0.00011267    0.00052391   -0.02098541
     atom   33 type  1   force =     0.00000000    0.00000000    0.00000000
     atom   34 type  2   force =     0.00040609    0.00090410    0.02082827
     atom   35 type  2   force =    -0.00034849    0.00102308   -0.02088635
     atom   36 type  3   force =    -0.00646144    0.00261319    0.00041829
     The Hubbard contrib.    to forces
     atom    1 type  1   force =     0.00000000    0.00000000    0.00000000
     atom    2 type  2   force =     0.00000000    0.00000000    0.00000000
     atom    3 type  2   force =     0.00000000    0.00000000    0.00000000
     atom    4 type  1   force =     0.00000000    0.00000000    0.00000000
     atom    5 type  2   force =     0.00000000    0.00000000    0.00000000
     atom    6 type  2   force =     0.00000000    0.00000000    0.00000000
     atom    7 type  1   force =     0.00000000    0.00000000    0.00000000
     atom    8 type  2   force =     0.00000000    0.00000000    0.00000000
     atom    9 type  2   force =     0.00000000    0.00000000    0.00000000
     atom   10 type  1   force =     0.00000000    0.00000000    0.00000000
     atom   11 type  2   force =     0.00000000    0.00000000    0.00000000
     atom   12 type  2   force =     0.00000000    0.00000000    0.00000000
     atom   13 type  1   force =     0.00000000    0.00000000    0.00000000
     atom   14 type  2   force =     0.00000000    0.00000000    0.00000000
     atom   15 type  2   force =     0.00000000    0.00000000    0.00000000
     atom   16 type  1   force =     0.00000000    0.00000000    0.00000000
     atom   17 type  2   force =     0.00000000    0.00000000    0.00000000
     atom   18 type  2   force =     0.00000000    0.00000000    0.00000000
     atom   19 type  1   force =     0.00000000    0.00000000    0.00000000
     atom   20 type  2   force =     0.00000000    0.00000000    0.00000000
     atom   21 type  1   force =     0.00000000    0.00000000    0.00000000
     atom   22 type  2   force =     0.00000000    0.00000000    0.00000000
     atom   23 type  2   force =     0.00000000    0.00000000    0.00000000
     atom   24 type  1   force =     0.00000000    0.00000000    0.00000000
     atom   25 type  2   force =     0.00000000    0.00000000    0.00000000
     atom   26 type  2   force =     0.00000000    0.00000000    0.00000000
     atom   27 type  1   force =     0.00000000    0.00000000    0.00000000
     atom   28 type  2   force =     0.00000000    0.00000000    0.00000000
     atom   29 type  2   force =     0.00000000    0.00000000    0.00000000
     atom   30 type  1   force =     0.00000000    0.00000000    0.00000000
     atom   31 type  2   force =     0.00000000    0.00000000    0.00000000
     atom   32 type  2   force =     0.00000000    0.00000000    0.00000000
     atom   33 type  1   force =     0.00000000    0.00000000    0.00000000
     atom   34 type  2   force =     0.00000000    0.00000000    0.00000000
     atom   35 type  2   force =     0.00000000    0.00000000    0.00000000
     atom   36 type  3   force =     0.00000000    0.00000000    0.00000000
     The SCF correction term to forces
     atom    1 type  1   force =     0.00006286   -0.00001467   -0.00089950
     atom    2 type  2   force =    -0.00003714    0.00002400   -0.00049809
     atom    3 type  2   force =     0.00002528   -0.00000604   -0.00003089
     atom    4 type  1   force =    -0.00010027    0.00004880   -0.00065813
     atom    5 type  2   force =    -0.00000730    0.00006252   -0.00053204
     atom    6 type  2   force =    -0.00002057    0.00001927   -0.00002186
     atom    7 type  1   force =    -0.00014889   -0.00007214   -0.00068867
     atom    8 type  2   force =    -0.00002876    0.00001185   -0.00049752
     atom    9 type  2   force =    -0.00004591    0.00001786   -0.00001090
     atom   10 type  1   force =     0.00000295   -0.00002164   -0.00085535
     atom   11 type  2   force =    -0.00001676   -0.00005202   -0.00053963
     atom   12 type  2   force =    -0.00000707   -0.00001551    0.00000210
     atom   13 type  1   force =    -0.00001579   -0.00000832   -0.00079463
     atom   14 type  2   force =    -0.00000185   -0.00001644   -0.00050908
     atom   15 type  2   force =     0.00000945   -0.00001241   -0.00006600
     atom   16 type  1   force =    -0.00004287    0.00021721   -0.00072266
     atom   17 type  2   force =    -0.00000689    0.00008247   -0.00054518
     atom   18 type  2   force =     0.00000415    0.00005493   -0.00000350
     atom   19 type  1   force =     0.00014504   -0.00012706   -0.00065640
     atom   20 type  2   force =     0.00001141   -0.00000726    0.00008352
     atom   21 type  1   force =     0.00002870   -0.00012834   -0.00073012
     atom   22 type  2   force =     0.00001297   -0.00002185   -0.00052084
     atom   23 type  2   force =     0.00000158    0.00000715   -0.00000052
     atom   24 type  1   force =    -0.00006530   -0.00006843   -0.00088033
     atom   25 type  2   force =    -0.00000881   -0.00002851   -0.00053363
     atom   26 type  2   force =    -0.00003288   -0.00003537   -0.00004840
     atom   27 type  1   force =     0.00013266    0.00010346   -0.00066876
     atom   28 type  2   force =     0.00001568    0.00002471   -0.00050007
     atom   29 type  2   force =     0.00001308   -0.00002382   -0.00003317
     atom   30 type  1   force =     0.00002056   -0.00000070   -0.00064953
     atom   31 type  2   force =     0.00001466   -0.00001764   -0.00050089
     atom   32 type  2   force =     0.00003573   -0.00001904   -0.00000481
     atom   33 type  1   force =    -0.00004020   -0.00001522   -0.00077123
     atom   34 type  2   force =     0.00000422   -0.00001221   -0.00052166
     atom   35 type  2   force =     0.00000461    0.00003652   -0.00002167
     atom   36 type  3   force =    -0.00001366    0.00002298   -0.00036788

     Total force =     3.189715     Total SCF correction =     0.003183

     BFGS Geometry Optimization
     Energy error            =      0.0E+00 Ry
     Gradient error          =      1.6E+00 Ry/Bohr

     number of scf cycles    =   1
     number of bfgs steps    =   0

     energy             new  =   -2245.7069379660 Ry

     new trust radius        =       0.5000000000 bohr
     new conv_thr            =       0.0000010000 Ry


ATOMIC_POSITIONS (angstrom)
Mo            6.5753539650        1.7868798775        2.8095291309
S             8.3611338727        0.7187078063        4.2707550796
S             8.1917422668        0.8123917230        1.2769212557
Mo            8.0951040444        4.4949443117        2.7173553177
S             6.4987709047        3.7237692810        4.3458751662
S             6.5530814248        3.5121817728        1.1218475204
Mo            6.4908256187        7.2166801442        2.6707808538
S             8.0819235021        6.3434618731        4.2445832170
S             8.0823439776        6.3056734131        1.0851703190
Mo            8.1563790349        9.9030657752        2.8426288462
S             6.4955412085        8.9426927362        4.3829680344
S             6.6180819258        9.0488901080        1.1403536860
Mo            3.4222605395        1.7474784519        2.7747320661
S             4.9711748578        0.8159638531        4.3508242422
S             5.0565125839        0.8474410599        1.2259553895
Mo            4.9801093329        4.5146742933        2.6333810763
S             3.4284800739        3.6717249318        4.2799205708
S             3.4371373012        3.5473329626        1.0599745148
Mo            3.4546985760        7.2156444102        2.6299372964
S             4.9837411101        6.3264911431        1.0372845577
Mo            5.0120178862        9.9025921059        2.7430849521
S             3.4706277725        8.9435739347        4.3251472523
S             3.4082033272        9.0650535845        1.0971674121
Mo            0.2922234855        1.7504325316        2.8499784490
S             1.8533335301        0.7943086359        4.3988381753
S             1.8600856010        0.8538308218        1.2087247376
Mo            1.8606207894        4.4955985311        2.6608618215
S             0.2723647123        3.6543173937        4.3374927619
S             0.2316579408        3.5266492970        1.1713262091
Mo            0.2712555108        7.2174910036        2.7011395401
S             1.9021974986        6.3129529133        4.2243028379
S             1.8611853999        6.3109309830        1.0457171343
Mo            1.8462587677        9.9396659128        2.7727635218
S             0.2968219407        9.0843398227        4.4126557290
S             0.2763184683        9.0442195435        1.1516953560
O             7.1780360374        1.3032216892        5.2890735458



     Writing config-only to output data dir ./MoS2-V-O.save/
     NEW-OLD atomic charge density approx. for the potential

     negative rho (up, down):  1.946E-04 0.000E+00

     total cpu time spent up to now is      144.7 secs

     Self-consistent Calculation

     iteration #  1     ecut=    80.00 Ry     beta= 0.70
     Davidson diagonalization with overlap
     c_bands:  1 eigenvalues not converged
     ethr =  1.00E-06,  avg # of iterations = 20.0

     negative rho (up, down):  6.905E-03 0.000E+00

     total cpu time spent up to now is      163.1 secs

     total energy              =   -2246.22453613 Ry
     estimated scf accuracy    <       0.27050160 Ry

     iteration #  2     ecut=    80.00 Ry     beta= 0.70
     Davidson diagonalization with overlap
     ethr =  8.67E-05,  avg # of iterations =  4.0

     negative rho (up, down):  1.049E-02 0.000E+00

     total cpu time spent up to now is      179.0 secs

     total energy              =   -2246.22901946 Ry
     estimated scf accuracy    <       0.13424449 Ry

     iteration #  3     ecut=    80.00 Ry     beta= 0.70
     Davidson diagonalization with overlap
     ethr =  4.30E-05,  avg # of iterations =  3.0

     negative rho (up, down):  1.628E-02 0.000E+00

     total cpu time spent up to now is      191.5 secs

     total energy              =   -2246.23704398 Ry
     estimated scf accuracy    <       0.03229479 Ry

     iteration #  4     ecut=    80.00 Ry     beta= 0.70
     Davidson diagonalization with overlap
     ethr =  1.04E-05,  avg # of iterations =  3.0

     negative rho (up, down):  1.784E-02 0.000E+00

     total cpu time spent up to now is      202.9 secs

     total energy              =   -2246.23816875 Ry
     estimated scf accuracy    <       0.01074499 Ry

     iteration #  5     ecut=    80.00 Ry     beta= 0.70
     Davidson diagonalization with overlap
     ethr =  3.44E-06,  avg # of iterations =  2.0

     negative rho (up, down):  1.749E-02 0.000E+00

     total cpu time spent up to now is      217.0 secs

     total energy              =   -2246.23764846 Ry
     estimated scf accuracy    <       0.00416857 Ry

     iteration #  6     ecut=    80.00 Ry     beta= 0.70
     Davidson diagonalization with overlap
     ethr =  1.34E-06,  avg # of iterations =  7.0

     negative rho (up, down):  1.632E-02 0.000E+00

     total cpu time spent up to now is      229.3 secs

     total energy              =   -2246.23823100 Ry
     estimated scf accuracy    <       0.00113116 Ry

     iteration #  7     ecut=    80.00 Ry     beta= 0.70
     Davidson diagonalization with overlap
     ethr =  3.63E-07,  avg # of iterations =  2.0

     negative rho (up, down):  1.312E-02 0.000E+00

     total cpu time spent up to now is      241.0 secs

     total energy              =   -2246.23815441 Ry
     estimated scf accuracy    <       0.00030994 Ry

     iteration #  8     ecut=    80.00 Ry     beta= 0.70
     Davidson diagonalization with overlap
     ethr =  9.93E-08,  avg # of iterations =  5.0

     negative rho (up, down):  1.007E-02 0.000E+00

     total cpu time spent up to now is      252.1 secs

     total energy              =   -2246.23814994 Ry
     estimated scf accuracy    <       0.00008812 Ry

     iteration #  9     ecut=    80.00 Ry     beta= 0.70
     Davidson diagonalization with overlap
     ethr =  2.82E-08,  avg # of iterations =  2.0

     negative rho (up, down):  5.897E-03 0.000E+00

     total cpu time spent up to now is      263.3 secs

     total energy              =   -2246.23809267 Ry
     estimated scf accuracy    <       0.00004323 Ry

     iteration # 10     ecut=    80.00 Ry     beta= 0.70
     Davidson diagonalization with overlap
     ethr =  1.39E-08,  avg # of iterations =  5.0

     negative rho (up, down):  3.729E-03 0.000E+00

     total cpu time spent up to now is      274.9 secs

     total energy              =   -2246.23807409 Ry
     estimated scf accuracy    <       0.00001077 Ry

     iteration # 11     ecut=    80.00 Ry     beta= 0.70
     Davidson diagonalization with overlap
     ethr =  3.45E-09,  avg # of iterations =  4.0

     negative rho (up, down):  2.279E-03 0.000E+00

     total cpu time spent up to now is      283.3 secs

     total energy              =   -2246.23806236 Ry
     estimated scf accuracy    <       0.00000571 Ry

     iteration # 12     ecut=    80.00 Ry     beta= 0.70
     Davidson diagonalization with overlap
     ethr =  1.83E-09,  avg # of iterations =  2.0

     negative rho (up, down):  8.719E-04 0.000E+00

     total cpu time spent up to now is      293.8 secs

     total energy              =   -2246.23805274 Ry
     estimated scf accuracy    <       0.00000268 Ry

     iteration # 13     ecut=    80.00 Ry     beta= 0.70
     Davidson diagonalization with overlap
     ethr =  8.57E-10,  avg # of iterations =  2.0

     negative rho (up, down):  1.890E-04 0.000E+00

     total cpu time spent up to now is      298.3 secs

     End of self-consistent calculation

          k = 0.0000 0.0000 0.0000 (105382 PWs)   bands (ev):

   -63.0830 -62.9917 -62.9759 -62.9629 -62.9559 -62.9437 -62.9419 -62.8813
   -62.8742 -62.8322 -62.8264 -62.8175 -37.3681 -37.3201 -37.3108 -37.2665
   -37.2536 -37.2375 -37.2334 -37.2262 -37.2056 -37.1817 -37.1738 -37.1658
   -37.1607 -37.1462 -37.1371 -37.1338 -37.1222 -37.1158 -37.1057 -37.0758
   -37.0472 -37.0368 -37.0261 -37.0164 -37.0107 -37.0066 -37.0003 -36.9921
   -36.9847 -36.9784 -36.9678 -36.9423 -36.9405 -36.8883 -36.8231 -36.7960
   -20.8736 -16.0381 -15.3006 -15.1944 -15.1214 -15.0489 -14.8345 -14.6377
   -14.5873 -14.5506 -14.5160 -14.4615 -14.4428 -14.3855 -14.3126 -14.2319
   -14.2094 -14.1845 -14.1196 -14.0413 -13.9466 -13.9219 -13.9069 -13.8604
    -7.9719  -7.9207  -7.7830  -7.5611  -7.4403  -7.3738  -7.3097  -7.2456
    -7.1699  -6.9903  -6.9194  -6.8894  -6.8468  -6.7962  -6.6348  -6.6247
    -6.5643  -6.5509  -6.4205  -6.3768  -6.0960  -6.0876  -5.9990  -5.9641
    -5.9316  -5.9018  -5.8267  -5.7692  -5.7255  -5.6983  -5.6819  -5.6467
    -5.5736  -5.5511  -5.4654  -5.3711  -5.2893  -5.2469  -5.1922  -5.0903
    -5.0724  -5.0342  -4.9102  -4.8340  -4.7076  -4.6250  -4.4234  -4.4070
    -4.3732  -4.3467  -4.2336  -4.2037  -4.0536  -3.9626  -3.9149  -3.8805
    -3.8556  -3.7824  -3.7400  -3.6906  -3.6676  -3.5978  -3.5901  -3.5372
    -3.5229  -3.4713  -3.3995  -3.3424  -3.1235  -3.0537  -2.9878  -2.9584
    -2.8827  -2.8543  -2.8280  -2.8108  -2.7130  -2.6528  -2.4794  -2.3430
    -2.1614  -2.0618  -2.0428  -1.3042  -1.0075  -0.8274  -0.5996  -0.3160
    -0.2509  -0.1791  -0.1128  -0.0681   0.0244   0.0909   0.1567   0.1703
     0.1924   0.2750   0.3563   0.4225   0.4345   0.4575   0.4781   0.5372
     0.6017   0.6364   0.6767   0.7199   0.7469   0.8029   0.8338   0.8691
     0.9475   1.1266   1.2779

     the Fermi energy is    -1.1560 ev

!    total energy              =   -2246.23805056 Ry
     estimated scf accuracy    <       0.00000074 Ry
     smearing contrib. (-TS)   =      -0.00345278 Ry
     internal energy E=F+TS    =   -2246.23459778 Ry

     The total energy is F=E-TS. E is the sum of the following terms:
     one-electron contribution =  -18492.05393894 Ry
     hartree contribution      =    9233.95440220 Ry
     xc contribution           =    -392.14094618 Ry
     ewald contribution        =    7413.87157738 Ry
     one-center paw contrib.   =      -9.86569225 Ry

     convergence has been achieved in  13 iterations

     negative rho (up, down):  1.890E-04 0.000E+00

     Forces acting on atoms (cartesian axes, Ry/au):

     atom    1 type  1   force =     0.00411815   -0.01708890   -0.00067600
     atom    2 type  2   force =    -0.10630375    0.04564930    0.13957158
     atom    3 type  2   force =    -0.01394349    0.01047974   -0.02100374
     atom    4 type  1   force =     0.00387760   -0.00238436   -0.00071165
     atom    5 type  2   force =    -0.01034999    0.00970209   -0.02015499
     atom    6 type  2   force =    -0.00084324    0.00416699   -0.00116458
     atom    7 type  1   force =     0.00722422   -0.01573688   -0.00599925
     atom    8 type  2   force =     0.00138633   -0.00434731    0.01657806
     atom    9 type  2   force =     0.01272299    0.00852784    0.01063415
     atom   10 type  1   force =    -0.02921267   -0.04185355   -0.06006277
     atom   11 type  2   force =     0.00469921    0.00050567   -0.00299778
     atom   12 type  2   force =    -0.00102277    0.00203351    0.00187904
     atom   13 type  1   force =     0.00468851    0.00368991   -0.00818529
     atom   14 type  2   force =    -0.02288823   -0.00352130   -0.01036210
     atom   15 type  2   force =    -0.00906758    0.00757370   -0.01021497
     atom   16 type  1   force =     0.00366471    0.01686243    0.00841271
     atom   17 type  2   force =     0.00640467    0.00073978    0.00311358
     atom   18 type  2   force =    -0.00671906   -0.00719515    0.00888393
     atom   19 type  1   force =     0.00323432   -0.00840234   -0.00531418
     atom   20 type  2   force =     0.00369067   -0.00477966   -0.00159179
     atom   21 type  1   force =    -0.00507804    0.00657656    0.00059213
     atom   22 type  2   force =    -0.00345871   -0.00078480   -0.00276057
     atom   23 type  2   force =    -0.00187233    0.00073140    0.00750321
     atom   24 type  1   force =     0.02229660    0.05113170   -0.06036575
     atom   25 type  2   force =     0.03326579    0.01226248    0.00807964
     atom   26 type  2   force =    -0.00833135   -0.00397393   -0.00517862
     atom   27 type  1   force =    -0.00030594    0.00338425    0.00347827
     atom   28 type  2   force =     0.00022886   -0.00188948   -0.00053446
     atom   29 type  2   force =     0.00391174   -0.00087396   -0.00762550
     atom   30 type  1   force =    -0.00208823    0.00619632   -0.00535530
     atom   31 type  2   force =     0.00032406    0.00136238    0.01721791
     atom   32 type  2   force =    -0.00882464    0.00454162    0.00746962
     atom   33 type  1   force =     0.01613598   -0.00517569   -0.00563816
     atom   34 type  2   force =     0.00975693   -0.05162284   -0.00699841
     atom   35 type  2   force =    -0.00493658    0.00675789    0.01230392
     atom   36 type  3   force =     0.09361525   -0.03324540   -0.00282188
     The non-local contrib.  to forces
     atom    1 type  1   force =    -0.00697593    0.03739793   -0.02669924
     atom    2 type  2   force =    -0.42856848    0.21532647    0.17916114
     atom    3 type  2   force =    -0.01177896   -0.00439426    0.25611429
     atom    4 type  1   force =    -0.00551186    0.00926771    0.00570982
     atom    5 type  2   force =     0.00678490    0.01027635   -0.25971478
     atom    6 type  2   force =    -0.00307593    0.00011716    0.26633815
     atom    7 type  1   force =    -0.02267031    0.00005571   -0.01888581
     atom    8 type  2   force =     0.00624074   -0.00331215   -0.25652296
     atom    9 type  2   force =     0.00700055   -0.00880081    0.27837757
     atom   10 type  1   force =     0.01324335    0.02053161   -0.00533021
     atom   11 type  2   force =     0.01712841    0.00706060   -0.26480085
     atom   12 type  2   force =    -0.01134179   -0.01619120    0.26074475
     atom   13 type  1   force =     0.00381687    0.01018073   -0.01251768
     atom   14 type  2   force =    -0.03716274   -0.02431595   -0.26223637
     atom   15 type  2   force =    -0.00333902    0.00021904    0.26637024
     atom   16 type  1   force =     0.00013641    0.02436356   -0.03524214
     atom   17 type  2   force =     0.00215592   -0.02445879   -0.24681566
     atom   18 type  2   force =    -0.00800184    0.00042521    0.26731865
     atom   19 type  1   force =     0.01522942   -0.00190878   -0.01237907
     atom   20 type  2   force =     0.00063431   -0.01947839    0.26471133
     atom   21 type  1   force =    -0.00311097    0.02282238    0.00495482
     atom   22 type  2   force =    -0.01050989    0.00484440   -0.25729581
     atom   23 type  2   force =     0.00687231   -0.01287274    0.26939895
     atom   24 type  1   force =    -0.00307630   -0.00249754   -0.00623872
     atom   25 type  2   force =     0.02758187    0.00694294   -0.25628851
     atom   26 type  2   force =    -0.00418200   -0.01450934    0.26297938
     atom   27 type  1   force =    -0.00002953    0.00961431    0.00944778
     atom   28 type  2   force =    -0.00765774   -0.03043655   -0.27763858
     atom   29 type  2   force =     0.00779220    0.00075470    0.26193964
     atom   30 type  1   force =    -0.00132638    0.01607419    0.01327618
     atom   31 type  2   force =    -0.00827597    0.00383993   -0.25598278
     atom   32 type  2   force =    -0.00252871   -0.00643762    0.27212367
     atom   33 type  1   force =     0.00541570   -0.00273299    0.00109208
     atom   34 type  2   force =     0.00494233   -0.03992632   -0.27436482
     atom   35 type  2   force =    -0.00034373   -0.01069628    0.26838248
     atom   36 type  3   force =     1.30147939   -0.61320604   -1.13814150
     The ionic contribution  to forces
     atom    1 type  1   force =    -1.26815104    1.50509116   -0.79790751
     atom    2 type  2   force =     3.26215081   -1.64753138   33.83072508
     atom    3 type  2   force =     0.01127397   -0.08702432  -37.56458715
     atom    4 type  1   force =     0.44758347    2.11920641   -1.05926787
     atom    5 type  2   force =    -1.55583035    3.59308801   37.81770634
     atom    6 type  2   force =     0.23447669   -0.11587870  -38.92414664
     atom    7 type  1   force =    -2.81031105   -3.09094697    1.46156084
     atom    8 type  2   force =    -0.89400886    0.17628542   37.21841031
     atom    9 type  2   force =     0.37682518    0.00410998  -38.53599708
     atom   10 type  1   force =    -0.81885516   -3.56978536    2.28904055
     atom   11 type  2   force =    -0.90680999   -2.84849392   38.78076875
     atom   12 type  2   force =     0.33599483    0.36886902  -38.59750847
     atom   13 type  1   force =    -0.21513516    1.26496787    1.17342807
     atom   14 type  2   force =    -2.39151229   -0.56554577   37.29628469
     atom   15 type  2   force =    -0.17503011   -0.16244717  -37.78624605
     atom   16 type  1   force =    -0.63357534    4.91017448   -0.86031389
     atom   17 type  2   force =     0.49823878    1.95549261   37.68716680
     atom   18 type  2   force =    -0.23532724   -0.46135920  -39.14844545
     atom   19 type  1   force =     2.57907117   -2.62470608   -0.22839079
     atom   20 type  2   force =     0.15502722   -0.15540253  -38.98950587
     atom   21 type  1   force =    -1.01210182   -1.26028340   -0.68714342
     atom   22 type  2   force =     0.28744743   -2.13394375   38.25638582
     atom   23 type  2   force =    -0.12731999    0.49572434  -38.83257886
     atom   24 type  1   force =     2.23985245    2.64405395    2.43256692
     atom   25 type  2   force =     1.34309008    0.19176336   39.05308902
     atom   26 type  2   force =    -0.14005984    0.04175379  -38.06082658
     atom   27 type  1   force =     0.28010235    1.06109148   -3.25421150
     atom   28 type  2   force =     0.80823024    1.95746592   37.87642135
     atom   29 type  2   force =    -0.07191901   -0.13984815  -38.02302144
     atom   30 type  1   force =    -0.03288746   -1.25431022   -1.00531631
     atom   31 type  2   force =     1.30239183    0.01058349   37.20174843
     atom   32 type  2   force =    -0.44091065    0.01264995  -39.08331080
     atom   33 type  1   force =     1.41155691   -1.65734991    0.75593470
     atom   34 type  2   force =     0.78731533   -2.35123331   39.17008844
     atom   35 type  2   force =    -0.15558927    0.22467616  -38.46544648
     atom   36 type  3   force =    -2.47529411    1.58904271   47.60284604
     The local contribution  to forces
     atom    1 type  1   force =     1.27926027   -1.55954806    0.82365137
     atom    2 type  2   force =    -2.96275431    1.48954677  -33.86767523
     atom    3 type  2   force =    -0.01398650    0.10178670   37.30722271
     atom    4 type  1   force =    -0.43812944   -2.13100332    1.05244970
     atom    5 type  2   force =     1.53922175   -3.59289769  -37.59917739
     atom    6 type  2   force =    -0.23257192    0.12038804   38.67728688
     atom    7 type  1   force =     2.84035758    3.07528546   -1.44916380
     atom    8 type  2   force =     0.88936467   -0.17784694  -36.96585163
     atom    9 type  2   force =    -0.37099385    0.01269003   38.28888574
     atom   10 type  1   force =     0.77635067    3.50730376   -2.34419222
     atom   11 type  2   force =     0.89533099    2.84266875  -38.53986429
     atom   12 type  2   force =    -0.32665288   -0.35191906   38.35902053
     atom   13 type  1   force =     0.21596053   -1.27143011   -1.16947521
     atom   14 type  2   force =     2.40314878    0.58535053  -37.06551328
     atom   15 type  2   force =     0.16913799    0.16979202   37.53013544
     atom   16 type  1   force =     0.63721367   -4.91786193    0.90342068
     atom   17 type  2   force =    -0.49402967   -1.93169300  -37.45737443
     atom   18 type  2   force =     0.23630809    0.45438300   38.91030747
     atom   19 type  1   force =    -2.59097036    2.61812265    0.23483758
     atom   20 type  2   force =    -0.15196344    0.16930391   38.74379475
     atom   21 type  1   force =     1.01035399    1.24421062    0.68243165
     atom   22 type  2   force =    -0.28070635    2.12898448  -38.02227646
     atom   23 type  2   force =     0.11914014   -0.48317305   38.59109397
     atom   24 type  1   force =    -2.21434022   -2.59026531   -2.48708273
     atom   25 type  2   force =    -1.33658871   -0.18590291  -38.80913840
     atom   26 type  2   force =     0.13593988   -0.03194373   37.81314625
     atom   27 type  1   force =    -0.28054781   -1.06764878    3.24772670
     atom   28 type  2   force =    -0.80083894   -1.93122323  -37.62043433
     atom   29 type  2   force =     0.06865975    0.13871160   37.77356670
     atom   30 type  1   force =     0.03188958    1.24440052    0.98610622
     atom   31 type  2   force =    -1.29438746   -0.01309958  -36.94912877
     atom   32 type  2   force =     0.43466623   -0.00218665   38.83904064
     atom   33 type  1   force =    -1.40103653    1.65523387   -0.76309167
     atom   34 type  2   force =    -0.78273515    2.33843411  -38.92382217
     atom   35 type  2   force =     0.15108337   -0.20808780   38.22994509
     atom   36 type  3   force =     1.28241507   -1.01600627  -46.47917729
     The core correction contribution to forces
     atom    1 type  1   force =     0.00000000    0.00000000    0.00000000
     atom    2 type  2   force =     0.02284970   -0.01167091   -0.00236036
     atom    3 type  2   force =     0.00058290    0.00010175   -0.02016590
     atom    4 type  1   force =     0.00000000    0.00000000    0.00000000
     atom    5 type  2   force =    -0.00044406   -0.00081494    0.02114255
     atom    6 type  2   force =     0.00033052   -0.00042204   -0.02106633
     atom    7 type  1   force =     0.00000000    0.00000000    0.00000000
     atom    8 type  2   force =    -0.00023858    0.00048370    0.02053875
     atom    9 type  2   force =    -0.00012062    0.00050638   -0.02109076
     atom   10 type  1   force =     0.00000000    0.00000000    0.00000000
     atom   11 type  2   force =    -0.00087785   -0.00061129    0.02097796
     atom   12 type  2   force =     0.00103459    0.00126502   -0.02076437
     atom   13 type  1   force =     0.00000000    0.00000000    0.00000000
     atom   14 type  2   force =     0.00266129    0.00098301    0.02120645
     atom   15 type  2   force =     0.00012559    0.00002654   -0.02086094
     atom   16 type  1   force =     0.00000000    0.00000000    0.00000000
     atom   17 type  2   force =     0.00002933    0.00129954    0.02011232
     atom   18 type  2   force =     0.00027225   -0.00066390   -0.02072022
     atom   19 type  1   force =     0.00000000    0.00000000    0.00000000
     atom   20 type  2   force =     0.00007381    0.00073434   -0.02113993
     atom   21 type  1   force =     0.00000000    0.00000000    0.00000000
     atom   22 type  2   force =     0.00037656   -0.00054018    0.02052662
     atom   23 type  2   force =    -0.00053858    0.00113055   -0.02095533
     atom   24 type  1   force =     0.00000000    0.00000000    0.00000000
     atom   25 type  2   force =    -0.00087034   -0.00046577    0.02047424
     atom   26 type  2   force =    -0.00003457    0.00080637   -0.02085158
     atom   27 type  1   force =     0.00000000    0.00000000    0.00000000
     atom   28 type  2   force =     0.00042201    0.00220341    0.02119817
     atom   29 type  2   force =    -0.00058958   -0.00050065   -0.02049744
     atom   30 type  1   force =     0.00000000    0.00000000    0.00000000
     atom   31 type  2   force =     0.00051015   -0.00007666    0.02063285
     atom   32 type  2   force =    -0.00012142    0.00041692   -0.02094651
     atom   33 type  1   force =     0.00000000    0.00000000    0.00000000
     atom   34 type  2   force =     0.00011435    0.00122750    0.02116970
     atom   35 type  2   force =    -0.00017353    0.00089361   -0.02099894
     atom   36 type  3   force =    -0.01477723    0.00686784    0.01213116
     The Hubbard contrib.    to forces
     atom    1 type  1   force =     0.00000000    0.00000000    0.00000000
     atom    2 type  2   force =     0.00000000    0.00000000    0.00000000
     atom    3 type  2   force =     0.00000000    0.00000000    0.00000000
     atom    4 type  1   force =     0.00000000    0.00000000    0.00000000
     atom    5 type  2   force =     0.00000000    0.00000000    0.00000000
     atom    6 type  2   force =     0.00000000    0.00000000    0.00000000
     atom    7 type  1   force =     0.00000000    0.00000000    0.00000000
     atom    8 type  2   force =     0.00000000    0.00000000    0.00000000
     atom    9 type  2   force =     0.00000000    0.00000000    0.00000000
     atom   10 type  1   force =     0.00000000    0.00000000    0.00000000
     atom   11 type  2   force =     0.00000000    0.00000000    0.00000000
     atom   12 type  2   force =     0.00000000    0.00000000    0.00000000
     atom   13 type  1   force =     0.00000000    0.00000000    0.00000000
     atom   14 type  2   force =     0.00000000    0.00000000    0.00000000
     atom   15 type  2   force =     0.00000000    0.00000000    0.00000000
     atom   16 type  1   force =     0.00000000    0.00000000    0.00000000
     atom   17 type  2   force =     0.00000000    0.00000000    0.00000000
     atom   18 type  2   force =     0.00000000    0.00000000    0.00000000
     atom   19 type  1   force =     0.00000000    0.00000000    0.00000000
     atom   20 type  2   force =     0.00000000    0.00000000    0.00000000
     atom   21 type  1   force =     0.00000000    0.00000000    0.00000000
     atom   22 type  2   force =     0.00000000    0.00000000    0.00000000
     atom   23 type  2   force =     0.00000000    0.00000000    0.00000000
     atom   24 type  1   force =     0.00000000    0.00000000    0.00000000
     atom   25 type  2   force =     0.00000000    0.00000000    0.00000000
     atom   26 type  2   force =     0.00000000    0.00000000    0.00000000
     atom   27 type  1   force =     0.00000000    0.00000000    0.00000000
     atom   28 type  2   force =     0.00000000    0.00000000    0.00000000
     atom   29 type  2   force =     0.00000000    0.00000000    0.00000000
     atom   30 type  1   force =     0.00000000    0.00000000    0.00000000
     atom   31 type  2   force =     0.00000000    0.00000000    0.00000000
     atom   32 type  2   force =     0.00000000    0.00000000    0.00000000
     atom   33 type  1   force =     0.00000000    0.00000000    0.00000000
     atom   34 type  2   force =     0.00000000    0.00000000    0.00000000
     atom   35 type  2   force =     0.00000000    0.00000000    0.00000000
     atom   36 type  3   force =     0.00000000    0.00000000    0.00000000
     The SCF correction term to forces
     atom    1 type  1   force =    -0.00001479   -0.00003117    0.00026196
     atom    2 type  2   force =     0.00001889   -0.00002289   -0.00029645
     atom    3 type  2   force =    -0.00003455    0.00000862    0.00039490
     atom    4 type  1   force =    -0.00006420    0.00014361    0.00037930
     atom    5 type  2   force =    -0.00008187    0.00004912   -0.00012912
     atom    6 type  2   force =    -0.00000225   -0.00003871    0.00040594
     atom    7 type  1   force =    -0.00015165   -0.00013232    0.00047211
     atom    8 type  2   force =     0.00002872    0.00004141   -0.00001382
     atom    9 type  2   force =     0.00001211    0.00002102    0.00044127
     atom   10 type  1   force =     0.00004882    0.00009520    0.00040170
     atom   11 type  2   force =    -0.00007199   -0.00011970   -0.00009675
     atom   12 type  2   force =    -0.00005717    0.00000850    0.00036919
     atom   13 type  1   force =     0.00004664   -0.00002982    0.00036212
     atom   14 type  2   force =    -0.00002291    0.00000563   -0.00012100
     atom   15 type  2   force =     0.00003833   -0.00001797    0.00036893
     atom   16 type  1   force =    -0.00010967    0.00018509    0.00053065
     atom   17 type  2   force =     0.00001067    0.00009817    0.00000715
     atom   18 type  2   force =     0.00003006    0.00001849    0.00040607
     atom   19 type  1   force =    -0.00009555    0.00008863    0.00060068
     atom   20 type  2   force =    -0.00008087    0.00006176    0.00053051
     atom   21 type  1   force =    -0.00021887   -0.00017428    0.00033168
     atom   22 type  2   force =    -0.00006610   -0.00013100   -0.00011815
     atom   23 type  2   force =    -0.00002584   -0.00007894    0.00052706
     atom   24 type  1   force =    -0.00013897   -0.00016064    0.00037137
     atom   25 type  2   force =     0.00005325   -0.00007638   -0.00007412
     atom   26 type  2   force =     0.00000554   -0.00008225    0.00035650
     atom   27 type  1   force =     0.00016941    0.00032599    0.00049788
     atom   28 type  2   force =     0.00007365    0.00009973   -0.00009848
     atom   29 type  2   force =    -0.00003126    0.00000730    0.00036963
     atom   30 type  1   force =     0.00023638    0.00003058    0.00056120
     atom   31 type  2   force =     0.00008587    0.00011396   -0.00006922
     atom   32 type  2   force =     0.00007028    0.00009779    0.00054522
     atom   33 type  1   force =     0.00020025   -0.00032791    0.00040932
     atom   34 type  2   force =     0.00012043   -0.00012606   -0.00008697
     atom   35 type  2   force =     0.00008693   -0.00002904    0.00040437
     atom   36 type  3   force =    -0.00020752    0.00005512   -0.00049770

     Total force =     0.256370     Total SCF correction =     0.002419
     Energy error            =      5.3E-01 Ry
     Gradient error          =      1.4E-01 Ry/Bohr

     number of scf cycles    =   2
     number of bfgs steps    =   1

     energy             old  =   -2245.7069379660 Ry
     energy             new  =   -2246.2380505588 Ry

     CASE: energy            _new < energy            _old

     new trust radius        =       0.0786823388 bohr
     new conv_thr            =       0.0000001396 Ry


ATOMIC_POSITIONS (angstrom)
Mo            6.5775786073        1.7781249935        2.8064062143
S             8.3441853385        0.7236584680        4.3084627662
S             8.1844538513        0.8178754131        1.2661955330
Mo            8.0970375938        4.4937260484        2.7169069995
S             6.4933545908        3.7289038772        4.3356100473
S             6.5526055018        3.5143596445        1.1213752358
Mo            6.4946159039        7.2084395966        2.6675538163
S             8.0826575285        6.3412004690        4.2533176156
S             8.0890074415        6.3101427057        1.0907624991
Mo            8.1408890126        9.8822457311        2.8123357419
S             6.4979721283        8.9429002234        4.3814371616
S             6.6175954555        9.0499454483        1.1413842995
Mo            3.4247309185        1.7494324707        2.7702831258
S             4.9589065016        0.8140047156        4.3456838092
S             5.0517034988        0.8514727301        1.2206926615
Mo            4.9820171883        4.5234279895        2.6376990119
S             3.4318187188        3.6721207274        4.2815240285
S             3.4336123794        3.5435470425        1.0647509760
Mo            3.4564860406        7.2112954609        2.6271257133
S             4.9856924145        6.3240065479        1.0364921599
Mo            5.0094221027        9.9060867255        2.7433196495
S             3.4688276518        8.9431452827        4.3236749040
S             3.4072195826        9.0654330155        1.1011479757
Mo            0.3026452288        1.7766578618        2.8198029202
S             1.8705867258        0.8007782391        4.4030151122
S             1.8557654979        0.8517200346        1.2059936721
Mo            1.8604534155        4.4972826864        2.6627376544
S             0.2725092684        3.6533535283        4.3372066478
S             0.2337043253        3.5260925688        1.1673646616
Mo            0.2702283937        7.2207658639        2.6983433617
S             1.9023520167        6.3136667026        4.2333063390
S             1.8565511087        6.3133249760        1.0496924380
Mo            1.8547300743        9.9369763280        2.7698992540
S             0.3018955349        9.0573286764        4.4089057731
S             0.2737528353        9.0477462998        1.1581226157
O             7.1900404130        1.3040795403        5.3222151815



     Writing config-only to output data dir ./MoS2-V-O.save/
     NEW-OLD atomic charge density approx. for the potential

     negative rho (up, down):  1.766E-04 0.000E+00

     total cpu time spent up to now is      307.0 secs

     Self-consistent Calculation

     iteration #  1     ecut=    80.00 Ry     beta= 0.70
     Davidson diagonalization with overlap
     ethr =  1.00E-06,  avg # of iterations = 14.0

     negative rho (up, down):  2.300E-04 0.000E+00

     total cpu time spent up to now is      322.6 secs

     total energy              =   -2246.26733622 Ry
     estimated scf accuracy    <       0.00519135 Ry

     iteration #  2     ecut=    80.00 Ry     beta= 0.70
     Davidson diagonalization with overlap
     ethr =  1.66E-06,  avg # of iterations =  4.0

     negative rho (up, down):  2.478E-04 0.000E+00

     total cpu time spent up to now is      335.7 secs

     total energy              =   -2246.26765152 Ry
     estimated scf accuracy    <       0.00271207 Ry

     iteration #  3     ecut=    80.00 Ry     beta= 0.70
     Davidson diagonalization with overlap
     ethr =  8.69E-07,  avg # of iterations =  3.0

     negative rho (up, down):  2.763E-04 0.000E+00

     total cpu time spent up to now is      352.6 secs

     total energy              =   -2246.26786319 Ry
     estimated scf accuracy    <       0.00032515 Ry

     iteration #  4     ecut=    80.00 Ry     beta= 0.70
     Davidson diagonalization with overlap
     ethr =  1.04E-07,  avg # of iterations =  5.0

     negative rho (up, down):  2.867E-04 0.000E+00

     total cpu time spent up to now is      366.7 secs

     total energy              =   -2246.26790660 Ry
     estimated scf accuracy    <       0.00002509 Ry

     iteration #  5     ecut=    80.00 Ry     beta= 0.70
     Davidson diagonalization with overlap
     ethr =  8.04E-09,  avg # of iterations =  5.0

     negative rho (up, down):  2.850E-04 0.000E+00

     total cpu time spent up to now is      386.5 secs

     total energy              =   -2246.26791628 Ry
     estimated scf accuracy    <       0.00000581 Ry

     iteration #  6     ecut=    80.00 Ry     beta= 0.70
     Davidson diagonalization with overlap
     ethr =  1.86E-09,  avg # of iterations =  2.0

     negative rho (up, down):  2.788E-04 0.000E+00

     total cpu time spent up to now is      401.7 secs

     total energy              =   -2246.26791669 Ry
     estimated scf accuracy    <       0.00000121 Ry

     iteration #  7     ecut=    80.00 Ry     beta= 0.70
     Davidson diagonalization with overlap
     ethr =  3.88E-10,  avg # of iterations =  5.0

     negative rho (up, down):  2.710E-04 0.000E+00

     total cpu time spent up to now is      417.4 secs

     total energy              =   -2246.26791698 Ry
     estimated scf accuracy    <       0.00000015 Ry

     iteration #  8     ecut=    80.00 Ry     beta= 0.70
     Davidson diagonalization with overlap
     ethr =  4.71E-11,  avg # of iterations =  6.0

     negative rho (up, down):  1.909E-04 0.000E+00

     total cpu time spent up to now is      422.4 secs

     End of self-consistent calculation

          k = 0.0000 0.0000 0.0000 (105382 PWs)   bands (ev):

   -63.0874 -62.9912 -62.9826 -62.9677 -62.9642 -62.9490 -62.9432 -62.8901
   -62.8769 -62.8415 -62.8360 -62.8272 -37.3663 -37.3123 -37.3080 -37.2704
   -37.2503 -37.2384 -37.2345 -37.2207 -37.2064 -37.1852 -37.1762 -37.1707
   -37.1628 -37.1522 -37.1425 -37.1390 -37.1207 -37.1180 -37.1083 -37.0850
   -37.0534 -37.0462 -37.0324 -37.0283 -37.0209 -37.0115 -37.0030 -37.0015
   -36.9926 -36.9865 -36.9704 -36.9503 -36.9431 -36.8943 -36.8299 -36.8049
   -21.0321 -16.0380 -15.3003 -15.1919 -15.0859 -15.0484 -14.8367 -14.6145
   -14.5890 -14.5439 -14.5315 -14.4676 -14.4515 -14.3955 -14.3187 -14.2448
   -14.2152 -14.1912 -14.1213 -14.0292 -13.9639 -13.9309 -13.8974 -13.7757
    -7.9045  -7.8486  -7.7157  -7.5643  -7.4407  -7.3781  -7.3171  -7.2484
    -7.1789  -6.9932  -6.9221  -6.8962  -6.8503  -6.8084  -6.6360  -6.6269
    -6.5734  -6.5603  -6.4330  -6.3766  -6.0991  -6.0815  -6.0091  -5.9603
    -5.9372  -5.9061  -5.8234  -5.7796  -5.7427  -5.6971  -5.6944  -5.6572
    -5.5802  -5.5427  -5.4511  -5.3644  -5.2816  -5.2295  -5.1990  -5.0971
    -5.0814  -5.0351  -4.9204  -4.8231  -4.7144  -4.6313  -4.4322  -4.4172
    -4.3760  -4.3582  -4.2465  -4.2266  -4.0574  -3.9897  -3.9244  -3.8771
    -3.8532  -3.7822  -3.7545  -3.7033  -3.6558  -3.6068  -3.5906  -3.5440
    -3.5193  -3.4777  -3.3904  -3.3392  -3.0688  -3.0482  -2.9863  -2.9593
    -2.8918  -2.8711  -2.8432  -2.8277  -2.7186  -2.6539  -2.4981  -2.3510
    -2.1556  -2.0838  -2.0504  -1.3351  -1.0141  -0.8320  -0.5951  -0.3047
    -0.2582  -0.1956  -0.1158  -0.0592   0.0116   0.0990   0.1591   0.1761
     0.1978   0.2786   0.3615   0.4175   0.4415   0.4658   0.4749   0.5380
     0.5833   0.6398   0.6657   0.7198   0.7503   0.7924   0.8386   0.8733
     0.9178   1.0998   1.2636

     the Fermi energy is    -1.1747 ev

!    total energy              =   -2246.26791718 Ry
     estimated scf accuracy    <       0.00000006 Ry
     smearing contrib. (-TS)   =      -0.00281608 Ry
     internal energy E=F+TS    =   -2246.26510110 Ry

     The total energy is F=E-TS. E is the sum of the following terms:
     one-electron contribution =  -18481.18754763 Ry
     hartree contribution      =    9228.51381236 Ry
     xc contribution           =    -392.11031199 Ry
     ewald contribution        =    7408.38335672 Ry
     one-center paw contrib.   =      -9.86441056 Ry

     convergence has been achieved in   8 iterations

     negative rho (up, down):  1.909E-04 0.000E+00

     Forces acting on atoms (cartesian axes, Ry/au):

     atom    1 type  1   force =     0.00168959   -0.01256775   -0.00297021
     atom    2 type  2   force =    -0.07970701    0.03747455    0.09280109
     atom    3 type  2   force =    -0.01043592    0.00785546   -0.01659182
     atom    4 type  1   force =     0.00613482   -0.00150778   -0.00031553
     atom    5 type  2   force =    -0.00658119    0.00472803   -0.01500362
     atom    6 type  2   force =    -0.00214494    0.00363467    0.00067731
     atom    7 type  1   force =     0.00387984   -0.01036736   -0.00112687
     atom    8 type  2   force =     0.00198060   -0.00467524    0.01134101
     atom    9 type  2   force =     0.01157613    0.00582066    0.00647176
     atom   10 type  1   force =    -0.01094643   -0.01018110   -0.01994966
     atom   11 type  2   force =     0.00305903   -0.00144699   -0.00683674
     atom   12 type  2   force =    -0.00731107   -0.00289810   -0.00528195
     atom   13 type  1   force =     0.00212990    0.00318632   -0.00682183
     atom   14 type  2   force =    -0.01357939   -0.00221466   -0.00810131
     atom   15 type  2   force =    -0.00699302    0.00604633   -0.00991864
     atom   16 type  1   force =     0.00086502    0.01259651    0.00282481
     atom   17 type  2   force =     0.00565179    0.00116450    0.00229630
     atom   18 type  2   force =    -0.00402803   -0.00304652    0.00781936
     atom   19 type  1   force =     0.00206109   -0.00623668   -0.00108731
     atom   20 type  2   force =     0.00339983   -0.00395735   -0.00373470
     atom   21 type  1   force =    -0.00321641    0.00296082    0.00030412
     atom   22 type  2   force =    -0.00156848   -0.00181973   -0.00331977
     atom   23 type  2   force =    -0.00016638   -0.00050331    0.00378693
     atom   24 type  1   force =     0.00001524    0.01627097   -0.01949457
     atom   25 type  2   force =     0.02039089    0.01251604   -0.00283570
     atom   26 type  2   force =    -0.00348579   -0.00308692   -0.00865505
     atom   27 type  1   force =    -0.00167683    0.00267079    0.00499624
     atom   28 type  2   force =     0.00049478   -0.00048377   -0.00262364
     atom   29 type  2   force =     0.00478786    0.00732828   -0.01308639
     atom   30 type  1   force =     0.00057286   -0.00117992    0.00199438
     atom   31 type  2   force =     0.00061146    0.00124066    0.01138637
     atom   32 type  2   force =    -0.00709034    0.00395285    0.00534325
     atom   33 type  1   force =     0.00484201   -0.00081445    0.00323678
     atom   34 type  2   force =     0.00268873   -0.03751402   -0.01555879
     atom   35 type  2   force =    -0.00199000    0.00510850    0.00415303
     atom   36 type  3   force =     0.08408976   -0.03005426    0.00388136
     The non-local contrib.  to forces
     atom    1 type  1   force =    -0.00585338    0.03614350   -0.02602841
     atom    2 type  2   force =    -0.42228018    0.21885003    0.13434144
     atom    3 type  2   force =    -0.00761530   -0.00755891    0.26299920
     atom    4 type  1   force =    -0.00574633    0.00936777    0.00515076
     atom    5 type  2   force =     0.00959188    0.00771504   -0.25662038
     atom    6 type  2   force =    -0.00291798   -0.00074997    0.26800875
     atom    7 type  1   force =    -0.02132613    0.00150585   -0.01973691
     atom    8 type  2   force =     0.00659793   -0.00411831   -0.25940412
     atom    9 type  2   force =     0.00568689   -0.01065485    0.27580383
     atom   10 type  1   force =     0.01091935    0.01368168   -0.00596693
     atom   11 type  2   force =     0.01270538    0.00322205   -0.26646235
     atom   12 type  2   force =    -0.01563640   -0.01996787    0.25637160
     atom   13 type  1   force =     0.00545316    0.01163380   -0.01275318
     atom   14 type  2   force =    -0.03521024   -0.02481077   -0.26226930
     atom   15 type  2   force =    -0.00158410   -0.00218777    0.26559885
     atom   16 type  1   force =    -0.00012641    0.02529999   -0.03683365
[...]
     atom   28 type  2   force =    -0.00027744   -0.01235533   -0.27818408
     atom   29 type  2   force =     0.00059610   -0.00916316    0.26685942
     atom   30 type  1   force =     0.00525305    0.01823247    0.00284964
     atom   31 type  2   force =    -0.01050229    0.00169172   -0.26773769
     atom   32 type  2   force =     0.00791995   -0.01437145    0.26874438
     atom   33 type  1   force =    -0.00286634    0.00657145    0.00135539
     atom   34 type  2   force =    -0.00088873   -0.00792781   -0.27927741
     atom   35 type  2   force =    -0.00133932   -0.01131607    0.26469015
     atom   36 type  3   force =    -0.02573407   -0.04589866   -2.32101636
     The ionic contribution  to forces
     atom    1 type  1   force =    -1.08222342    1.17693866   -1.92576178
     atom    2 type  2   force =    -0.27826559   -0.11234906   28.59983418
     atom    3 type  2   force =     0.04629717   -0.16811313  -38.22440105
     atom    4 type  1   force =    -0.12495542    1.26237829   -0.96541341
     atom    5 type  2   force =    -1.35732139    2.13673488   37.65881621
     atom    6 type  2   force =     0.22039198   -0.16677248  -38.99048663
     atom    7 type  1   force =    -2.78091050   -2.35251806    1.99680762
     atom    8 type  2   force =    -1.20203088    0.10318457   38.00249194
     atom    9 type  2   force =     0.37050817    0.09357723  -38.16368270
     atom   10 type  1   force =    -0.49515003   -1.59741198   -0.66633704
     atom   11 type  2   force =    -1.00823353   -2.26142993   37.99489391
     atom   12 type  2   force =     0.12944873    0.20108686  -38.57979329
     atom   13 type  1   force =     0.11889956    0.99134197    0.61341686
     atom   14 type  2   force =    -0.98288629   -0.08517558   37.79788773
     atom   15 type  2   force =    -0.02976556   -0.22198701  -38.40387535
     atom   16 type  1   force =    -0.38758005    3.83096717    0.02281565
     atom   17 type  2   force =     0.82925616    1.43964557   37.86181563
     atom   18 type  2   force =    -0.24123000   -0.21080383  -38.61454018
     atom   19 type  1   force =     2.64650724   -2.02269355    2.51671032
     atom   20 type  2   force =    -0.05555558    0.08635803  -39.12944348
     atom   21 type  1   force =    -0.51891574   -0.82469263   -0.32831010
     atom   22 type  2   force =     0.46583741   -1.65758150   38.35773051
     atom   23 type  2   force =    -0.22025353    0.15677488  -38.19453590
     atom   24 type  1   force =     0.97227167    0.94742738   -2.33966046
     atom   25 type  2   force =     1.18446490    0.08316951   38.08271376
     atom   26 type  2   force =    -0.02072434   -0.19408149  -38.34903784
     atom   27 type  1   force =     0.50231149    0.86053630   -0.58641095
     atom   28 type  2   force =     0.53233234    1.50232592   37.48125389
     atom   29 type  2   force =     0.02516553    0.11900079  -38.51227224
     atom   30 type  1   force =     0.17303821   -1.17534135    1.99540095
     atom   31 type  2   force =     1.30842210    0.07431863   38.21747572
     atom   32 type  2   force =    -0.31268662    0.08514294  -38.18470347
     atom   33 type  1   force =     1.03226190   -0.97906706    2.09820739
     atom   34 type  2   force =     0.56365789   -1.40368859   38.47645591
     atom   35 type  2   force =     0.08978343    0.01983168  -38.10455825
     atom   36 type  3   force =    -0.11216742    0.26296597   50.48849593
     The local contribution  to forces
     atom    1 type  1   force =     1.07414310   -1.18882082    1.91168228
     atom    2 type  2   force =     0.27188438    0.10298114  -28.88719768
     atom    3 type  2   force =    -0.04409884    0.17763176   37.96768701
     atom    4 type  1   force =     0.12097262   -1.26572489    0.96238122
     atom    5 type  2   force =     1.35247353   -2.11632444  -37.42160398
     atom    6 type  2   force =    -0.21946583    0.16923821   38.74740107
     atom    7 type  1   force =     2.80052071    2.35255929   -1.96929703
     atom    8 type  2   force =     1.19458820   -0.10548027  -37.75570561
     atom    9 type  2   force =    -0.36353383   -0.07964654   37.91288548
     atom   10 type  1   force =     0.49310183    1.58103482    0.65029638
     atom   11 type  2   force =     1.00152579    2.26117280  -37.75250071
     atom   12 type  2   force =    -0.12197992   -0.18848499   38.33567619
     atom   13 type  1   force =    -0.12043487   -1.01699113   -0.61598169
     atom   14 type  2   force =     0.98262117    0.09035970  -37.54447434
     atom   15 type  2   force =     0.03058007    0.23056391   38.16428667
     atom   16 type  1   force =     0.38736281   -3.86462028    0.01064775
     atom   17 type  2   force =    -0.82457282   -1.41692521  -37.62371795
     atom   18 type  2   force =     0.24084982    0.21666105   38.36782366
     atom   19 type  1   force =    -2.66160299    2.01881328   -2.49038370
     atom   20 type  2   force =     0.05587908   -0.07205924   38.88837808
     atom   21 type  1   force =     0.51908558    0.79471125    0.32602804
     atom   22 type  2   force =    -0.46046484    1.65741868  -38.11629964
     atom   23 type  2   force =     0.21215737   -0.14461378   37.94874493
     atom   24 type  1   force =    -0.96385554   -0.95474958    2.32019152
     atom   25 type  2   force =    -1.18553662   -0.07476414  -37.83123386
     atom   26 type  2   force =     0.01723823    0.20242610   38.10589248
     atom   27 type  1   force =    -0.49876216   -0.86676133    0.58015953
     atom   28 type  2   force =    -0.53193550   -1.49144619  -37.22462304
     atom   29 type  2   force =    -0.02532214   -0.11035067   38.26645266
     atom   30 type  1   force =    -0.17872358    1.15778857   -1.99888054
     atom   31 type  2   force =    -1.29917300   -0.07698659  -37.97107219
     atom   32 type  2   force =     0.30548332   -0.07182945   37.93616407
     atom   33 type  1   force =    -1.02878210    0.97282652   -2.10032294
     atom   34 type  2   force =    -0.56198083    1.41095983  -38.21973095
     atom   35 type  2   force =    -0.08881850   -0.00770225   37.85993232
     atom   36 type  3   force =     0.13720081   -0.21792480  -48.19070883
     The core correction contribution to forces
     atom    1 type  1   force =     0.00000000    0.00000000    0.00000000
     atom    2 type  2   force =    -0.00039572   -0.00049494   -0.00972811
     atom    3 type  2   force =     0.00013571    0.00026334   -0.02136783
     atom    4 type  1   force =     0.00000000    0.00000000    0.00000000
     atom    5 type  2   force =    -0.00047610    0.00095641    0.02069517
     atom    6 type  2   force =     0.00027712   -0.00025211   -0.02086723
     atom    7 type  1   force =     0.00000000    0.00000000    0.00000000
     atom    8 type  2   force =    -0.00040299    0.00016786    0.02094474
     atom    9 type  2   force =     0.00075219    0.00086091   -0.02101078
     atom   10 type  1   force =     0.00000000    0.00000000    0.00000000
     atom   11 type  2   force =    -0.00019166   -0.00020234    0.02092417
     atom   12 type  2   force =     0.00064543    0.00094410   -0.02086932
     atom   13 type  1   force =     0.00000000    0.00000000    0.00000000
     atom   14 type  2   force =     0.00001385    0.00000879    0.02139512
     atom   15 type  2   force =     0.00004286    0.00032760   -0.02059848
     atom   16 type  1   force =     0.00000000    0.00000000    0.00000000
     atom   17 type  2   force =     0.00051516    0.00103885    0.02055529
     atom   18 type  2   force =    -0.00021286   -0.00014875   -0.02092332
     atom   19 type  1   force =     0.00000000    0.00000000    0.00000000
     atom   20 type  2   force =    -0.00000818    0.00075491   -0.02122949
     atom   21 type  1   force =     0.00000000    0.00000000    0.00000000
     atom   22 type  2   force =     0.00012096   -0.00026478    0.02076050
     atom   23 type  2   force =    -0.00078309    0.00089946   -0.02091279
     atom   24 type  1   force =     0.00000000    0.00000000    0.00000000
     atom   25 type  2   force =    -0.00007107    0.00045624    0.02130136
     atom   26 type  2   force =    -0.00018472    0.00018040   -0.02076740
     atom   27 type  1   force =     0.00000000    0.00000000    0.00000000
     atom   28 type  2   force =    -0.00001802    0.00078605    0.02149186
     atom   29 type  2   force =    -0.00007157    0.00035311   -0.02079437
     atom   30 type  1   force =     0.00000000    0.00000000    0.00000000
     atom   31 type  2   force =     0.00053210    0.00011093    0.02099205
     atom   32 type  2   force =    -0.00070907    0.00083039   -0.02099464
     atom   33 type  1   force =     0.00000000    0.00000000    0.00000000
     atom   34 type  2   force =     0.00005202    0.00036222    0.02162339
     atom   35 type  2   force =     0.00011435    0.00067394   -0.02089632
     atom   36 type  3   force =     0.00027445    0.00047228    0.02460528
     The Hubbard contrib.    to forces
     atom    1 type  1   force =     0.00000000    0.00000000    0.00000000
     atom    2 type  2   force =     0.00000000    0.00000000    0.00000000
     atom    3 type  2   force =     0.00000000    0.00000000    0.00000000
     atom    4 type  1   force =     0.00000000    0.00000000    0.00000000
     atom    5 type  2   force =     0.00000000    0.00000000    0.00000000
     atom    6 type  2   force =     0.00000000    0.00000000    0.00000000
     atom    7 type  1   force =     0.00000000    0.00000000    0.00000000
     atom    8 type  2   force =     0.00000000    0.00000000    0.00000000
     atom    9 type  2   force =     0.00000000    0.00000000    0.00000000
     atom   10 type  1   force =     0.00000000    0.00000000    0.00000000
     atom   11 type  2   force =     0.00000000    0.00000000    0.00000000
     atom   12 type  2   force =     0.00000000    0.00000000    0.00000000
     atom   13 type  1   force =     0.00000000    0.00000000    0.00000000
     atom   14 type  2   force =     0.00000000    0.00000000    0.00000000
     atom   15 type  2   force =     0.00000000    0.00000000    0.00000000
     atom   16 type  1   force =     0.00000000    0.00000000    0.00000000
     atom   17 type  2   force =     0.00000000    0.00000000    0.00000000
     atom   18 type  2   force =     0.00000000    0.00000000    0.00000000
     atom   19 type  1   force =     0.00000000    0.00000000    0.00000000
     atom   20 type  2   force =     0.00000000    0.00000000    0.00000000
     atom   21 type  1   force =     0.00000000    0.00000000    0.00000000
     atom   22 type  2   force =     0.00000000    0.00000000    0.00000000
     atom   23 type  2   force =     0.00000000    0.00000000    0.00000000
     atom   24 type  1   force =     0.00000000    0.00000000    0.00000000
     atom   25 type  2   force =     0.00000000    0.00000000    0.00000000
     atom   26 type  2   force =     0.00000000    0.00000000    0.00000000
     atom   27 type  1   force =     0.00000000    0.00000000    0.00000000
     atom   28 type  2   force =     0.00000000    0.00000000    0.00000000
     atom   29 type  2   force =     0.00000000    0.00000000    0.00000000
     atom   30 type  1   force =     0.00000000    0.00000000    0.00000000
     atom   31 type  2   force =     0.00000000    0.00000000    0.00000000
     atom   32 type  2   force =     0.00000000    0.00000000    0.00000000
     atom   33 type  1   force =     0.00000000    0.00000000    0.00000000
     atom   34 type  2   force =     0.00000000    0.00000000    0.00000000
     atom   35 type  2   force =     0.00000000    0.00000000    0.00000000
     atom   36 type  3   force =     0.00000000    0.00000000    0.00000000
     The SCF correction term to forces
     atom    1 type  1   force =    -0.00001016    0.00003440   -0.00005022
     atom    2 type  2   force =     0.00001382    0.00000577   -0.00001269
     atom    3 type  2   force =    -0.00000142    0.00000873   -0.00001112
     atom    4 type  1   force =     0.00002278    0.00003186   -0.00001703
     atom    5 type  2   force =     0.00000485    0.00002005   -0.00000728
     atom    6 type  2   force =    -0.00000256    0.00001469   -0.00001888
     atom    7 type  1   force =    -0.00001661   -0.00002333   -0.00003061
     atom    8 type  2   force =     0.00001765    0.00000062   -0.00001176
     atom    9 type  2   force =     0.00000110   -0.00000513    0.00000580
     atom   10 type  1   force =     0.00001353   -0.00005153   -0.00001368
     atom   11 type  2   force =    -0.00000123   -0.00001990   -0.00001733
     atom   12 type  2   force =    -0.00000849   -0.00001472   -0.00000230
     atom   13 type  1   force =    -0.00001127    0.00002620   -0.00002698
     atom   14 type  2   force =    -0.00001902   -0.00000203   -0.00001364
     atom   15 type  2   force =    -0.00001055    0.00000388   -0.00001242
     atom   16 type  1   force =    -0.00002410    0.00003407   -0.00004248
     atom   17 type  2   force =    -0.00002156    0.00001393   -0.00001165
     atom   18 type  2   force =    -0.00001095    0.00001610   -0.00000804
     atom   19 type  1   force =    -0.00002375   -0.00002451   -0.00001062
     atom   20 type  2   force =    -0.00000849   -0.00000108   -0.00000773
     atom   21 type  1   force =    -0.00002390   -0.00003475   -0.00002290
     atom   22 type  2   force =    -0.00001048   -0.00001894   -0.00001850
     atom   23 type  2   force =     0.00000254   -0.00001855    0.00000406
     atom   24 type  1   force =     0.00004294    0.00004127   -0.00001722
     atom   25 type  2   force =    -0.00000021    0.00000107   -0.00001689
     atom   26 type  2   force =     0.00000280    0.00001014    0.00000813
     atom   27 type  1   force =    -0.00000127    0.00002978   -0.00002053
     atom   28 type  2   force =     0.00001390    0.00001894   -0.00001728
     atom   29 type  2   force =     0.00001328    0.00001361    0.00000866
     atom   30 type  1   force =     0.00001465   -0.00003346    0.00001258
     atom   31 type  2   force =    -0.00000181   -0.00000255   -0.00001633
     atom   32 type  2   force =     0.00001161   -0.00001054    0.00001274
     atom   33 type  1   force =     0.00001065   -0.00003104   -0.00000378
     atom   34 type  2   force =     0.00001368   -0.00002665   -0.00001474
     atom   35 type  2   force =     0.00000694   -0.00001807    0.00001508
     atom   36 type  3   force =     0.00000758    0.00002060   -0.00000859

     Total force =     0.006791     Total SCF correction =     0.000195
     Energy error            =      9.0E-05 Ry
     Gradient error          =      2.3E-03 Ry/Bohr

     bfgs converged in  26 scf cycles and  25 bfgs steps
     (criteria: energy <  1.0E-04 Ry, force <  1.0E-02 Ry/Bohr)

     End of BFGS Geometry Optimization

     Final energy             =   -2246.4498135540 Ry

     File ./MoS2-V-O.bfgs deleted, as requested
Begin final coordinates

ATOMIC_POSITIONS (angstrom)
Mo            6.5197423953        1.7875359501        2.7291477119
S             8.1118467278        0.8663333972        4.2595838468
S             8.1217455560        0.8419594657        1.1708741556
Mo            8.0989164861        4.5045062234        2.7037627894
S             6.4908916412        3.6790162066        4.2968185213
S             6.5346935293        3.5910332490        1.0784266489
Mo            6.4875188811        7.1933027118        2.6700409221
S             8.0583915051        6.3102376005        4.3035472136
S             8.1236462825        6.3457992124        1.1213741645
Mo            8.1181038491        9.9149135140        2.7562920109
S             6.4973484672        8.9570464873        4.3236304148
S             6.5592057640        9.0276771353        1.1181485983
Mo            3.4055062282        1.7577202620        2.7386004543
S             4.9774863609        0.8368710916        4.3288096664
S             4.9643018542        0.8386679037        1.1439993556
Mo            4.9742524780        4.5488315184        2.6335739784
S             3.4504021670        3.6699573590        4.2867909612
S             3.4085452179        3.5723135060        1.0926387766
Mo            3.4566193753        7.1901549887        2.6757676002
S             4.9699373194        6.3320584607        1.0358105839
Mo            4.9733505195        9.9193619337        2.7239279030
S             3.4490273563        8.9625575185        4.3278758056
S             3.3712161727        9.0360281983        1.1340751281
Mo            0.2673429662        1.7758588613        2.7341067527
S             1.8309135831        0.8743842513        4.3531371596
S             1.8366326247        0.8334294379        1.1548915235
Mo            1.8439761089        4.5072472296        2.7025739603
S             0.2445543280        3.6210108497        4.3086501579
S             0.2448140209        3.5921376337        1.1222195566
Mo            0.2533297645        7.2275389176        2.7512805252
S             1.8959090834        6.3076145723        4.3097477204
S             1.8320067080        6.3435057142        1.1216518799
Mo            1.8265699390        9.9464232550        2.7740475628
S             0.2408559822        9.0385659931        4.3764677584
S             0.2599660803        9.0419363475        1.1711664367
O             8.1280374665        0.9017316756        5.7572893710
End final coordinates



     Writing all to output data dir ./MoS2-V-O.save/
 
     init_run     :      4.77s CPU      5.31s WALL (       1 calls)
     electrons    :   2592.76s CPU   2953.04s WALL (      26 calls)
     update_pot   :     82.18s CPU     88.17s WALL (      25 calls)
     forces       :     80.72s CPU     93.76s WALL (      26 calls)

     Called by init_run:
     wfcinit      :      0.53s CPU      0.58s WALL (       1 calls)
     potinit      :      2.45s CPU      2.71s WALL (       1 calls)
     hinit0       :      0.43s CPU      0.46s WALL (       1 calls)

     Called by electrons:
     c_bands      :    388.61s CPU    398.12s WALL (     244 calls)
     sum_band     :    153.82s CPU    218.00s WALL (     244 calls)
     v_of_rho     :    319.98s CPU    386.96s WALL (     262 calls)
     newd         :     98.71s CPU    153.51s WALL (     262 calls)
     PAW_pot      :     10.33s CPU     10.37s WALL (     287 calls)
     mix_rho      :   1654.98s CPU   1824.04s WALL (     244 calls)

     Called by c_bands:
     init_us_2    :      5.59s CPU      6.01s WALL (     514 calls)
     init_us_2:cp :      5.59s CPU      6.00s WALL (     514 calls)
     regterg      :    370.31s CPU    379.37s WALL (     244 calls)

     Called by *egterg:
     rdiaghg      :     23.73s CPU     24.00s WALL (    1337 calls)
     h_psi        :    234.00s CPU    236.03s WALL (    1371 calls)
     s_psi        :     20.38s CPU     20.45s WALL (    1371 calls)
     g_psi        :      1.72s CPU      1.73s WALL (    1126 calls)

     Called by h_psi:
     h_psi:calbec :     23.86s CPU     24.01s WALL (    1371 calls)
     vloc_psi     :    186.09s CPU    187.82s WALL (    1371 calls)
     add_vuspsi   :     20.42s CPU     20.55s WALL (    1371 calls)

     General routines
     calbec       :     34.39s CPU     34.63s WALL (    1744 calls)
     fft          :    215.29s CPU    241.16s WALL (   17497 calls)
     ffts         :    738.60s CPU    901.60s WALL (  398894 calls)
     fftw         :    129.66s CPU    130.70s WALL (  150212 calls)
     interpolate  :      3.32s CPU      3.84s WALL (     262 calls)
 
     Parallel routines
 
     PWSCF        :  46m13.43s CPU  52m40.04s WALL

 
   This run was terminated on:  13:25: 2   1Nov2023            

=------------------------------------------------------------------------------=
   JOB DONE.
=------------------------------------------------------------------------------=
