
     Program PWSCF v.7.2 starts on  1Nov2023 at 22:48: 5 

     This program is part of the open-source Quantum ESPRESSO suite
     for quantum simulation of materials; please cite
         "P. Giannozzi et al., J. Phys.:Condens. Matter 21 395502 (2009);
         "P. Giannozzi et al., J. Phys.:Condens. Matter 29 465901 (2017);
         "P. Giannozzi et al., J. Chem. Phys. 152 154105 (2020);
          URL http://www.quantum-espresso.org", 
     in publications or presentations arising from this work. More details at
     http://www.quantum-espresso.org/quote

     Parallel version (MPI & OpenMP), running on      48 processor cores
     Number of MPI processes:                48
     Threads/MPI process:                     1

     MPI processes distributed on     1 nodes
     149521 MiB available memory on the printing compute node when the environment starts
 
     Waiting for input...
     Reading input from standard input
Warning: card &CELL ignored
Warning: card CELL_DYNAMICS = 'BFGS', ignored
Warning: card CELL_DOFREE = '2DXY' ignored
Warning: card / ignored

     Current dimensions of program PWSCF are:
     Max number of different atomic species (ntypx) = 10
     Max number of k-points (npk) =  40000
     Max angular momentum in pseudopotentials (lmaxx) =  4
     file O.pbe-n-kjpaw_psl.0.1.UPF: wavefunction(s)  2P renormalized

     IMPORTANT: XC functional enforced from input :
     Exchange-correlation= RVV10
                           (   1   4  13   4  26   0   0)
     Any further DFT definition will be discarded
     Please, verify this is what you really want


     gamma-point specific algorithms are used
     signal trapping enabled: kill the code with -SIGUSR1 to stop cleanly the simulation 
 
     R & G space division:  proc/nbgrp/npool/nimage =      48
     Subspace diagonalization in iterative solution of the eigenvalue problem:
     one sub-group per band group will be used
     scalapack distributed-memory algorithm (size of sub-group:  2*  2 procs)

 
     Parallelization info
     --------------------
     sticks:   dense  smooth     PW     G-vecs:    dense   smooth      PW
     Min         396     194     47               101632    35090    4376
     Max         398     196     50               101674    35128    4410
     Sum       19091    9389   2349              4879585  1685513  210763
 
     Using Slab Decomposition
 


     bravais-lattice index     =            0
     lattice parameter (alat)  =      17.8707  a.u.
     unit-cell volume          =   17436.2743 (a.u.)^3
     number of atoms/cell      =           36
     number of atomic types    =            3
     number of electrons       =       312.00
     number of Kohn-Sham states=          187
     kinetic-energy cutoff     =      80.0000  Ry
     charge density cutoff     =     650.0000  Ry
     scf convergence threshold =      1.0E-06
     mixing beta               =       0.7000
     number of iterations used =            8  local-TF  mixing
     energy convergence thresh.=      1.0E-04
     force convergence thresh. =      1.0E-02
     Exchange-correlation= RVV10
                           (   1   4  13   4  26   0   0)
     nstep                     =          200


     celldm(1)=  17.870686  celldm(2)=   0.000000  celldm(3)=   0.000000
     celldm(4)=   0.000000  celldm(5)=   0.000000  celldm(6)=   0.000000

     crystal axes: (cart. coord. in units of alat)
               a(1) = (   1.000000   0.000000   0.000000 )  
               a(2) = (   0.000000   1.155671   0.000000 )  
               a(3) = (   0.000000   0.000000   2.643601 )  

     reciprocal axes: (cart. coord. in units 2 pi/alat)
               b(1) = (  1.000000  0.000000  0.000000 )  
               b(2) = (  0.000000  0.865298  0.000000 )  
               b(3) = (  0.000000  0.000000  0.378272 )  


     PseudoPot. # 1 for Mo read from file:
     ../pseudo/Mo_ONCV_PBE-1.0.oncvpsp.upf
     MD5 check sum: 1b5d28e075c9ccadda658a603575cd1f
     Pseudo is Norm-conserving, Zval = 14.0
     Generated using ONCVPSP code by D. R. Hamann
     Using radial grid of 1526 points,  6 beta functions with: 
                l(1) =   0
                l(2) =   0
                l(3) =   1
                l(4) =   1
                l(5) =   2
                l(6) =   2

     PseudoPot. # 2 for S  read from file:
     ../pseudo/s_pbe_v1.4.uspp.F.UPF
     MD5 check sum: 88d86576ff6df21479756cfb9bdac1df
     Pseudo is Ultrasoft + core correction, Zval =  6.0
     Generated by new atomic code, or converted to UPF format
     Using radial grid of  907 points,  6 beta functions with: 
                l(1) =   0
                l(2) =   0
                l(3) =   1
                l(4) =   1
                l(5) =   2
                l(6) =   2
     Q(r) pseudized with  8 coefficients,  rinner =    1.300   1.300   1.300
                                                       1.300   1.300

     PseudoPot. # 3 for O  read from file:
     ../pseudo/O.pbe-n-kjpaw_psl.0.1.UPF
     MD5 check sum: 0234752ac141de4415c5fc33072bef88
     Pseudo is Projector augmented-wave + core cor, Zval =  6.0
     Generated using "atomic" code by A. Dal Corso  v.5.0.99 svn rev. 10869
     Shape of augmentation charge: BESSEL
     Using radial grid of 1095 points,  4 beta functions with: 
                l(1) =   0
                l(2) =   0
                l(3) =   1
                l(4) =   1
     Q(r) pseudized with 0 coefficients 


     atomic species   valence    mass     pseudopotential
        Mo            14.00    95.94000     Mo( 1.00)
        S              6.00    32.06500     S ( 1.00)
        O              6.00    15.99940     O ( 1.00)

     No symmetry found



   Cartesian axes

     site n.     atom                  positions (alat units)
         1           Mo  tau(   1) = (   0.6952221   0.1890506   0.2985846  )
         2           S   tau(   2) = (   0.8646417   0.0856217   0.4689279  )
         3           S   tau(   3) = (   0.8663890   0.0857843   0.1351291  )
         4           Mo  tau(   4) = (   0.8560186   0.4753274   0.2873942  )
         5           S   tau(   5) = (   0.6873294   0.3936244   0.4596353  )
         6           S   tau(   6) = (   0.6929804   0.3713468   0.1185692  )
         7           Mo  tau(   7) = (   0.6862796   0.7633098   0.2825370  )
         8           S   tau(   8) = (   0.8545980   0.6708292   0.4486168  )
         9           S   tau(   9) = (   0.8545123   0.6666874   0.1146125  )
        10           Mo  tau(  10) = (   0.8629403   1.0471007   0.3006803  )
        11           S   tau(  11) = (   0.6868280   0.9456650   0.4634891  )
        12           S   tau(  12) = (   0.6998113   0.9568511   0.1205389  )
        13           Mo  tau(  13) = (   0.3618216   0.1847309   0.2935964  )
        14           S   tau(  14) = (   0.5260962   0.0863870   0.4600448  )
        15           S   tau(  15) = (   0.5348379   0.0894875   0.1297123  )
        16           Mo  tau(  16) = (   0.5265817   0.4772436   0.2784130  )
        17           S   tau(  17) = (   0.3624753   0.3882513   0.4525556  )
        18           S   tau(  18) = (   0.3635411   0.3752055   0.1119148  )
        19           Mo  tau(  19) = (   0.3652268   0.7630864   0.2781795  )
        20           S   tau(  20) = (   0.5269494   0.6690381   0.1096838  )
        21           Mo  tau(  21) = (   0.5300192   1.0470394   0.2900995  )
        22           S   tau(  22) = (   0.3670346   0.9457522   0.4574073  )
        23           S   tau(  23) = (   0.3604225   0.9585725   0.1159032  )
        24           Mo  tau(  24) = (   0.0313099   0.1847895   0.3013130  )
        25           S   tau(  25) = (   0.1956761   0.0838230   0.4650863  )
        26           S   tau(  26) = (   0.1967693   0.0903508   0.1278874  )
        27           Mo  tau(  27) = (   0.1967578   0.4753919   0.2813011  )
        28           S   tau(  28) = (   0.0287851   0.3864324   0.4586755  )
        29           S   tau(  29) = (   0.0244514   0.3729871   0.1239344  )
        30           Mo  tau(  30) = (   0.0286728   0.7631204   0.2856894  )
        31           S   tau(  31) = (   0.2011512   0.6675435   0.4465001  )
        32           S   tau(  32) = (   0.1969214   0.6672839   0.1104564  )
        33           Mo  tau(  33) = (   0.1950294   1.0511147   0.2932237  )
        34           S   tau(  34) = (   0.0312912   0.9612169   0.4667423  )
        35           S   tau(  35) = (   0.0292670   0.9563028   0.1216485  )
        36           O   tau(  36) = (   0.1111111   1.1556707   0.5792558  )

     number of k points=     1  Gaussian smearing, width (Ry)=  0.0100
                       cart. coord. in units 2pi/alat
        k(    1) = (   0.0000000   0.0000000   0.0000000), wk =   2.0000000

     Dense  grid:  2439793 G-vectors     FFT dimensions: ( 150, 180, 384)

     Smooth grid:   842757 G-vectors     FFT dimensions: ( 108, 120, 270)

     Estimated max dynamical RAM per process >     269.22 MB

     Estimated total dynamical RAM >      12.62 GB

     Initial potential from superposition of free atoms

     starting charge     311.9873, renormalised to     312.0000

     negative rho (up, down):  2.756E-04 0.000E+00


---------------------------------------------------------------------------------
Carrying out rVV10 run using the following parameters:
Nqs =      20    Nr_points =    1024   r_max =   100.000
b_value =  6.30000    beta =  0.00901
     q_mesh =  0.00010000  0.00030000  0.00058939  0.00100810
               0.00161396  0.00249058  0.00375900  0.00559430
               0.00824984  0.01209221  0.01765183  0.02569619
               0.03733578  0.05417739  0.07854596  0.11380545
               0.16482331  0.23864234  0.34545298  0.50000000

Gradients computed in Reciprocal space

---------------------------------------------------------------------------------


     Starting wfcs are  216 randomized atomic wfcs
     Checking if some PAW data can be deallocated... 

     total cpu time spent up to now is        5.1 secs

     Self-consistent Calculation

     iteration #  1     ecut=    80.00 Ry     beta= 0.70
     Davidson diagonalization with overlap
     ethr =  1.00E-02,  avg # of iterations =  2.0

     Threshold (ethr) on eigenvalues was too large:
     Diagonalizing with lowered threshold

     Davidson diagonalization with overlap
     ethr =  4.39E-04,  avg # of iterations =  4.0

     negative rho (up, down):  3.848E-08 0.000E+00

     total cpu time spent up to now is       21.6 secs

     total energy              =   -2246.27349673 Ry
     estimated scf accuracy    <       1.61774013 Ry

     iteration #  2     ecut=    80.00 Ry     beta= 0.70
     Davidson diagonalization with overlap
     ethr =  5.19E-04,  avg # of iterations =  3.0

     total cpu time spent up to now is       26.0 secs

     total energy              =   -2246.27026498 Ry
     estimated scf accuracy    <       0.58256498 Ry

     iteration #  3     ecut=    80.00 Ry     beta= 0.70
     Davidson diagonalization with overlap
     ethr =  1.87E-04,  avg # of iterations =  2.0

     total cpu time spent up to now is       29.7 secs

     total energy              =   -2246.26867557 Ry
     estimated scf accuracy    <       0.15220129 Ry

     iteration #  4     ecut=    80.00 Ry     beta= 0.70
     Davidson diagonalization with overlap
     ethr =  4.88E-05,  avg # of iterations = 11.0

     total cpu time spent up to now is       34.0 secs

     total energy              =   -2246.29626705 Ry
     estimated scf accuracy    <       0.02592373 Ry

     iteration #  5     ecut=    80.00 Ry     beta= 0.70
     Davidson diagonalization with overlap
     ethr =  8.31E-06,  avg # of iterations =  4.0

     total cpu time spent up to now is       37.7 secs

     total energy              =   -2246.29632987 Ry
     estimated scf accuracy    <       0.01557052 Ry

     iteration #  6     ecut=    80.00 Ry     beta= 0.70
     Davidson diagonalization with overlap
     ethr =  4.99E-06,  avg # of iterations =  9.0

     total cpu time spent up to now is       41.4 secs

     total energy              =   -2246.29540977 Ry
     estimated scf accuracy    <       0.00998620 Ry

     iteration #  7     ecut=    80.00 Ry     beta= 0.70
     Davidson diagonalization with overlap
     ethr =  3.20E-06,  avg # of iterations =  2.0

     negative rho (up, down):  4.240E-06 0.000E+00

     total cpu time spent up to now is       46.9 secs

     total energy              =   -2246.29432449 Ry
     estimated scf accuracy    <       0.00593708 Ry

     iteration #  8     ecut=    80.00 Ry     beta= 0.70
     Davidson diagonalization with overlap
     ethr =  1.90E-06,  avg # of iterations =  8.0

     negative rho (up, down):  8.220E-03 0.000E+00

     total cpu time spent up to now is       52.9 secs

     total energy              =   -2246.29384702 Ry
     estimated scf accuracy    <       0.00331109 Ry

     iteration #  9     ecut=    80.00 Ry     beta= 0.70
     Davidson diagonalization with overlap
     ethr =  1.06E-06,  avg # of iterations =  2.0

     negative rho (up, down):  2.451E-02 0.000E+00

     total cpu time spent up to now is       58.9 secs

     total energy              =   -2246.29367632 Ry
     estimated scf accuracy    <       0.00181236 Ry

     iteration # 10     ecut=    80.00 Ry     beta= 0.70
     Davidson diagonalization with overlap
     ethr =  5.81E-07,  avg # of iterations =  2.0

     negative rho (up, down):  2.338E-02 0.000E+00

     total cpu time spent up to now is       64.8 secs

     total energy              =   -2246.29369038 Ry
     estimated scf accuracy    <       0.00077152 Ry

     iteration # 11     ecut=    80.00 Ry     beta= 0.70
     Davidson diagonalization with overlap
     ethr =  2.47E-07,  avg # of iterations =  2.0

     negative rho (up, down):  1.330E-02 0.000E+00

     total cpu time spent up to now is       71.7 secs

     total energy              =   -2246.29368286 Ry
     estimated scf accuracy    <       0.00014490 Ry

     iteration # 12     ecut=    80.00 Ry     beta= 0.70
     Davidson diagonalization with overlap
     ethr =  4.64E-08,  avg # of iterations =  5.0

     negative rho (up, down):  4.204E-03 0.000E+00

     total cpu time spent up to now is       80.1 secs

     total energy              =   -2246.29372474 Ry
     estimated scf accuracy    <       0.00003521 Ry

     iteration # 13     ecut=    80.00 Ry     beta= 0.70
     Davidson diagonalization with overlap
     ethr =  1.13E-08,  avg # of iterations =  5.0

     negative rho (up, down):  1.001E-03 0.000E+00

     total cpu time spent up to now is       88.4 secs

     total energy              =   -2246.29374028 Ry
     estimated scf accuracy    <       0.00000857 Ry

     iteration # 14     ecut=    80.00 Ry     beta= 0.70
     Davidson diagonalization with overlap
     ethr =  2.75E-09,  avg # of iterations =  2.0

     negative rho (up, down):  3.959E-04 0.000E+00

     total cpu time spent up to now is       95.8 secs

     total energy              =   -2246.29374020 Ry
     estimated scf accuracy    <       0.00000191 Ry

     iteration # 15     ecut=    80.00 Ry     beta= 0.70
     Davidson diagonalization with overlap
     ethr =  6.13E-10,  avg # of iterations =  5.0

     negative rho (up, down):  2.052E-04 0.000E+00

     total cpu time spent up to now is       99.5 secs

     End of self-consistent calculation

          k = 0.0000 0.0000 0.0000 (105382 PWs)   bands (ev):

   -63.0307 -62.9680 -62.9607 -62.9529 -62.9413 -62.8946 -62.8812 -62.8759
   -62.8720 -62.8480 -62.7733 -62.7553 -37.3336 -37.2979 -37.2606 -37.2414
   -37.2312 -37.2128 -37.1854 -37.1804 -37.1549 -37.1507 -37.1401 -37.1312
   -37.1268 -37.1118 -37.1035 -37.0756 -37.0683 -37.0645 -37.0586 -37.0514
   -37.0379 -37.0346 -37.0299 -37.0213 -37.0117 -36.9926 -36.9814 -36.9545
   -36.9434 -36.9217 -36.9195 -36.8933 -36.8809 -36.8471 -36.8447 -36.7826
   -22.1287 -15.9999 -15.2746 -15.1974 -15.0330 -14.9372 -14.8372 -14.6520
   -14.5656 -14.5142 -14.4780 -14.4562 -14.4058 -14.3702 -14.2801 -14.2354
   -14.2104 -14.1830 -14.1111 -14.0319 -13.9314 -13.9175 -13.8811 -13.7778
    -8.2526  -7.8721  -7.7796  -7.5141  -7.4891  -7.3512  -7.3347  -7.2613
    -7.2275  -7.0722  -6.9030  -6.8842  -6.8521  -6.7313  -6.7192  -6.6195
    -6.5791  -6.5036  -6.4104  -6.3404  -6.1323  -6.0965  -5.9939  -5.9160
    -5.8901  -5.8385  -5.7919  -5.7574  -5.7280  -5.7232  -5.6480  -5.6216
    -5.6016  -5.5395  -5.4700  -5.4374  -5.3142  -5.1492  -5.0920  -5.0713
    -5.0409  -5.0213  -4.9493  -4.8350  -4.7470  -4.6199  -4.5072  -4.3886
    -4.3240  -4.2364  -4.2227  -4.1579  -4.0460  -3.9591  -3.9300  -3.8664
    -3.8382  -3.7939  -3.6828  -3.6474  -3.6248  -3.6033  -3.5581  -3.5203
    -3.4717  -3.4370  -3.2928  -3.2623  -3.1310  -3.0048  -2.9707  -2.9030
    -2.8776  -2.8279  -2.8050  -2.7390  -2.7090  -2.6916  -2.5938  -2.3600
    -2.2799  -2.0569  -1.9723  -1.8781  -1.0732  -0.8231  -0.7633  -0.2430
    -0.2183  -0.1565  -0.0938   0.0132   0.0888   0.1106   0.1638   0.2113
     0.2440   0.2540   0.3416   0.4492   0.4713   0.4989   0.5174   0.5387
     0.6477   0.6646   0.6882   0.6945   0.7697   0.7887   0.8155   0.9183
     0.9639   1.0047   1.1945

     the Fermi energy is    -1.4755 ev

!    total energy              =   -2246.29374254 Ry
     estimated scf accuracy    <       0.00000070 Ry
     smearing contrib. (-TS)   =      -0.00000180 Ry
     internal energy E=F+TS    =   -2246.29374074 Ry

     The total energy is F=E-TS. E is the sum of the following terms:
     one-electron contribution =  -18443.64635965 Ry
     hartree contribution      =    9209.82843371 Ry
     xc contribution           =    -392.09801485 Ry
     ewald contribution        =    7389.48359663 Ry
     one-center paw contrib.   =      -9.86139658 Ry

     convergence has been achieved in  15 iterations

     negative rho (up, down):  2.052E-04 0.000E+00

     Forces acting on atoms (cartesian axes, Ry/au):

     atom    1 type  1   force =     0.01598257   -0.02775117    0.01018983
     atom    2 type  2   force =    -0.02411958    0.02246989   -0.00992870
     atom    3 type  2   force =    -0.01130114    0.00763099   -0.00298435
     atom    4 type  1   force =     0.00455119    0.00155466   -0.00199347
     atom    5 type  2   force =    -0.00169543   -0.00532990   -0.00568534
     atom    6 type  2   force =    -0.00009468    0.01167222   -0.00152517
     atom    7 type  1   force =     0.00513724   -0.01735705   -0.00660876
     atom    8 type  2   force =     0.00177628   -0.00225368    0.01763185
     atom    9 type  2   force =     0.01240087    0.00733667    0.01174743
     atom   10 type  1   force =    -0.00814826    0.01262167   -0.02353540
     atom   11 type  2   force =     0.00560215   -0.00217531   -0.00714864
     atom   12 type  2   force =    -0.00372494    0.00063013    0.00380917
     atom   13 type  1   force =     0.02627551    0.02416942    0.00661303
     atom   14 type  2   force =     0.01634491    0.00059293    0.00791175
     atom   15 type  2   force =    -0.01565245    0.00054215   -0.01151942
     atom   16 type  1   force =     0.00140659    0.01346354    0.00493091
     atom   17 type  2   force =     0.00820950    0.00725526    0.00112637
     atom   18 type  2   force =    -0.00191657   -0.01018935    0.01024391
     atom   19 type  1   force =     0.00742388   -0.00883888   -0.00442382
     atom   20 type  2   force =     0.00296483   -0.00421122    0.00164292
     atom   21 type  1   force =    -0.00667042    0.00166196   -0.00126393
     atom   22 type  2   force =    -0.00401273   -0.00173606   -0.00200091
     atom   23 type  2   force =     0.00191326    0.00109984    0.00957248
     atom   24 type  1   force =    -0.01262532    0.00487504   -0.03302473
     atom   25 type  2   force =    -0.06889834   -0.04106994   -0.01700675
     atom   26 type  2   force =    -0.01045364   -0.00077105   -0.00279626
     atom   27 type  1   force =    -0.00364165   -0.00530389    0.00765700
     atom   28 type  2   force =     0.00042361    0.00188600   -0.00277024
     atom   29 type  2   force =     0.00233079    0.00542064   -0.00259323
     atom   30 type  1   force =    -0.00722100    0.00513479   -0.01268338
     atom   31 type  2   force =     0.00134604   -0.00150987    0.01914513
     atom   32 type  2   force =    -0.00806804    0.00719234    0.00724455
     atom   33 type  1   force =     0.02917158   -0.01853748   -0.05664785
     atom   34 type  2   force =    -0.00207643   -0.05577286   -0.02370775
     atom   35 type  2   force =    -0.01030208    0.00701367    0.01576108
     atom   36 type  3   force =     0.05736190    0.05858390    0.09462066
     The non-local contrib.  to forces
     atom    1 type  1   force =     0.00473646    0.03963746   -0.00731697
     atom    2 type  2   force =    -0.03737132    0.01297480   -0.27763492
     atom    3 type  2   force =    -0.01604751   -0.00046213    0.26358682
     atom    4 type  1   force =     0.00050874    0.00457300    0.00941934
     atom    5 type  2   force =     0.00649910   -0.03383529   -0.25465511
     atom    6 type  2   force =    -0.00240873    0.01112405    0.26243405
     atom    7 type  1   force =    -0.01770524    0.00763910   -0.01971778
     atom    8 type  2   force =     0.00563023   -0.00236938   -0.25556617
     atom    9 type  2   force =     0.00704873   -0.01063443    0.27992724
     atom   10 type  1   force =     0.00366766   -0.00744864    0.00125320
     atom   11 type  2   force =     0.00978395    0.00433339   -0.26102835
     atom   12 type  2   force =    -0.01331005   -0.01605631    0.26408339
     atom   13 type  1   force =     0.00213650   -0.00677982   -0.01306356
     atom   14 type  2   force =     0.01287768   -0.00713868   -0.26516926
     atom   15 type  2   force =    -0.01569129   -0.00130800    0.25930819
     atom   16 type  1   force =     0.00403579    0.03479027   -0.02946374
     atom   17 type  2   force =     0.00343798   -0.02766720   -0.24788913
     atom   18 type  2   force =    -0.00221729   -0.00658323    0.27638708
     atom   19 type  1   force =     0.00857632    0.00354948   -0.01725884
     atom   20 type  2   force =     0.00012676   -0.02185862    0.26707339
     atom   21 type  1   force =     0.00331051    0.02688045    0.00663233
     atom   22 type  2   force =    -0.00729732    0.00561815   -0.26096669
     atom   23 type  2   force =     0.00885609   -0.01676621    0.26827740
     atom   24 type  1   force =     0.02676021    0.01325810    0.00705095
     atom   25 type  2   force =    -0.19190797   -0.19565337    0.22641049
     atom   26 type  2   force =    -0.00226602   -0.01123972    0.26718212
     atom   27 type  1   force =    -0.00541061    0.01484507    0.00965073
     atom   28 type  2   force =    -0.00129950   -0.02828740   -0.27640672
     atom   29 type  2   force =     0.00753107    0.00448136    0.26274908
     atom   30 type  1   force =    -0.00758557    0.03194022    0.00806092
     atom   31 type  2   force =    -0.00531149   -0.00130747   -0.25271416
     atom   32 type  2   force =     0.00119652   -0.01083676    0.27480595
     atom   33 type  1   force =    -0.00740882    0.01838403    0.03411184
     atom   34 type  2   force =    -0.00651224    0.00092929   -0.24716509
     atom   35 type  2   force =    -0.00478957   -0.01077492    0.26940067
     atom   36 type  3   force =     1.01091066    1.02489971   -1.28844456
     The ionic contribution  to forces
     atom    1 type  1   force =    -0.10463255    0.83980817    4.21628838
     atom    2 type  2   force =    -2.83119635    1.22001812   38.12832425
     atom    3 type  2   force =    -0.40224568    0.12899827  -36.98735337
     atom    4 type  1   force =    -0.23618838    1.01312023   -0.45844217
     atom    5 type  2   force =    -1.09992514    1.80751982   38.51040494
     atom    6 type  2   force =     0.30055927   -0.37785203  -38.55108294
     atom    7 type  1   force =    -2.80200545   -3.25598009    1.47989646
     atom    8 type  2   force =    -1.19386370   -0.23223725   37.11925175
     atom    9 type  2   force =     0.27477631   -0.11256401  -38.52283358
     atom   10 type  1   force =    -2.79436776   -1.19385815    2.85497932
     atom   11 type  2   force =    -0.88422128   -2.02034074   38.79961063
     atom   12 type  2   force =     0.36091287    0.56168711  -38.48365621
     atom   13 type  1   force =     1.73317078    2.09978906    0.53330785
     atom   14 type  2   force =     0.58807586    0.23272757   38.07967089
     atom   15 type  2   force =     0.24935785    0.00981645  -37.48599163
     atom   16 type  1   force =     0.12893805    4.23454442   -0.51674238
     atom   17 type  2   force =     1.15827593    2.05685201   37.59022372
     atom   18 type  2   force =    -0.06912215   -0.48858493  -39.15148770
     atom   19 type  1   force =     3.16303383   -3.16474498   -0.67518147
     atom   20 type  2   force =     0.26151484   -0.25653563  -38.95938931
     atom   21 type  1   force =     0.59883412   -0.35290241   -0.46886215
     atom   22 type  2   force =     1.51958912   -2.70195418   37.73657800
     atom   23 type  2   force =     0.07976230    0.48399563  -39.05300894
     atom   24 type  1   force =    -1.44111877    3.30772832    1.97527570
     atom   25 type  2   force =     4.81805496    4.44333724   33.49250577
     atom   26 type  2   force =    -0.15633053    0.22459527  -38.45603936
     atom   27 type  1   force =     0.20015106    0.99294611   -3.56375579
     atom   28 type  2   force =    -0.16359402    1.94522864   37.75050884
     atom   29 type  2   force =    -0.31976176   -0.20940121  -37.93377645
     atom   30 type  1   force =    -0.59607147   -1.98663731   -1.65232050
     atom   31 type  2   force =     1.34707989   -0.43058821   36.99948069
     atom   32 type  2   force =    -0.44597672   -0.10209221  -39.19869404
     atom   33 type  1   force =     2.02726673   -2.47311281   -2.94355743
     atom   34 type  2   force =    -1.01594859   -4.55541773   37.43726663
     atom   35 type  2   force =    -0.39485288    0.21812610  -38.75332804
     atom   36 type  3   force =    -1.85793062   -1.90603464   49.11192964
     The local contribution  to forces
     atom    1 type  1   force =     0.11585036   -0.90739099   -4.19955553
     atom    2 type  2   force =     2.84251862   -1.20978932  -37.88220371
     atom    3 type  2   force =     0.40623398   -0.12087653   36.74085789
     atom    4 type  1   force =     0.24041644   -1.01617145    0.44607564
     atom    5 type  2   force =     1.09232859   -1.78098326  -38.28210758
     atom    6 type  2   force =    -0.29862460    0.37945787   38.30744016
     atom    7 type  1   force =     2.82492062    3.23114293   -1.46774232
     atom    8 type  2   force =     1.19026819    0.23190200  -36.86670791
     atom    9 type  2   force =    -0.26930056    0.12992694   38.27518750
     atom   10 type  1   force =     2.78261485    1.21403624   -2.88049179
     atom   11 type  2   force =     0.88048015    2.01443205  -38.56662397
     atom   12 type  2   force =    -0.35253867   -0.54627825   38.24374388
     atom   13 type  1   force =    -1.70893568   -2.06896937   -0.51441075
     atom   14 type  2   force =    -0.58417924   -0.22493147  -37.82751369
     atom   15 type  2   force =    -0.25018313   -0.00816329   37.23514199
     atom   16 type  1   force =    -0.13168411   -4.25597759    0.55021553
     atom   17 type  2   force =    -1.15349221   -2.02359669  -37.36152990
     atom   18 type  2   force =     0.06947617    0.48526799   38.90598239
     atom   19 type  1   force =    -3.16438722    3.15245748    0.68712943
     atom   20 type  2   force =    -0.25883295    0.27328367   38.71456391
     atom   21 type  1   force =    -0.60884446    0.32787308    0.46013225
     atom   22 type  2   force =    -1.51648359    2.69529272  -37.49851199
     atom   23 type  2   force =    -0.08601595   -0.46749134   38.81467320
     atom   24 type  1   force =     1.40165498   -3.31625000   -2.01609996
     atom   25 type  2   force =    -4.70677184   -4.30024365  -33.73000292
     atom   26 type  2   force =     0.14832377   -0.21475516   38.20666166
     atom   27 type  1   force =    -0.19844364   -1.01302399    3.56079138
     atom   28 type  2   force =     0.16524341   -1.91712495  -37.49809927
     atom   29 type  2   force =     0.31517395    0.21113607   37.68842784
     atom   30 type  1   force =     0.59654498    1.95994244    1.63064684
     atom   31 type  2   force =    -1.34075216    0.43022997  -36.74831649
     atom   32 type  2   force =     0.43708244    0.11946466   38.95164168
     atom   33 type  1   force =    -1.99070931    2.43614763    2.85200358
     atom   34 type  2   force =     1.01943468    4.49869111  -37.23428487
     atom   35 type  2   force =     0.38929036   -0.20127538   38.52016953
     atom   36 type  3   force =     0.91551160    0.95116068  -47.74233929
     The core correction contribution to forces
     atom    1 type  1   force =     0.00000000    0.00000000    0.00000000
     atom    2 type  2   force =     0.00194355   -0.00081947    0.02144326
     atom    3 type  2   force =     0.00076530   -0.00009078   -0.02056957
     atom    4 type  1   force =     0.00000000    0.00000000    0.00000000
     atom    5 type  2   force =    -0.00059819    0.00188971    0.02047980
     atom    6 type  2   force =     0.00035745   -0.00107991   -0.02086253
     atom    7 type  1   force =     0.00000000    0.00000000    0.00000000
     atom    8 type  2   force =    -0.00018761    0.00048547    0.02048354
     atom    9 type  2   force =    -0.00007567    0.00061112   -0.02114003
     atom   10 type  1   force =     0.00000000    0.00000000    0.00000000
     atom   11 type  2   force =    -0.00041373   -0.00048584    0.02073264
     atom   12 type  2   force =     0.00121584    0.00132060   -0.02090786
     atom   13 type  1   force =     0.00000000    0.00000000    0.00000000
     atom   14 type  2   force =    -0.00045724   -0.00015047    0.02077576
     atom   15 type  2   force =     0.00086734    0.00013803   -0.02049777
     atom   16 type  1   force =     0.00000000    0.00000000    0.00000000
     atom   17 type  2   force =    -0.00003208    0.00161292    0.02014519
     atom   18 type  2   force =    -0.00003612   -0.00028749   -0.02117648
     atom   19 type  1   force =     0.00000000    0.00000000    0.00000000
     atom   20 type  2   force =     0.00012478    0.00089632   -0.02125169
     atom   21 type  1   force =     0.00000000    0.00000000    0.00000000
     atom   22 type  2   force =     0.00012530   -0.00061112    0.02072628
     atom   23 type  2   force =    -0.00072440    0.00139201   -0.02088483
     atom   24 type  1   force =     0.00000000    0.00000000    0.00000000
     atom   25 type  2   force =     0.01176966    0.01145113   -0.00594528
     atom   26 type  2   force =    -0.00020025    0.00055128   -0.02113209
     atom   27 type  1   force =     0.00000000    0.00000000    0.00000000
     atom   28 type  2   force =     0.00007840    0.00200769    0.02105776
     atom   29 type  2   force =    -0.00061423   -0.00077629   -0.02053088
     atom   30 type  1   force =     0.00000000    0.00000000    0.00000000
     atom   31 type  2   force =     0.00031868    0.00022138    0.02050547
     atom   32 type  2   force =    -0.00038397    0.00067310   -0.02107612
     atom   33 type  1   force =     0.00000000    0.00000000    0.00000000
     atom   34 type  2   force =     0.00096550    0.00007255    0.02033082
     atom   35 type  2   force =     0.00007867    0.00095559   -0.02099509
     atom   36 type  3   force =    -0.01106014   -0.01140616    0.01331692
     The Hubbard contrib.    to forces
     atom    1 type  1   force =     0.00000000    0.00000000    0.00000000
     atom    2 type  2   force =     0.00000000    0.00000000    0.00000000
     atom    3 type  2   force =     0.00000000    0.00000000    0.00000000
     atom    4 type  1   force =     0.00000000    0.00000000    0.00000000
     atom    5 type  2   force =     0.00000000    0.00000000    0.00000000
     atom    6 type  2   force =     0.00000000    0.00000000    0.00000000
     atom    7 type  1   force =     0.00000000    0.00000000    0.00000000
     atom    8 type  2   force =     0.00000000    0.00000000    0.00000000
     atom    9 type  2   force =     0.00000000    0.00000000    0.00000000
     atom   10 type  1   force =     0.00000000    0.00000000    0.00000000
     atom   11 type  2   force =     0.00000000    0.00000000    0.00000000
     atom   12 type  2   force =     0.00000000    0.00000000    0.00000000
     atom   13 type  1   force =     0.00000000    0.00000000    0.00000000
     atom   14 type  2   force =     0.00000000    0.00000000    0.00000000
     atom   15 type  2   force =     0.00000000    0.00000000    0.00000000
     atom   16 type  1   force =     0.00000000    0.00000000    0.00000000
     atom   17 type  2   force =     0.00000000    0.00000000    0.00000000
     atom   18 type  2   force =     0.00000000    0.00000000    0.00000000
     atom   19 type  1   force =     0.00000000    0.00000000    0.00000000
     atom   20 type  2   force =     0.00000000    0.00000000    0.00000000
     atom   21 type  1   force =     0.00000000    0.00000000    0.00000000
     atom   22 type  2   force =     0.00000000    0.00000000    0.00000000
     atom   23 type  2   force =     0.00000000    0.00000000    0.00000000
     atom   24 type  1   force =     0.00000000    0.00000000    0.00000000
     atom   25 type  2   force =     0.00000000    0.00000000    0.00000000
     atom   26 type  2   force =     0.00000000    0.00000000    0.00000000
     atom   27 type  1   force =     0.00000000    0.00000000    0.00000000
     atom   28 type  2   force =     0.00000000    0.00000000    0.00000000
     atom   29 type  2   force =     0.00000000    0.00000000    0.00000000
     atom   30 type  1   force =     0.00000000    0.00000000    0.00000000
     atom   31 type  2   force =     0.00000000    0.00000000    0.00000000
     atom   32 type  2   force =     0.00000000    0.00000000    0.00000000
     atom   33 type  1   force =     0.00000000    0.00000000    0.00000000
     atom   34 type  2   force =     0.00000000    0.00000000    0.00000000
     atom   35 type  2   force =     0.00000000    0.00000000    0.00000000
     atom   36 type  3   force =     0.00000000    0.00000000    0.00000000
     The SCF correction term to forces
     atom    1 type  1   force =     0.00002762    0.00019317    0.00075770
     atom    2 type  2   force =    -0.00001478    0.00008473    0.00012616
     atom    3 type  2   force =    -0.00000792    0.00006114    0.00047763
     atom    4 type  1   force =    -0.00018630    0.00003185    0.00093746
     atom    5 type  2   force =    -0.00000048    0.00007808    0.00017635
     atom    6 type  2   force =     0.00002125    0.00002121    0.00052984
     atom    7 type  1   force =    -0.00007337   -0.00016002    0.00093862
     atom    8 type  2   force =    -0.00007152   -0.00003555    0.00015437
     atom    9 type  2   force =    -0.00004862   -0.00000399    0.00059005
     atom   10 type  1   force =    -0.00006370   -0.00010882    0.00070761
     atom   11 type  2   force =    -0.00002762   -0.00011520    0.00014415
     atom   12 type  2   force =    -0.00000561   -0.00004404    0.00052970
     atom   13 type  1   force =    -0.00009679    0.00012852    0.00076324
     atom   14 type  2   force =     0.00002716    0.00008495    0.00013181
     atom   15 type  2   force =    -0.00000390    0.00005792    0.00050355
     atom   16 type  1   force =     0.00011618    0.00010541    0.00090525
     atom   17 type  2   force =     0.00001920    0.00005319    0.00016022
     atom   18 type  2   force =    -0.00001786   -0.00000272    0.00052236
     atom   19 type  1   force =     0.00020027   -0.00010189    0.00087081
     atom   20 type  2   force =     0.00003072    0.00000202    0.00063036
     atom   21 type  1   force =     0.00002874   -0.00019019    0.00081738
     atom   22 type  2   force =     0.00005308   -0.00008266    0.00015724
     atom   23 type  2   force =     0.00003453   -0.00003127    0.00049939
     atom   24 type  1   force =     0.00007757    0.00013759    0.00073233
     atom   25 type  2   force =    -0.00004383    0.00003767    0.00000894
     atom   26 type  2   force =     0.00001870    0.00007624    0.00051515
     atom   27 type  1   force =     0.00006086   -0.00007210    0.00095442
     atom   28 type  2   force =    -0.00000536    0.00006099    0.00015289
     atom   29 type  2   force =     0.00000107   -0.00002033    0.00052092
     atom   30 type  1   force =    -0.00010963   -0.00011160    0.00091310
     atom   31 type  2   force =     0.00001044   -0.00006658    0.00017336
     atom   32 type  2   force =     0.00001300   -0.00001749    0.00055082
     atom   33 type  1   force =     0.00002228    0.00004264    0.00077790
     atom   34 type  2   force =    -0.00001646   -0.00004912    0.00012850
     atom   35 type  2   force =    -0.00002935   -0.00001875    0.00049776
     atom   36 type  3   force =    -0.00007029   -0.00003672    0.00014171

     Total force =     0.201978     Total SCF correction =     0.003552

     BFGS Geometry Optimization
     Energy error            =      0.0E+00 Ry
     Gradient error          =      9.5E-02 Ry/Bohr

     number of scf cycles    =   1
     number of bfgs steps    =   0

     energy             new  =   -2246.2937425416 Ry

     new trust radius        =       0.1252019586 bohr
     new conv_thr            =       0.0000010000 Ry


ATOMIC_POSITIONS (angstrom)
Mo            6.5830060204        1.7731209402        2.8290352603
S             8.1639458052        0.8215945804        4.4292843116
S             8.1872527810        0.8152798925        1.2763041751
Mo            8.0975709493        4.4958796368        2.7167634928
S             6.4990120715        3.7195910260        4.3436520945
S             6.5532996974        3.5179142274        1.1204731445
Mo            6.4927002071        7.2092523263        2.6683872793
S             8.0826676974        6.3426783959        4.2517919364
S             8.0874799058        6.3085847142        1.0900794724
Mo            8.1563071765        9.9088595123        2.8310073646
S             6.4981321260        8.9417756879        4.3793226381
S             6.6159760449        9.0490446654        1.1419230270
Mo            3.4355640614        1.7597457555        2.7799706298
S             4.9838148472        0.8172549749        4.3547198128
S             5.0495508360        0.8465489996        1.2205626463
Mo            4.9805010176        4.5203026036        2.6354938756
S             3.4321859417        3.6754390066        4.2803056265
S             3.4369063742        3.5428367255        1.0637725264
Mo            3.4577902893        7.2116472065        2.6283358794
S             4.9848031152        6.3247038050        1.0381231272
Mo            5.0087340875        9.9024795211        2.7427321153
S             3.4688346716        8.9428325881        4.3245324779
S             3.4094416196        9.0655719960        1.1011338394
Mo            0.2894094551        1.7500892904        2.8319687761
S             1.8140027819        0.7709607295        4.3892098550
S             1.8552682045        0.8540178935        1.2079211369
Mo            1.8587642303        4.4928600661        2.6642492881
S             0.2724380134        3.6553968558        4.3361181529
S             0.2324646087        3.5301177062        1.1706456075
Mo            0.2673309615        7.2193633063        2.6949846697
S             1.9029505421        6.3119998466        4.2325752856
S             1.8579687894        6.3141498346        1.0483929361
Mo            1.8597835960        9.9303295405        2.7429695005
S             0.2948141013        9.0604840993        4.4013238669
S             0.2713197751        9.0472371905        1.1587411831
O             1.0811057199       10.9599012635        5.5279545255



     Writing config-only to output data dir ./MoS2-V-O.save/
     NEW-OLD atomic charge density approx. for the potential

     negative rho (up, down):  1.425E-04 0.000E+00

     total cpu time spent up to now is      106.4 secs

     Self-consistent Calculation

     iteration #  1     ecut=    80.00 Ry     beta= 0.70
     Davidson diagonalization with overlap
     ethr =  1.00E-06,  avg # of iterations = 13.0

     negative rho (up, down):  2.516E-04 0.000E+00

     total cpu time spent up to now is      130.6 secs

     total energy              =   -2246.32817642 Ry
     estimated scf accuracy    <       0.00427216 Ry

     iteration #  2     ecut=    80.00 Ry     beta= 0.70
     Davidson diagonalization with overlap
     ethr =  1.37E-06,  avg # of iterations =  4.0

     negative rho (up, down):  3.773E-04 0.000E+00

     total cpu time spent up to now is      141.3 secs

     total energy              =   -2246.32887870 Ry
     estimated scf accuracy    <       0.00183085 Ry

     iteration #  3     ecut=    80.00 Ry     beta= 0.70
     Davidson diagonalization with overlap
     ethr =  5.87E-07,  avg # of iterations =  3.0

     negative rho (up, down):  5.740E-04 0.000E+00

     total cpu time spent up to now is      155.0 secs

     total energy              =   -2246.32895717 Ry
     estimated scf accuracy    <       0.00024089 Ry

     iteration #  4     ecut=    80.00 Ry     beta= 0.70
     Davidson diagonalization with overlap
     ethr =  7.72E-08,  avg # of iterations =  4.0

     negative rho (up, down):  5.933E-04 0.000E+00

     total cpu time spent up to now is      168.2 secs

     total energy              =   -2246.32900593 Ry
     estimated scf accuracy    <       0.00006179 Ry

     iteration #  5     ecut=    80.00 Ry     beta= 0.70
     Davidson diagonalization with overlap
     ethr =  1.98E-08,  avg # of iterations =  2.0

     negative rho (up, down):  5.939E-04 0.000E+00

     total cpu time spent up to now is      180.2 secs

     total energy              =   -2246.32900665 Ry
     estimated scf accuracy    <       0.00001926 Ry

     iteration #  6     ecut=    80.00 Ry     beta= 0.70
     Davidson diagonalization with overlap
     ethr =  6.17E-09,  avg # of iterations =  4.0

     negative rho (up, down):  5.500E-04 0.000E+00

     total cpu time spent up to now is      191.4 secs

     total energy              =   -2246.32901009 Ry
     estimated scf accuracy    <       0.00000263 Ry

     iteration #  7     ecut=    80.00 Ry     beta= 0.70
     Davidson diagonalization with overlap
     ethr =  8.44E-10,  avg # of iterations =  5.0

     negative rho (up, down):  4.625E-04 0.000E+00

     total cpu time spent up to now is      204.1 secs

     total energy              =   -2246.32901087 Ry
     estimated scf accuracy    <       0.00000120 Ry

     iteration #  8     ecut=    80.00 Ry     beta= 0.70
     Davidson diagonalization with overlap
     ethr =  3.86E-10,  avg # of iterations =  2.0

     negative rho (up, down):  2.030E-04 0.000E+00

     total cpu time spent up to now is      207.2 secs

     End of self-consistent calculation

          k = 0.0000 0.0000 0.0000 (105382 PWs)   bands (ev):

   -63.0255 -62.9769 -62.9697 -62.9616 -62.9541 -62.9048 -62.8891 -62.8834
   -62.8804 -62.8529 -62.7900 -62.7609 -37.3373 -37.2878 -37.2607 -37.2474
   -37.2381 -37.2160 -37.1928 -37.1903 -37.1629 -37.1579 -37.1475 -37.1418
   -37.1366 -37.1218 -37.1118 -37.0837 -37.0759 -37.0716 -37.0673 -37.0642
   -37.0458 -37.0432 -37.0372 -37.0298 -37.0205 -37.0022 -36.9908 -36.9638
   -36.9604 -36.9326 -36.9304 -36.9028 -36.8940 -36.8582 -36.8548 -36.7953
   -22.2139 -16.0136 -15.2773 -15.2013 -15.0375 -14.9512 -14.8436 -14.6004
   -14.5673 -14.5099 -14.4922 -14.4683 -14.4221 -14.3824 -14.2736 -14.2429
   -14.2173 -14.1992 -14.1205 -14.0243 -13.9476 -13.9229 -13.9057 -13.7600
    -8.1289  -7.8685  -7.7526  -7.5234  -7.4826  -7.3662  -7.3464  -7.2796
    -7.2423  -7.0891  -6.9096  -6.8924  -6.8566  -6.7514  -6.7257  -6.6240
    -6.5867  -6.5200  -6.4202  -6.3519  -6.1315  -6.1061  -5.9915  -5.9300
    -5.8887  -5.8489  -5.8016  -5.7734  -5.7475  -5.7326  -5.6708  -5.6413
    -5.6039  -5.5554  -5.4693  -5.4239  -5.3171  -5.1424  -5.0986  -5.0911
    -5.0594  -5.0500  -4.9487  -4.8282  -4.7491  -4.6381  -4.5316  -4.3827
    -4.3327  -4.2665  -4.2433  -4.1614  -4.0761  -3.9864  -3.9294  -3.8755
    -3.8575  -3.7868  -3.6957  -3.6580  -3.6268  -3.6036  -3.5881  -3.5274
    -3.4829  -3.4538  -3.2817  -3.2800  -3.1405  -3.0198  -2.9979  -2.8924
    -2.8834  -2.8403  -2.8254  -2.7579  -2.7265  -2.6966  -2.6138  -2.3944
    -2.3232  -2.0743  -2.0153  -1.9170  -1.0051  -0.8241  -0.7246  -0.2481
    -0.2236  -0.1564  -0.1079   0.0243   0.0923   0.1209   0.1681   0.2103
     0.2371   0.2560   0.3349   0.4500   0.4663   0.4909   0.5058   0.5430
     0.6323   0.6665   0.6700   0.6809   0.7575   0.7936   0.8171   0.9125
     0.9417   0.9958   1.1855

     the Fermi energy is    -1.4610 ev

!    total energy              =   -2246.32901060 Ry
     estimated scf accuracy    <       0.00000049 Ry
     smearing contrib. (-TS)   =      -0.00000015 Ry
     internal energy E=F+TS    =   -2246.32901045 Ry

     The total energy is F=E-TS. E is the sum of the following terms:
     one-electron contribution =  -18438.65959469 Ry
     hartree contribution      =    9207.21706585 Ry
     xc contribution           =    -392.11346058 Ry
     ewald contribution        =    7387.08723520 Ry
     one-center paw contrib.   =      -9.86025624 Ry

     convergence has been achieved in   8 iterations

     negative rho (up, down):  2.030E-04 0.000E+00

     Forces acting on atoms (cartesian axes, Ry/au):

     atom    1 type  1   force =     0.00479955   -0.01389188   -0.00046375
     atom    2 type  2   force =    -0.01365100    0.01487852   -0.00773910
     atom    3 type  2   force =    -0.01083748    0.00613713   -0.01054784
     atom    4 type  1   force =     0.00491815    0.00229876    0.00052520
     atom    5 type  2   force =     0.00030637   -0.00536020   -0.00518360
     atom    6 type  2   force =    -0.00008966    0.00759099    0.00185350
     atom    7 type  1   force =     0.00414578   -0.01089348   -0.00104476
     atom    8 type  2   force =     0.00164433   -0.00365165    0.01218183
     atom    9 type  2   force =     0.01002173    0.00538790    0.00657920
     atom   10 type  1   force =    -0.00444551    0.00835982   -0.01011650
     atom   11 type  2   force =     0.00502881   -0.00191134   -0.00956852
     atom   12 type  2   force =    -0.00415758   -0.00047236    0.00115797
     atom   13 type  1   force =     0.00887303    0.00886423    0.00971486
     atom   14 type  2   force =     0.01105918   -0.00036020    0.00746978
     atom   15 type  2   force =    -0.01031318    0.00118720   -0.00746470
     atom   16 type  1   force =     0.00100548    0.00908085    0.00269663
     atom   17 type  2   force =     0.00759103    0.00761619    0.00384674
     atom   18 type  2   force =    -0.00028760   -0.00545488    0.00961293
     atom   19 type  1   force =     0.00532468   -0.00656828    0.00146063
     atom   20 type  2   force =     0.00302116   -0.00402833   -0.00221759
     atom   21 type  1   force =    -0.00385492    0.00199311    0.00211310
     atom   22 type  2   force =    -0.00349736   -0.00171359   -0.00495283
     atom   23 type  2   force =     0.00785241   -0.00350339   -0.00097362
     atom   24 type  1   force =    -0.01602068    0.00279121   -0.01732433
     atom   25 type  2   force =    -0.04827859   -0.03599195   -0.02530557
     atom   26 type  2   force =    -0.00189665    0.00369689   -0.00415735
     atom   27 type  1   force =    -0.00001913   -0.00170876    0.00709730
     atom   28 type  2   force =    -0.00035403   -0.00083657   -0.00379915
     atom   29 type  2   force =     0.00196006    0.00684251   -0.00614771
     atom   30 type  1   force =    -0.00366373   -0.00015628   -0.00002299
     atom   31 type  2   force =    -0.00018629   -0.00045784    0.01127409
     atom   32 type  2   force =    -0.00637965    0.00472872    0.00564847
     atom   33 type  1   force =     0.00742003   -0.01326304   -0.01927425
     atom   34 type  2   force =    -0.00017754   -0.04380255   -0.02910393
     atom   35 type  2   force =    -0.01011915    0.00629583    0.00357137
     atom   36 type  3   force =     0.05325793    0.05627670    0.07860449
     The non-local contrib.  to forces
     atom    1 type  1   force =     0.00601116    0.03500082   -0.00704963
     atom    2 type  2   force =    -0.02777113    0.00777380   -0.27782002
     atom    3 type  2   force =    -0.01382949   -0.00185223    0.25867101
     atom    4 type  1   force =     0.00166743    0.00659495    0.00837018
     atom    5 type  2   force =     0.00783455   -0.03464241   -0.25555565
     atom    6 type  2   force =    -0.00214429    0.00705110    0.26580051
     atom    7 type  1   force =    -0.01755206    0.00607040   -0.02208864
     atom    8 type  2   force =     0.00561851   -0.00345599   -0.25913766
     atom    9 type  2   force =     0.00417091   -0.01157443    0.27630169
     atom   10 type  1   force =     0.00303321   -0.00478602   -0.00022534
     atom   11 type  2   force =     0.00887217    0.00393345   -0.26423037
     atom   12 type  2   force =    -0.01340006   -0.01708885    0.26378666
     atom   13 type  1   force =     0.00335421   -0.00157918   -0.01330463
     atom   14 type  2   force =     0.00900788   -0.00719346   -0.26521365
     atom   15 type  2   force =    -0.01150001   -0.00161349    0.26109257
     atom   16 type  1   force =     0.00284371    0.03605955   -0.03044817
     atom   17 type  2   force =     0.00241238   -0.02639381   -0.24602278
     atom   18 type  2   force =    -0.00030440   -0.00230145    0.27557624
     atom   19 type  1   force =     0.01022993    0.00370412   -0.01943473
     atom   20 type  2   force =     0.00022579   -0.02111423    0.26424115
     atom   21 type  1   force =     0.00154625    0.02712242    0.00526202
     atom   22 type  2   force =    -0.00506354    0.00368326   -0.26223858
     atom   23 type  2   force =     0.01328485   -0.01964446    0.26153326
     atom   24 type  1   force =     0.02490914    0.01132768    0.00871869
     atom   25 type  2   force =    -0.16102908   -0.17276061    0.23963345
     atom   26 type  2   force =     0.00365119   -0.00962194    0.26914412
     atom   27 type  1   force =    -0.00627573    0.01295201    0.00833807
     atom   28 type  2   force =    -0.00214870   -0.02881962   -0.27674075
     atom   29 type  2   force =     0.00689051    0.00540894    0.26071834
     atom   30 type  1   force =    -0.00808467    0.03096826    0.00767417
     atom   31 type  2   force =    -0.00608997   -0.00087422   -0.25860707
     atom   32 type  2   force =     0.00282112   -0.01224312    0.27442844
     atom   33 type  1   force =    -0.00296797    0.01791049    0.03403685
     atom   34 type  2   force =    -0.00951961   -0.01172971   -0.27005484
     atom   35 type  2   force =    -0.00312924   -0.01089840    0.26381879
     atom   36 type  3   force =     1.00484588    1.04505682   -1.43888376
     The ionic contribution  to forces
     atom    1 type  1   force =    -0.39849294    1.17088340    4.36451260
     atom    2 type  2   force =    -2.47469469    1.01360181   38.21174482
     atom    3 type  2   force =    -0.40382836    0.13361621  -37.10806242
     atom    4 type  1   force =    -0.29196743    0.94149374   -0.39983819
     atom    5 type  2   force =    -1.08873740    1.78537716   38.44658970
     atom    6 type  2   force =     0.24577601   -0.45508823  -38.46366974
     atom    7 type  1   force =    -2.80143801   -2.99213490    1.48411605
     atom    8 type  2   force =    -1.17188959   -0.19960556   37.26176621
     atom    9 type  2   force =     0.25377905   -0.15039679  -38.51757371
     atom   10 type  1   force =    -2.45782075   -1.24077887    2.75775627
     atom   11 type  2   force =    -0.83814954   -2.01563970   38.74291062
     atom   12 type  2   force =     0.30297170    0.51023368  -38.43362154
     atom   13 type  1   force =     1.30611355    1.76219527    1.11256671
     atom   14 type  2   force =     0.41011744    0.18042196   38.17326314
     atom   15 type  2   force =     0.25254972    0.06118879  -37.52175603
     atom   16 type  1   force =     0.15490977    4.03327387   -0.35428767
     atom   17 type  2   force =     1.09879155    2.00286655   37.65633070
     atom   18 type  2   force =    -0.06991484   -0.44618812  -39.09375403
     atom   19 type  1   force =     3.05723682   -3.16435283   -0.60108469
     atom   20 type  2   force =     0.23651861   -0.25792643  -39.02568521
     atom   21 type  1   force =     0.61448108   -0.35775091   -0.26344806
     atom   22 type  2   force =     1.42397917   -2.62485352   37.77246886
     atom   23 type  2   force =     0.20998361    0.39654075  -39.10404827
     atom   24 type  1   force =    -1.03440027    3.04228649    1.47265937
     atom   25 type  2   force =     4.67300814    4.25570536   32.73447479
     atom   26 type  2   force =    -0.04045465    0.34202253  -38.31289415
     atom   27 type  1   force =     0.24446440    1.02757991   -3.28064820
     atom   28 type  2   force =    -0.13308527    1.82590224   37.76466053
     atom   29 type  2   force =    -0.28073121   -0.14980235  -37.98235947
     atom   30 type  1   force =    -0.47067648   -2.04037065   -1.75476107
     atom   31 type  2   force =     1.32003237   -0.36972966   37.07179607
     atom   32 type  2   force =    -0.40455249   -0.16980137  -39.13164274
     atom   33 type  1   force =     1.67068016   -2.01640660   -3.65715860
     atom   34 type  2   force =    -0.85836664   -4.02946844   37.35307852
     atom   35 type  2   force =    -0.43843196    0.21817093  -38.67819534
     atom   36 type  3   force =    -1.81776061   -2.02306573   49.30379420
     The local contribution  to forces
     atom    1 type  1   force =     0.39735418   -1.21986792   -4.35727905
     atom    2 type  2   force =     2.48722934   -1.00588116  -37.96277107
     atom    3 type  2   force =     0.40618831   -0.12562256   36.85943890
     atom    4 type  1   force =     0.29519717   -0.94582000    0.39254489
     atom    5 type  2   force =     1.08188915   -1.75799894  -38.21630708
     atom    6 type  2   force =    -0.24401645    0.45660793   38.22066024
     atom    7 type  1   force =     2.82308548    2.97515212   -1.46249277
     atom    8 type  2   force =     1.16806692    0.19887690  -37.01070932
     atom    9 type  2   force =    -0.24799426    0.16674042   38.26899076
     atom   10 type  1   force =     2.45033806    1.25394140   -2.76697879
     atom   11 type  2   force =     0.83463576    2.01030674  -38.50867987
     atom   12 type  2   force =    -0.29487473   -0.49491160   38.19194185
     atom   13 type  1   force =    -1.30046042   -1.75173637   -1.08907794
     atom   14 type  2   force =    -0.40767364   -0.17343926  -37.92101503
     atom   15 type  2   force =    -0.25204754   -0.05858294   37.27383717
     atom   16 type  1   force =    -0.15674109   -4.06018658    0.38793319
     atom   17 type  2   force =    -1.09359894   -1.97044436  -37.42620214
     atom   18 type  2   force =     0.07008734    0.44346836   38.84899948
     atom   19 type  1   force =    -3.06211266    3.15413447    0.62256157
     atom   20 type  2   force =    -0.23384762    0.27413764   38.78051426
     atom   21 type  1   force =    -0.61988509    0.33261411    0.26090929
     atom   22 type  2   force =    -1.42235820    2.61994870  -37.53561171
     atom   23 type  2   force =    -0.21464977   -0.38183025   38.86237268
     atom   24 type  1   force =     0.99326339   -3.05083587   -1.49809500
     atom   25 type  2   force =    -4.57049358   -4.12922043  -32.99180425
     atom   26 type  2   force =     0.03524191   -0.32931513   38.06073855
     atom   27 type  1   force =    -0.23820645   -1.04224324    3.27996051
     atom   28 type  2   force =     0.13474241   -1.79989314  -37.51242238
     atom   29 type  2   force =     0.27632933    0.15193489   37.73603751
     atom   30 type  1   force =     0.47509581    2.00934690    1.74769468
     atom   31 type  2   force =    -1.31443497    0.36994030  -36.82221425
     atom   32 type  2   force =     0.39581323    0.18612633   38.88396311
     atom   33 type  1   force =    -1.66036158    1.98510713    3.60450884
     atom   34 type  2   force =     0.86656488    3.99664048  -37.13296852
     atom   35 type  2   force =     0.43150950   -0.20191614   38.43881603
     atom   36 type  3   force =     0.87691473    1.04560815  -47.80072168
     The core correction contribution to forces
     atom    1 type  1   force =     0.00000000    0.00000000    0.00000000
     atom    2 type  2   force =     0.00161297   -0.00064135    0.02153986
     atom    3 type  2   force =     0.00062825   -0.00000606   -0.02049443
     atom    4 type  1   force =     0.00000000    0.00000000    0.00000000
     atom    5 type  2   force =    -0.00066230    0.00189440    0.02046725
     atom    6 type  2   force =     0.00030027   -0.00096763   -0.02091396
     atom    7 type  1   force =     0.00000000    0.00000000    0.00000000
     atom    8 type  2   force =    -0.00015354    0.00055334    0.02062763
     atom    9 type  2   force =     0.00005054    0.00061383   -0.02107745
     atom   10 type  1   force =     0.00000000    0.00000000    0.00000000
     atom   11 type  2   force =    -0.00033145   -0.00048603    0.02082289
     atom   12 type  2   force =     0.00115456    0.00132370   -0.02088563
     atom   13 type  1   force =     0.00000000    0.00000000    0.00000000
     atom   14 type  2   force =    -0.00034914   -0.00019093    0.02081502
     atom   15 type  2   force =     0.00068643    0.00017417   -0.02057292
     atom   16 type  1   force =     0.00000000    0.00000000    0.00000000
     atom   17 type  2   force =    -0.00000210    0.00158592    0.02011667
     atom   18 type  2   force =    -0.00013133   -0.00045170   -0.02118455
     atom   19 type  1   force =     0.00000000    0.00000000    0.00000000
     atom   20 type  2   force =     0.00011174    0.00086691   -0.02119649
     atom   21 type  1   force =     0.00000000    0.00000000    0.00000000
     atom   22 type  2   force =    -0.00005048   -0.00050596    0.02081413
     atom   23 type  2   force =    -0.00076552    0.00141820   -0.02074414
     atom   24 type  1   force =     0.00000000    0.00000000    0.00000000
     atom   25 type  2   force =     0.01002450    0.01007413   -0.00687504
     atom   26 type  2   force =    -0.00036486    0.00060490   -0.02115998
     atom   27 type  1   force =     0.00000000    0.00000000    0.00000000
     atom   28 type  2   force =     0.00010553    0.00195327    0.02110052
     atom   29 type  2   force =    -0.00056661   -0.00073709   -0.02049697
     atom   30 type  1   force =     0.00000000    0.00000000    0.00000000
     atom   31 type  2   force =     0.00032169    0.00026044    0.02067746
     atom   32 type  2   force =    -0.00044098    0.00068874   -0.02106100
     atom   33 type  1   force =     0.00000000    0.00000000    0.00000000
     atom   34 type  2   force =     0.00115673    0.00083359    0.02138528
     atom   35 type  2   force =    -0.00007714    0.00094376   -0.02081996
     atom   36 type  3   force =    -0.01096991   -0.01155463    0.01496571
     The Hubbard contrib.    to forces
     atom    1 type  1   force =     0.00000000    0.00000000    0.00000000
     atom    2 type  2   force =     0.00000000    0.00000000    0.00000000
     atom    3 type  2   force =     0.00000000    0.00000000    0.00000000
     atom    4 type  1   force =     0.00000000    0.00000000    0.00000000
     atom    5 type  2   force =     0.00000000    0.00000000    0.00000000
     atom    6 type  2   force =     0.00000000    0.00000000    0.00000000
     atom    7 type  1   force =     0.00000000    0.00000000    0.00000000
     atom    8 type  2   force =     0.00000000    0.00000000    0.00000000
     atom    9 type  2   force =     0.00000000    0.00000000    0.00000000
     atom   10 type  1   force =     0.00000000    0.00000000    0.00000000
     atom   11 type  2   force =     0.00000000    0.00000000    0.00000000
     atom   12 type  2   force =     0.00000000    0.00000000    0.00000000
     atom   13 type  1   force =     0.00000000    0.00000000    0.00000000
     atom   14 type  2   force =     0.00000000    0.00000000    0.00000000
     atom   15 type  2   force =     0.00000000    0.00000000    0.00000000
     atom   16 type  1   force =     0.00000000    0.00000000    0.00000000
     atom   17 type  2   force =     0.00000000    0.00000000    0.00000000
     atom   18 type  2   force =     0.00000000    0.00000000    0.00000000
     atom   19 type  1   force =     0.00000000    0.00000000    0.00000000
     atom   20 type  2   force =     0.00000000    0.00000000    0.00000000
     atom   21 type  1   force =     0.00000000    0.00000000    0.00000000
     atom   22 type  2   force =     0.00000000    0.00000000    0.00000000
     atom   23 type  2   force =     0.00000000    0.00000000    0.00000000
     atom   24 type  1   force =     0.00000000    0.00000000    0.00000000
     atom   25 type  2   force =     0.00000000    0.00000000    0.00000000
     atom   26 type  2   force =     0.00000000    0.00000000    0.00000000
     atom   27 type  1   force =     0.00000000    0.00000000    0.00000000
     atom   28 type  2   force =     0.00000000    0.00000000    0.00000000
     atom   29 type  2   force =     0.00000000    0.00000000    0.00000000
     atom   30 type  1   force =     0.00000000    0.00000000    0.00000000
     atom   31 type  2   force =     0.00000000    0.00000000    0.00000000
     atom   32 type  2   force =     0.00000000    0.00000000    0.00000000
     atom   33 type  1   force =     0.00000000    0.00000000    0.00000000
     atom   34 type  2   force =     0.00000000    0.00000000    0.00000000
     atom   35 type  2   force =     0.00000000    0.00000000    0.00000000
     atom   36 type  3   force =     0.00000000    0.00000000    0.00000000
     The SCF correction term to forces
     atom    1 type  1   force =    -0.00007572    0.00008898   -0.00062437
     atom    2 type  2   force =    -0.00003036    0.00002259   -0.00040938
     atom    3 type  2   force =     0.00000095   -0.00000107   -0.00007760
     atom    4 type  1   force =     0.00001812    0.00002723   -0.00052837
     atom    5 type  2   force =    -0.00002049    0.00000674   -0.00035453
     atom    6 type  2   force =    -0.00000805   -0.00001502   -0.00000026
     atom    7 type  1   force =     0.00004751    0.00001605   -0.00055609
     atom    8 type  2   force =    -0.00000083   -0.00002317   -0.00034173
     atom    9 type  2   force =     0.00001264    0.00000203   -0.00003878
     atom   10 type  1   force =     0.00000110   -0.00001953   -0.00064533
     atom   11 type  2   force =    -0.00000099   -0.00002864   -0.00036848
     atom   12 type  2   force =    -0.00001191   -0.00003214   -0.00004008
     atom   13 type  1   force =    -0.00013717   -0.00001834   -0.00044598
     atom   14 type  2   force =    -0.00004623    0.00003863   -0.00035640
     atom   15 type  2   force =    -0.00000463    0.00001783   -0.00004219
     atom   16 type  1   force =    -0.00000976   -0.00006883   -0.00047742
     atom   17 type  2   force =    -0.00001472   -0.00000095   -0.00035241
     atom   18 type  2   force =    -0.00002722    0.00001519   -0.00000091
     atom   19 type  1   force =    -0.00003226   -0.00005688   -0.00055823
     atom   20 type  2   force =     0.00000978    0.00000495   -0.00006798
     atom   21 type  1   force =    -0.00000002    0.00000465   -0.00058684
     atom   22 type  2   force =    -0.00000717    0.00001107   -0.00036222
     atom   23 type  2   force =    -0.00000363    0.00000954   -0.00006384
     atom   24 type  1   force =     0.00020420    0.00001006   -0.00058409
     atom   25 type  2   force =     0.00020857    0.00020674   -0.00071122
     atom   26 type  2   force =     0.00002691    0.00000369    0.00003741
     atom   27 type  1   force =    -0.00000421   -0.00000028   -0.00052979
     atom   28 type  2   force =     0.00002915    0.00001783   -0.00037376
     atom   29 type  2   force =     0.00003519    0.00003528   -0.00002382
     atom   30 type  1   force =    -0.00000125   -0.00010364   -0.00060747
     atom   31 type  2   force =    -0.00001827   -0.00005756   -0.00035482
     atom   32 type  2   force =    -0.00002338   -0.00004470   -0.00001603
     atom   33 type  1   force =     0.00006657    0.00012310   -0.00063803
     atom   34 type  2   force =    -0.00001576   -0.00008132   -0.00052107
     atom   35 type  2   force =     0.00000684   -0.00000716   -0.00002485
     atom   36 type  3   force =     0.00022498    0.00022925   -0.00052667

     Total force =     0.155063     Total SCF correction =     0.002546
     Energy error            =      3.5E-02 Ry
     Gradient error          =      7.9E-02 Ry/Bohr

     number of scf cycles    =   2
     number of bfgs steps    =   1

     energy             old  =   -2246.2937425416 Ry
     energy             new  =   -2246.3290106044 Ry

     CASE: energy            _new < energy            _old

     new trust radius        =       0.1377221544 bohr
     new conv_thr            =       0.0000000786 Ry


ATOMIC_POSITIONS (angstrom)
Mo            6.5874599795        1.7624839817        2.8300342738
S             8.1538770452        0.8321035914        4.4240323022
S             8.1802151335        0.8194152107        1.2704309153
Mo            8.1006943666        4.4972697853        2.7167950032
S             6.4989655793        3.7161418410        4.3402518590
S             6.5532413305        3.5233012557        1.1212555440
Mo            6.4954915622        7.2014477355        2.6670365119
S             8.0837429968        6.3404964082        4.2603029767
S             8.0942254054        6.3122928169        1.0949471467
Mo            8.1529924752        9.9147637972        2.8228560339
S             6.5014413706        8.9405123089        4.3734536682
S             6.6133505627        9.0488746834        1.1429919044
Mo            3.4433996411        1.7673201876        2.7858507955
S             4.9915826980        0.8171390474        4.3595854522
S             5.0422570148        0.8472351825        1.2152601996
Mo            4.9811975786        4.5266860751        2.6375031260
S             3.4371511859        3.6803011565        4.2824521988
S             3.4365226800        3.5387461427        1.0700417372
Mo            3.4614759956        7.2071395352        2.6285599696
S             4.9867423892        6.3220866005        1.0371648862
Mo            5.0059079047        9.9037230816        2.7436819407
S             3.4665190032        8.9417260097        4.3217016040
S             3.4137764297        9.0638759575        1.1017913152
Mo            0.2795030282        1.7521411365        2.8188964657
S             1.7803914603        0.7471572652        4.3739196985
S             1.8530040897        0.8558550616        1.2054088995
Mo            1.8583106387        4.4913214046        2.6688893258
S             0.2723046848        3.6551896076        4.3337961945
S             0.2337723800        3.5343522389        1.1671184273
Mo            0.2645375796        7.2199071552        2.6934276601
S             1.9030171953        6.3115767673        4.2407964967
S             1.8536535468        6.3174960324        1.0522259311
Mo            1.8672129711        9.9211434066        2.7260010372
S             0.2944684282        9.0308097169        4.3832333439
S             0.2647790521        9.0513802120        1.1625266158
O             1.1159127401       10.9964340135        5.5805400767



     Writing config-only to output data dir ./MoS2-V-O.save/
     NEW-OLD atomic charge density approx. for the potential

     negative rho (up, down):  1.411E-04 0.000E+00

     total cpu time spent up to now is      214.1 secs

     Self-consistent Calculation

     iteration #  1     ecut=    80.00 Ry     beta= 0.70
     Davidson diagonalization with overlap
     ethr =  1.00E-06,  avg # of iterations =  8.0

     negative rho (up, down):  2.821E-04 0.000E+00

     total cpu time spent up to now is      229.3 secs

     total energy              =   -2246.35504856 Ry
     estimated scf accuracy    <       0.00371753 Ry

     iteration #  2     ecut=    80.00 Ry     beta= 0.70
     Davidson diagonalization with overlap
     ethr =  1.19E-06,  avg # of iterations =  4.0

     negative rho (up, down):  4.282E-04 0.000E+00

     total cpu time spent up to now is      241.4 secs

     total energy              =   -2246.35575272 Ry
     estimated scf accuracy    <       0.00184754 Ry

     iteration #  3     ecut=    80.00 Ry     beta= 0.70
     Davidson diagonalization with overlap
     ethr =  5.92E-07,  avg # of iterations =  2.0

     negative rho (up, down):  6.805E-04 0.000E+00

     total cpu time spent up to now is      253.1 secs

     total energy              =   -2246.35578361 Ry
     estimated scf accuracy    <       0.00028514 Ry

     iteration #  4     ecut=    80.00 Ry     beta= 0.70
     Davidson diagonalization with overlap
     ethr =  9.14E-08,  avg # of iterations =  5.0

     negative rho (up, down):  7.139E-04 0.000E+00

     total cpu time spent up to now is      265.2 secs

     total energy              =   -2246.35584010 Ry
     estimated scf accuracy    <       0.00009095 Ry

     iteration #  5     ecut=    80.00 Ry     beta= 0.70
     Davidson diagonalization with overlap
     ethr =  2.91E-08,  avg # of iterations =  2.0

     negative rho (up, down):  7.173E-04 0.000E+00

     total cpu time spent up to now is      275.7 secs

     total energy              =   -2246.35583773 Ry
     estimated scf accuracy    <       0.00003050 Ry

     iteration #  6     ecut=    80.00 Ry     beta= 0.70
     Davidson diagonalization with overlap
     ethr =  9.77E-09,  avg # of iterations =  4.0

     negative rho (up, down):  6.648E-04 0.000E+00

     total cpu time spent up to now is      287.6 secs

     total energy              =   -2246.35584319 Ry
     estimated scf accuracy    <       0.00000322 Ry

     iteration #  7     ecut=    80.00 Ry     beta= 0.70
     Davidson diagonalization with overlap
     ethr =  1.03E-09,  avg # of iterations =  5.0

     negative rho (up, down):  5.435E-04 0.000E+00

     total cpu time spent up to now is      298.5 secs

     total energy              =   -2246.35584392 Ry
     estimated scf accuracy    <       0.00000114 Ry

     iteration #  8     ecut=    80.00 Ry     beta= 0.70
     Davidson diagonalization with overlap
     ethr =  3.66E-10,  avg # of iterations =  2.0

     negative rho (up, down):  4.531E-04 0.000E+00

     total cpu time spent up to now is      308.7 secs

     total energy              =   -2246.35584385 Ry
     estimated scf accuracy    <       0.00000085 Ry

     iteration #  9     ecut=    80.00 Ry     beta= 0.70
     Davidson diagonalization with overlap
     ethr =  2.72E-10,  avg # of iterations =  2.0

     negative rho (up, down):  3.390E-04 0.000E+00

     total cpu time spent up to now is      319.8 secs

     total energy              =   -2246.35584376 Ry
     estimated scf accuracy    <       0.00000023 Ry

     iteration # 10     ecut=    80.00 Ry     beta= 0.70
     Davidson diagonalization with overlap
     ethr =  7.35E-11,  avg # of iterations =  5.0

     negative rho (up, down):  1.993E-04 0.000E+00

     total cpu time spent up to now is      323.2 secs

     End of self-consistent calculation

          k = 0.0000 0.0000 0.0000 (105382 PWs)   bands (ev):

   -63.0189 -62.9892 -62.9842 -62.9737 -62.9697 -62.9204 -62.9026 -62.8969
   -62.8937 -62.8664 -62.8149 -62.7775 -37.3469 -37.2898 -37.2623 -37.2513
   -37.2492 -37.2247 -37.2057 -37.2010 -37.1743 -37.1699 -37.1604 -37.1559
   -37.1488 -37.1370 -37.1261 -37.0976 -37.0888 -37.0866 -37.0810 -37.0805
   -37.0596 -37.0571 -37.0518 -37.0434 -37.0338 -37.0183 -37.0048 -36.9878
   -36.9783 -36.9543 -36.9457 -36.9211 -36.9127 -36.8774 -36.8696 -36.8143
   -22.2049 -16.0314 -15.2901 -15.2137 -15.0490 -14.9658 -14.8577 -14.6008
   -14.5680 -14.5148 -14.5105 -14.4835 -14.4338 -14.3987 -14.2894 -14.2413
   -14.2255 -14.2157 -14.1328 -14.0337 -13.9664 -13.9394 -13.9186 -13.7625
    -8.0199  -7.8691  -7.7350  -7.5504  -7.4639  -7.3817  -7.3599  -7.3000
    -7.2557  -7.1043  -6.9258  -6.9027  -6.8668  -6.7682  -6.7337  -6.6331
    -6.5966  -6.5386  -6.4373  -6.3687  -6.1398  -6.1195  -5.9987  -5.9489
    -5.8962  -5.8658  -5.8159  -5.7898  -5.7670  -5.7452  -5.6929  -5.6642
    -5.6124  -5.5749  -5.4745  -5.4179  -5.3267  -5.1554  -5.1237  -5.1082
    -5.0787  -5.0726  -4.9567  -4.8209  -4.7536  -4.6580  -4.5557  -4.3904
    -4.3463  -4.2979  -4.2682  -4.1593  -4.0974  -4.0137  -3.9406  -3.8901
    -3.8799  -3.7889  -3.7117  -3.6743  -3.6383  -3.6230  -3.6011  -3.5407
    -3.4991  -3.4675  -3.3033  -3.2824  -3.1534  -3.0624  -3.0160  -2.9031
    -2.8856  -2.8572  -2.8515  -2.7789  -2.7427  -2.7039  -2.6343  -2.4453
    -2.3510  -2.0943  -2.0491  -1.9540  -0.9646  -0.8416  -0.6490  -0.2630
    -0.2383  -0.1648  -0.1296   0.0257   0.0702   0.1299   0.1667   0.1956
     0.2203   0.2624   0.3247   0.4412   0.4526   0.4800   0.4859   0.5320
     0.6103   0.6450   0.6652   0.6733   0.7438   0.7890   0.8124   0.9004
     0.9192   0.9906   1.1683

     the Fermi energy is    -1.4593 ev

!    total energy              =   -2246.35584381 Ry
     estimated scf accuracy    <       0.00000003 Ry
     smearing contrib. (-TS)   =      -0.00000002 Ry
     internal energy E=F+TS    =   -2246.35584379 Ry

     The total energy is F=E-TS. E is the sum of the following terms:
     one-electron contribution =  -18433.39588523 Ry
     hartree contribution      =    9204.46156978 Ry
     xc contribution           =    -392.12335062 Ry
     ewald contribution        =    7384.56151049 Ry
     one-center paw contrib.   =      -9.85968821 Ry

     convergence has been achieved in  10 iterations

     negative rho (up, down):  1.993E-04 0.000E+00

     Forces acting on atoms (cartesian axes, Ry/au):

     atom    1 type  1   force =    -0.00323859   -0.00405138   -0.00731085
     atom    2 type  2   force =    -0.00622660    0.00855147   -0.00435846
     atom    3 type  2   force =    -0.01024959    0.00433649   -0.01455658
     atom    4 type  1   force =     0.00451603    0.00230897    0.00116568
     atom    5 type  2   force =     0.00165916   -0.00501584   -0.00452262
     atom    6 type  2   force =     0.00010440    0.00508332    0.00339206
     atom    7 type  1   force =     0.00308195   -0.00602031    0.00106560
     atom    8 type  2   force =     0.00116930   -0.00481487    0.00885648
     atom    9 type  2   force =     0.00762331    0.00362287    0.00325684
     atom   10 type  1   force =    -0.00289033    0.00514122   -0.00458370
     atom   11 type  2   force =     0.00426642   -0.00159243   -0.00922223
     atom   12 type  2   force =    -0.00408721   -0.00121760    0.00053657
     atom   13 type  1   force =    -0.00234795   -0.00122468    0.00996085
     atom   14 type  2   force =     0.00612784   -0.00105199    0.00728109
     atom   15 type  2   force =    -0.00734120    0.00114674   -0.00357777
     atom   16 type  1   force =     0.00089456    0.00531284    0.00142946
     atom   17 type  2   force =     0.00652659    0.00676586    0.00602832
     atom   18 type  2   force =     0.00056286   -0.00190870    0.00935068
     atom   19 type  1   force =     0.00367508   -0.00470811    0.00290144
     atom   20 type  2   force =     0.00285735   -0.00333678   -0.00373520
     atom   21 type  1   force =    -0.00152830    0.00247165    0.00217694
     atom   22 type  2   force =    -0.00286579   -0.00176889   -0.00518805
     atom   23 type  2   force =     0.01051836   -0.00627653   -0.00582006
     atom   24 type  1   force =    -0.01649013    0.00160068   -0.00912961
     atom   25 type  2   force =    -0.03187089   -0.03073645   -0.01972557
     atom   26 type  2   force =     0.00238848    0.00505885   -0.00273438
     atom   27 type  1   force =     0.00181976    0.00058503    0.00541511
     atom   28 type  2   force =    -0.00071918   -0.00282597   -0.00360972
     atom   29 type  2   force =     0.00188133    0.00738118   -0.00722146
     atom   30 type  1   force =    -0.00156808   -0.00337240    0.00378531
     atom   31 type  2   force =    -0.00057413   -0.00034803    0.00673201
     atom   32 type  2   force =    -0.00431990    0.00278409    0.00518491
     atom   33 type  1   force =    -0.00561942   -0.01065070   -0.00147321
     atom   34 type  2   force =     0.00065964   -0.03021110   -0.02482235
     atom   35 type  2   force =    -0.00906112    0.00429900   -0.00334663
     atom   36 type  3   force =     0.05066600    0.05468250    0.05641912
     The non-local contrib.  to forces
     atom    1 type  1   force =     0.00663417    0.03162378   -0.00632517
     atom    2 type  2   force =    -0.01980768    0.00245133   -0.27713882
     atom    3 type  2   force =    -0.01210224   -0.00332351    0.25568618
     atom    4 type  1   force =     0.00265060    0.00798800    0.00756547
     atom    5 type  2   force =     0.00870522   -0.03457557   -0.25651981
     atom    6 type  2   force =    -0.00176385    0.00434806    0.26767861
     atom    7 type  1   force =    -0.01743947    0.00494150   -0.02372631
     atom    8 type  2   force =     0.00566263   -0.00416656   -0.26148679
     atom    9 type  2   force =     0.00136941   -0.01240376    0.27350647
     atom   10 type  1   force =     0.00314508   -0.00216673   -0.00045034
     atom   11 type  2   force =     0.00811659    0.00375015   -0.26553621
     atom   12 type  2   force =    -0.01312470   -0.01777395    0.26431165
     atom   13 type  1   force =     0.00299343    0.00255955   -0.01151857
     atom   14 type  2   force =     0.00502191   -0.00707822   -0.26572441
     atom   15 type  2   force =    -0.00883619   -0.00252536    0.26260521
     atom   16 type  1   force =     0.00173165    0.03684264   -0.03123174
     atom   17 type  2   force =     0.00103943   -0.02640791   -0.24503047
     atom   18 type  2   force =     0.00096671    0.00088619    0.27475431
     atom   19 type  1   force =     0.01180314    0.00356066   -0.02088085
     atom   20 type  2   force =     0.00023812   -0.01991307    0.26264194
     atom   21 type  1   force =     0.00050296    0.02736741    0.00462053
     atom   22 type  2   force =    -0.00344053    0.00231827   -0.26246410
     atom   23 type  2   force =     0.01538994   -0.02137903    0.25801699
     atom   24 type  1   force =     0.02201138    0.00992474    0.01047477
     atom   25 type  2   force =    -0.13296737   -0.14636498    0.25860447
     atom   26 type  2   force =     0.00552892   -0.01023373    0.27205180
     atom   27 type  1   force =    -0.00666376    0.01109924    0.00759769
     atom   28 type  2   force =    -0.00270199   -0.02872781   -0.27658622
     atom   29 type  2   force =     0.00657254    0.00558414    0.26024170
     atom   30 type  1   force =    -0.00804536    0.02959151    0.00764774
     atom   31 type  2   force =    -0.00620610   -0.00098270   -0.26211497
[...]
     atom   28 type  2   force =     0.00063951   -0.01325588   -0.27759795
     atom   29 type  2   force =    -0.00015978   -0.00820837    0.26635808
     atom   30 type  1   force =    -0.00466895    0.01818820    0.00498057
     atom   31 type  2   force =    -0.00559641    0.00044823   -0.26817609
     atom   32 type  2   force =     0.00510075   -0.01348475    0.27170160
     atom   33 type  1   force =    -0.00129395    0.01702345    0.01747575
     atom   34 type  2   force =     0.00274147   -0.00601608   -0.27868353
     atom   35 type  2   force =     0.00039759   -0.01446828    0.26559529
     atom   36 type  3   force =     0.03536294   -0.00151965   -2.31791274
     The ionic contribution  to forces
     atom    1 type  1   force =    -0.19390941    1.08705419    1.38989156
     atom    2 type  2   force =    -1.16763953   -0.01776020   38.14798129
     atom    3 type  2   force =    -0.00804888   -0.05214693  -38.36281144
     atom    4 type  1   force =    -0.54555168    0.85955958   -0.50846577
     atom    5 type  2   force =    -0.79703385    1.44559497   38.05261693
     atom    6 type  2   force =     0.14775960   -0.24750512  -38.34953871
     atom    7 type  1   force =    -2.62378939   -2.00577055    1.60753251
     atom    8 type  2   force =    -1.28856180    0.16864345   38.02065984
     atom    9 type  2   force =     0.28228567   -0.03588188  -38.43944200
     atom   10 type  1   force =    -1.01658673   -1.00955851    1.11850222
     atom   11 type  2   force =    -0.43073556   -1.71418506   38.18799124
     atom   12 type  2   force =     0.17706202    0.20105900  -38.42325937
     atom   13 type  1   force =     1.11901292    1.24991859   -1.19622955
     atom   14 type  2   force =     0.99814577   -0.14719908   37.89247827
     atom   15 type  2   force =     0.03193307   -0.10477199  -38.26710854
     atom   16 type  1   force =     0.40955192    3.82532072    1.38060655
     atom   17 type  2   force =     1.32226778    2.13311458   37.86378454
     atom   18 type  2   force =    -0.15589874   -0.18035904  -38.69413580
     atom   19 type  1   force =     2.81832268   -2.35740917    2.08738688
     atom   20 type  2   force =     0.02609006   -0.05569442  -39.05920342
     atom   21 type  1   force =     0.55454281   -0.80298992   -0.47455370
     atom   22 type  2   force =     1.00377836   -2.29988760   37.97134917
     atom   23 type  2   force =    -0.11748769    0.20713094  -38.67925752
     atom   24 type  1   force =    -0.94663575    0.98555962   -1.82355506
     atom   25 type  2   force =     0.28923664   -0.02829684   28.70552550
     atom   26 type  2   force =    -0.01446085   -0.06218547  -38.13034235
     atom   27 type  1   force =     0.14265964    1.24224199   -0.54328225
     atom   28 type  2   force =    -0.53369122    1.51957314   37.59045155
     atom   29 type  2   force =     0.00624892    0.07151173  -38.41526331
     atom   30 type  1   force =    -0.16653414   -1.15999095    0.64047157
     atom   31 type  2   force =     1.12522219    0.18527460   37.95063125
     atom   32 type  2   force =    -0.31216385   -0.02258852  -38.27883849
     atom   33 type  1   force =     0.45552421   -1.57764693   -1.23470694
     atom   34 type  2   force =    -0.59407851   -1.45123777   38.17527458
     atom   35 type  2   force =    -0.06439097    0.05938351  -38.37962198
     atom   36 type  3   force =     0.06755430    0.09212533   50.47648074
     The local contribution  to forces
     atom    1 type  1   force =     0.19392791   -1.11124732   -1.39269769
     atom    2 type  2   force =     1.16901404    0.02419330  -37.89693775
     atom    3 type  2   force =     0.01113475    0.06209315   38.12011654
     atom    4 type  1   force =     0.54187245   -0.86640147    0.50282903
     atom    5 type  2   force =     0.79328332   -1.42202122  -37.81484525
     atom    6 type  2   force =    -0.14822325    0.25277737   38.10195554
     atom    7 type  1   force =     2.63774076    2.00202520   -1.58232269
     atom    8 type  2   force =     1.27982308   -0.16897478  -37.77386109
     atom    9 type  2   force =    -0.27638336    0.04760038   38.19183202
     atom   10 type  1   force =     1.01439561    1.00260771   -1.12061458
     atom   11 type  2   force =     0.42658649    1.71294933  -37.94658748
     atom   12 type  2   force =    -0.16981261   -0.18827180   38.17830888
     atom   13 type  1   force =    -1.11284257   -1.26365083    1.18567321
     atom   14 type  2   force =    -0.99754521    0.15108867  -37.63907320
     atom   15 type  2   force =    -0.03275932    0.11488025   38.02722024
     atom   16 type  1   force =    -0.40941587   -3.86085780   -1.34550102
     atom   17 type  2   force =    -1.31769057   -2.11256265  -37.62612596
     atom   18 type  2   force =     0.15567216    0.18250070   38.44931566
     atom   19 type  1   force =    -2.83719365    2.35768365   -2.06079608
     atom   20 type  2   force =    -0.02706641    0.06784984   38.81784904
     atom   21 type  1   force =    -0.55333844    0.77442913    0.47168690
     atom   22 type  2   force =    -0.99746659    2.29915671  -37.72967023
     atom   23 type  2   force =     0.11041865   -0.19420936   38.43585788
     atom   24 type  1   force =     0.93836454   -0.99165598    1.80421748
     atom   25 type  2   force =    -0.28231992    0.02470963  -28.99218763
     atom   26 type  2   force =     0.01247016    0.07289220   37.87281625
     atom   27 type  1   force =    -0.13722570   -1.24549493    0.54078519
     atom   28 type  2   force =     0.53316040   -1.50681530  -37.33403001
     atom   29 type  2   force =    -0.00578573   -0.06415410   38.16894396
     atom   30 type  1   force =     0.17116698    1.14108056   -0.64420686
     atom   31 type  2   force =    -1.11944115   -0.18530532  -37.70394079
     atom   32 type  2   force =     0.30675431    0.03541655   38.02867848
     atom   33 type  1   force =    -0.45522600    1.56080845    1.21861707
     atom   34 type  2   force =     0.59194670    1.45718844  -37.91814124
     atom   35 type  2   force =     0.06420368   -0.04686526   38.13571476
     atom   36 type  3   force =    -0.10178002   -0.09006280  -48.18626314
     The core correction contribution to forces
     atom    1 type  1   force =     0.00000000    0.00000000    0.00000000
     atom    2 type  2   force =     0.00012066    0.00017254    0.02133157
     atom    3 type  2   force =     0.00019097    0.00040059   -0.02077694
     atom    4 type  1   force =     0.00000000    0.00000000    0.00000000
     atom    5 type  2   force =    -0.00036583    0.00107407    0.02056534
     atom    6 type  2   force =     0.00009009   -0.00021260   -0.02089844
     atom    7 type  1   force =     0.00000000    0.00000000    0.00000000
     atom    8 type  2   force =    -0.00043999    0.00027358    0.02097875
     atom    9 type  2   force =     0.00065930    0.00062292   -0.02102297
     atom   10 type  1   force =     0.00000000    0.00000000    0.00000000
     atom   11 type  2   force =    -0.00003131   -0.00032635    0.02074320
     atom   12 type  2   force =     0.00061461    0.00096069   -0.02090103
     atom   13 type  1   force =     0.00000000    0.00000000    0.00000000
     atom   14 type  2   force =    -0.00004824   -0.00018608    0.02136405
     atom   15 type  2   force =    -0.00005871    0.00044771   -0.02057959
     atom   16 type  1   force =     0.00000000    0.00000000    0.00000000
     atom   17 type  2   force =     0.00035592    0.00092733    0.02068958
     atom   18 type  2   force =    -0.00019624   -0.00024552   -0.02082110
     atom   19 type  1   force =     0.00000000    0.00000000    0.00000000
     atom   20 type  2   force =    -0.00013409    0.00057125   -0.02121016
     atom   21 type  1   force =     0.00000000    0.00000000    0.00000000
     atom   22 type  2   force =     0.00015299   -0.00017325    0.02092867
     atom   23 type  2   force =    -0.00057681    0.00091238   -0.02085792
     atom   24 type  1   force =     0.00000000    0.00000000    0.00000000
     atom   25 type  2   force =     0.00044354   -0.00021245   -0.00990463
     atom   26 type  2   force =    -0.00009713    0.00050109   -0.02133882
     atom   27 type  1   force =     0.00000000    0.00000000    0.00000000
     atom   28 type  2   force =    -0.00001788    0.00084121    0.02146506
     atom   29 type  2   force =     0.00007705    0.00027933   -0.02079735
     atom   30 type  1   force =     0.00000000    0.00000000    0.00000000
     atom   31 type  2   force =     0.00024360    0.00028379    0.02097149
     atom   32 type  2   force =    -0.00052690    0.00069517   -0.02103834
     atom   33 type  1   force =     0.00000000    0.00000000    0.00000000
     atom   34 type  2   force =    -0.00015296    0.00025585    0.02160516
     atom   35 type  2   force =    -0.00004800    0.00085879   -0.02090464
     atom   36 type  3   force =    -0.00037922   -0.00000359    0.02461146
     The Hubbard contrib.    to forces
     atom    1 type  1   force =     0.00000000    0.00000000    0.00000000
     atom    2 type  2   force =     0.00000000    0.00000000    0.00000000
     atom    3 type  2   force =     0.00000000    0.00000000    0.00000000
     atom    4 type  1   force =     0.00000000    0.00000000    0.00000000
     atom    5 type  2   force =     0.00000000    0.00000000    0.00000000
     atom    6 type  2   force =     0.00000000    0.00000000    0.00000000
     atom    7 type  1   force =     0.00000000    0.00000000    0.00000000
     atom    8 type  2   force =     0.00000000    0.00000000    0.00000000
     atom    9 type  2   force =     0.00000000    0.00000000    0.00000000
     atom   10 type  1   force =     0.00000000    0.00000000    0.00000000
     atom   11 type  2   force =     0.00000000    0.00000000    0.00000000
     atom   12 type  2   force =     0.00000000    0.00000000    0.00000000
     atom   13 type  1   force =     0.00000000    0.00000000    0.00000000
     atom   14 type  2   force =     0.00000000    0.00000000    0.00000000
     atom   15 type  2   force =     0.00000000    0.00000000    0.00000000
     atom   16 type  1   force =     0.00000000    0.00000000    0.00000000
     atom   17 type  2   force =     0.00000000    0.00000000    0.00000000
     atom   18 type  2   force =     0.00000000    0.00000000    0.00000000
     atom   19 type  1   force =     0.00000000    0.00000000    0.00000000
     atom   20 type  2   force =     0.00000000    0.00000000    0.00000000
     atom   21 type  1   force =     0.00000000    0.00000000    0.00000000
     atom   22 type  2   force =     0.00000000    0.00000000    0.00000000
     atom   23 type  2   force =     0.00000000    0.00000000    0.00000000
     atom   24 type  1   force =     0.00000000    0.00000000    0.00000000
     atom   25 type  2   force =     0.00000000    0.00000000    0.00000000
     atom   26 type  2   force =     0.00000000    0.00000000    0.00000000
     atom   27 type  1   force =     0.00000000    0.00000000    0.00000000
     atom   28 type  2   force =     0.00000000    0.00000000    0.00000000
     atom   29 type  2   force =     0.00000000    0.00000000    0.00000000
     atom   30 type  1   force =     0.00000000    0.00000000    0.00000000
     atom   31 type  2   force =     0.00000000    0.00000000    0.00000000
     atom   32 type  2   force =     0.00000000    0.00000000    0.00000000
     atom   33 type  1   force =     0.00000000    0.00000000    0.00000000
     atom   34 type  2   force =     0.00000000    0.00000000    0.00000000
     atom   35 type  2   force =     0.00000000    0.00000000    0.00000000
     atom   36 type  3   force =     0.00000000    0.00000000    0.00000000
     The SCF correction term to forces
     atom    1 type  1   force =     0.00000664    0.00000537   -0.00006397
     atom    2 type  2   force =    -0.00001993   -0.00000233   -0.00001925
     atom    3 type  2   force =    -0.00001899   -0.00001761   -0.00002581
     atom    4 type  1   force =    -0.00001164    0.00001427   -0.00003851
     atom    5 type  2   force =    -0.00000835    0.00000393   -0.00002649
     atom    6 type  2   force =    -0.00000269    0.00000193   -0.00000233
     atom    7 type  1   force =    -0.00001188    0.00001699   -0.00008578
     atom    8 type  2   force =     0.00000796   -0.00000736   -0.00002631
     atom    9 type  2   force =     0.00000777    0.00000920   -0.00002781
     atom   10 type  1   force =    -0.00001680   -0.00001786   -0.00006649
     atom   11 type  2   force =    -0.00000692    0.00001054   -0.00003137
     atom   12 type  2   force =    -0.00000704    0.00000178   -0.00001793
     atom   13 type  1   force =     0.00000554   -0.00003544   -0.00002830
     atom   14 type  2   force =    -0.00001258    0.00000203   -0.00002978
     atom   15 type  2   force =     0.00000691   -0.00001850   -0.00000822
     atom   16 type  1   force =     0.00000206    0.00001159   -0.00004914
     atom   17 type  2   force =     0.00001237    0.00001067   -0.00002722
     atom   18 type  2   force =     0.00000317    0.00001859   -0.00000633
     atom   19 type  1   force =    -0.00000216   -0.00000393   -0.00005288
     atom   20 type  2   force =     0.00000749    0.00000194   -0.00001619
     atom   21 type  1   force =     0.00002328   -0.00000838   -0.00007612
     atom   22 type  2   force =     0.00001407   -0.00000326   -0.00002635
     atom   23 type  2   force =     0.00001318   -0.00000496   -0.00001448
     atom   24 type  1   force =     0.00002602   -0.00000257   -0.00005233
     atom   25 type  2   force =     0.00001235   -0.00000906   -0.00004463
     atom   26 type  2   force =     0.00000704   -0.00000589   -0.00000522
     atom   27 type  1   force =     0.00000768    0.00002726   -0.00006604
     atom   28 type  2   force =    -0.00000648    0.00001402   -0.00002817
     atom   29 type  2   force =    -0.00000074    0.00001517   -0.00001758
     atom   30 type  1   force =    -0.00002288   -0.00001883   -0.00005799
     atom   31 type  2   force =     0.00000533   -0.00000321   -0.00003118
     atom   32 type  2   force =    -0.00000033    0.00000149   -0.00001289
     atom   33 type  1   force =     0.00000087    0.00000777   -0.00006494
     atom   34 type  2   force =    -0.00000030   -0.00001092   -0.00002701
     atom   35 type  2   force =    -0.00000857    0.00000331   -0.00003157
     atom   36 type  3   force =     0.00000098   -0.00001462   -0.00006461

     Total force =     0.007320     Total SCF correction =     0.000268
     Energy error            =      9.5E-05 Ry
     Gradient error          =      3.2E-03 Ry/Bohr

     bfgs converged in  21 scf cycles and  20 bfgs steps
     (criteria: energy <  1.0E-04 Ry, force <  1.0E-02 Ry/Bohr)

     End of BFGS Geometry Optimization

     Final energy             =   -2246.4497542865 Ry

     File ./MoS2-V-O.bfgs deleted, as requested
Begin final coordinates

ATOMIC_POSITIONS (angstrom)
Mo            6.5436897531        1.7220015519        2.7647259811
S             8.1181403930        0.8237974745        4.3679179912
S             8.1096217087        0.8140407574        1.1655651860
Mo            8.1036553637        4.4749908334        2.7148756011
S             6.5060579703        3.6394075596        4.3155867324
S             6.5305295781        3.5383730373        1.1241995773
Mo            6.4978646814        7.1586809030        2.6671523708
S             8.0618151112        6.2840359785        4.3014560829
S             8.1181609486        6.3017119656        1.1098223944
Mo            8.1170314412        9.9148411379        2.7641585023
S             6.5008126423        8.9248314436        4.3212403501
S             6.5662590901        9.0062116924        1.1246924176
Mo            3.4305016366        1.7573778409        2.7541605144
S             4.9683276622        0.7922141245        4.3477324587
S             4.9817931816        0.8120967909        1.1654026043
Mo            4.9742705583        4.5234854530        2.6694161875
S             3.4484540437        3.6474636014        4.3246793391
S             3.4182986950        3.5615387586        1.1144322298
Mo            3.4569715275        7.1609225022        2.6794292483
S             4.9715193929        6.2915883189        1.0509945785
Mo            4.9708475200        9.8830027946        2.7298002818
S             3.4460592871        8.9251332127        4.3303802135
S             3.3907879908        8.9929577707        1.1205064030
Mo            0.2224643770        1.7406980686        2.7543920602
S             1.8349519250        0.8225094292        4.2765041121
S             1.8315226118        0.8259049816        1.1902694432
Mo            1.8444983197        4.4713032648        2.7229212112
S             0.2407474962        3.5855098234        4.3263901546
S             0.2443396568        3.5566561899        1.1417674990
Mo            0.2396378089        7.1988650906        2.7344788501
S             1.8772213729        6.2833550225        4.3082134863
S             1.8339103722        6.3036701975        1.1212870169
Mo            1.8317768203        9.8844363874        2.7545816594
S             0.2438078775        9.0029987913        4.3617353741
S             0.2338454912        9.0238985688        1.1567274994
O             1.8129038165       11.7593350916        5.7771659245
End final coordinates



     Writing all to output data dir ./MoS2-V-O.save/
 
     init_run     :      4.68s CPU      4.96s WALL (       1 calls)
     electrons    :   1956.67s CPU   2152.44s WALL (      21 calls)
     update_pot   :     60.81s CPU     63.60s WALL (      20 calls)
     forces       :     56.98s CPU     61.45s WALL (      21 calls)

     Called by init_run:
     wfcinit      :      0.51s CPU      0.54s WALL (       1 calls)
     potinit      :      2.40s CPU      2.55s WALL (       1 calls)
     hinit0       :      0.45s CPU      0.48s WALL (       1 calls)

     Called by electrons:
     c_bands      :    286.90s CPU    291.97s WALL (     197 calls)
     sum_band     :    120.09s CPU    133.98s WALL (     197 calls)
     v_of_rho     :    183.91s CPU    211.04s WALL (     211 calls)
     newd         :     63.32s CPU     74.75s WALL (     211 calls)
     PAW_pot      :      8.38s CPU      8.41s WALL (     231 calls)
     mix_rho      :   1315.06s CPU   1452.26s WALL (     197 calls)

     Called by c_bands:
     init_us_2    :      4.70s CPU      4.86s WALL (     415 calls)
     init_us_2:cp :      4.70s CPU      4.85s WALL (     415 calls)
     regterg      :    272.71s CPU    277.60s WALL (     197 calls)

     Called by *egterg:
     rdiaghg      :     17.93s CPU     18.08s WALL (    1022 calls)
     h_psi        :    179.26s CPU    180.63s WALL (    1050 calls)
     s_psi        :     16.42s CPU     16.47s WALL (    1050 calls)
     g_psi        :      0.88s CPU      0.89s WALL (     852 calls)

     Called by h_psi:
     h_psi:calbec :     18.17s CPU     18.24s WALL (    1050 calls)
     vloc_psi     :    142.70s CPU    143.92s WALL (    1050 calls)
     add_vuspsi   :     16.12s CPU     16.18s WALL (    1050 calls)

     General routines
     calbec       :     26.49s CPU     26.60s WALL (    1351 calls)
     fft          :    125.55s CPU    145.46s WALL (   14095 calls)
     ffts         :    580.37s CPU    712.74s WALL (  318229 calls)
     fftw         :     86.85s CPU     87.51s WALL (  120806 calls)
     interpolate  :      2.65s CPU      3.03s WALL (     211 calls)
 
     Parallel routines
 
     PWSCF        :  34m48.05s CPU  38m13.97s WALL

 
   This run was terminated on:  23:26:19   1Nov2023            

=------------------------------------------------------------------------------=
   JOB DONE.
=------------------------------------------------------------------------------=
