
     Program PWSCF v.7.2 starts on  1Nov2023 at 15:25:52 

     This program is part of the open-source Quantum ESPRESSO suite
     for quantum simulation of materials; please cite
         "P. Giannozzi et al., J. Phys.:Condens. Matter 21 395502 (2009);
         "P. Giannozzi et al., J. Phys.:Condens. Matter 29 465901 (2017);
         "P. Giannozzi et al., J. Chem. Phys. 152 154105 (2020);
          URL http://www.quantum-espresso.org", 
     in publications or presentations arising from this work. More details at
     http://www.quantum-espresso.org/quote

     Parallel version (MPI & OpenMP), running on      48 processor cores
     Number of MPI processes:                48
     Threads/MPI process:                     1

     MPI processes distributed on     1 nodes
     77153 MiB available memory on the printing compute node when the environment starts
 
     Waiting for input...
     Reading input from standard input
Warning: card &CELL ignored
Warning: card CELL_DYNAMICS = 'BFGS', ignored
Warning: card CELL_DOFREE = '2DXY' ignored
Warning: card / ignored

     Current dimensions of program PWSCF are:
     Max number of different atomic species (ntypx) = 10
     Max number of k-points (npk) =  40000
     Max angular momentum in pseudopotentials (lmaxx) =  4
     file O.pbe-n-kjpaw_psl.0.1.UPF: wavefunction(s)  2P renormalized

     IMPORTANT: XC functional enforced from input :
     Exchange-correlation= RVV10
                           (   1   4  13   4  26   0   0)
     Any further DFT definition will be discarded
     Please, verify this is what you really want


     gamma-point specific algorithms are used
     signal trapping enabled: kill the code with -SIGUSR1 to stop cleanly the simulation 
 
     R & G space division:  proc/nbgrp/npool/nimage =      48
     Subspace diagonalization in iterative solution of the eigenvalue problem:
     one sub-group per band group will be used
     scalapack distributed-memory algorithm (size of sub-group:  2*  2 procs)

 
     Parallelization info
     --------------------
     sticks:   dense  smooth     PW     G-vecs:    dense   smooth      PW
     Min         396     194     47               101632    35090    4376
     Max         398     196     50               101674    35128    4410
     Sum       19091    9389   2349              4879585  1685513  210763
 
     Using Slab Decomposition
 


     bravais-lattice index     =            0
     lattice parameter (alat)  =      17.8707  a.u.
     unit-cell volume          =   17436.2743 (a.u.)^3
     number of atoms/cell      =           36
     number of atomic types    =            3
     number of electrons       =       312.00
     number of Kohn-Sham states=          187
     kinetic-energy cutoff     =      80.0000  Ry
     charge density cutoff     =     650.0000  Ry
     scf convergence threshold =      1.0E-06
     mixing beta               =       0.7000
     number of iterations used =            8  local-TF  mixing
     energy convergence thresh.=      1.0E-04
     force convergence thresh. =      1.0E-02
     Exchange-correlation= RVV10
                           (   1   4  13   4  26   0   0)
     nstep                     =          200


     celldm(1)=  17.870686  celldm(2)=   0.000000  celldm(3)=   0.000000
     celldm(4)=   0.000000  celldm(5)=   0.000000  celldm(6)=   0.000000

     crystal axes: (cart. coord. in units of alat)
               a(1) = (   1.000000   0.000000   0.000000 )  
               a(2) = (   0.000000   1.155671   0.000000 )  
               a(3) = (   0.000000   0.000000   2.643601 )  

     reciprocal axes: (cart. coord. in units 2 pi/alat)
               b(1) = (  1.000000  0.000000  0.000000 )  
               b(2) = (  0.000000  0.865298  0.000000 )  
               b(3) = (  0.000000  0.000000  0.378272 )  


     PseudoPot. # 1 for Mo read from file:
     ../pseudo/Mo_ONCV_PBE-1.0.oncvpsp.upf
     MD5 check sum: 1b5d28e075c9ccadda658a603575cd1f
     Pseudo is Norm-conserving, Zval = 14.0
     Generated using ONCVPSP code by D. R. Hamann
     Using radial grid of 1526 points,  6 beta functions with: 
                l(1) =   0
                l(2) =   0
                l(3) =   1
                l(4) =   1
                l(5) =   2
                l(6) =   2

     PseudoPot. # 2 for S  read from file:
     ../pseudo/s_pbe_v1.4.uspp.F.UPF
     MD5 check sum: 88d86576ff6df21479756cfb9bdac1df
     Pseudo is Ultrasoft + core correction, Zval =  6.0
     Generated by new atomic code, or converted to UPF format
     Using radial grid of  907 points,  6 beta functions with: 
                l(1) =   0
                l(2) =   0
                l(3) =   1
                l(4) =   1
                l(5) =   2
                l(6) =   2
     Q(r) pseudized with  8 coefficients,  rinner =    1.300   1.300   1.300
                                                       1.300   1.300

     PseudoPot. # 3 for O  read from file:
     ../pseudo/O.pbe-n-kjpaw_psl.0.1.UPF
     MD5 check sum: 0234752ac141de4415c5fc33072bef88
     Pseudo is Projector augmented-wave + core cor, Zval =  6.0
     Generated using "atomic" code by A. Dal Corso  v.5.0.99 svn rev. 10869
     Shape of augmentation charge: BESSEL
     Using radial grid of 1095 points,  4 beta functions with: 
                l(1) =   0
                l(2) =   0
                l(3) =   1
                l(4) =   1
     Q(r) pseudized with 0 coefficients 


     atomic species   valence    mass     pseudopotential
        Mo            14.00    95.94000     Mo( 1.00)
        S              6.00    32.06500     S ( 1.00)
        O              6.00    15.99940     O ( 1.00)

     No symmetry found



   Cartesian axes

     site n.     atom                  positions (alat units)
         1           Mo  tau(   1) = (   0.6952221   0.1890506   0.2985846  )
         2           S   tau(   2) = (   0.8646417   0.0856217   0.4689279  )
         3           S   tau(   3) = (   0.8663890   0.0857843   0.1351291  )
         4           Mo  tau(   4) = (   0.8560186   0.4753274   0.2873942  )
         5           S   tau(   5) = (   0.6873294   0.3936244   0.4596353  )
         6           S   tau(   6) = (   0.6929804   0.3713468   0.1185692  )
         7           Mo  tau(   7) = (   0.6862796   0.7633098   0.2825370  )
         8           S   tau(   8) = (   0.8545980   0.6708292   0.4486168  )
         9           S   tau(   9) = (   0.8545123   0.6666874   0.1146125  )
        10           Mo  tau(  10) = (   0.8629403   1.0471007   0.3006803  )
        11           S   tau(  11) = (   0.6868280   0.9456650   0.4634891  )
        12           S   tau(  12) = (   0.6998113   0.9568511   0.1205389  )
        13           Mo  tau(  13) = (   0.3618216   0.1847309   0.2935964  )
        14           S   tau(  14) = (   0.5260962   0.0863870   0.4600448  )
        15           S   tau(  15) = (   0.5348379   0.0894875   0.1297123  )
        16           Mo  tau(  16) = (   0.5265817   0.4772436   0.2784130  )
        17           S   tau(  17) = (   0.3624753   0.3882513   0.4525556  )
        18           S   tau(  18) = (   0.3635411   0.3752055   0.1119148  )
        19           Mo  tau(  19) = (   0.3652268   0.7630864   0.2781795  )
        20           S   tau(  20) = (   0.5269494   0.6690381   0.1096838  )
        21           Mo  tau(  21) = (   0.5300192   1.0470394   0.2900995  )
        22           S   tau(  22) = (   0.3670346   0.9457522   0.4574073  )
        23           S   tau(  23) = (   0.3604225   0.9585725   0.1159032  )
        24           Mo  tau(  24) = (   0.0313099   0.1847895   0.3013130  )
        25           S   tau(  25) = (   0.1956761   0.0838230   0.4650863  )
        26           S   tau(  26) = (   0.1967693   0.0903508   0.1278874  )
        27           Mo  tau(  27) = (   0.1967578   0.4753919   0.2813011  )
        28           S   tau(  28) = (   0.0287851   0.3864324   0.4586755  )
        29           S   tau(  29) = (   0.0244514   0.3729871   0.1239344  )
        30           Mo  tau(  30) = (   0.0286728   0.7631204   0.2856894  )
        31           S   tau(  31) = (   0.2011512   0.6675435   0.4465001  )
        32           S   tau(  32) = (   0.1969214   0.6672839   0.1104564  )
        33           Mo  tau(  33) = (   0.1950294   1.0511147   0.2932237  )
        34           S   tau(  34) = (   0.0312912   0.9612169   0.4667423  )
        35           S   tau(  35) = (   0.0292670   0.9563028   0.1216485  )
        36           O   tau(  36) = (   0.5555556   0.3852236   0.5407634  )

     number of k points=     1  Gaussian smearing, width (Ry)=  0.0100
                       cart. coord. in units 2pi/alat
        k(    1) = (   0.0000000   0.0000000   0.0000000), wk =   2.0000000

     Dense  grid:  2439793 G-vectors     FFT dimensions: ( 150, 180, 384)

     Smooth grid:   842757 G-vectors     FFT dimensions: ( 108, 120, 270)

     Estimated max dynamical RAM per process >     269.22 MB

     Estimated total dynamical RAM >      12.62 GB

     Initial potential from superposition of free atoms

     starting charge     311.9873, renormalised to     312.0000

     negative rho (up, down):  2.741E-04 0.000E+00


---------------------------------------------------------------------------------
Carrying out rVV10 run using the following parameters:
Nqs =      20    Nr_points =    1024   r_max =   100.000
b_value =  6.30000    beta =  0.00901
     q_mesh =  0.00010000  0.00030000  0.00058939  0.00100810
               0.00161396  0.00249058  0.00375900  0.00559430
               0.00824984  0.01209221  0.01765183  0.02569619
               0.03733578  0.05417739  0.07854596  0.11380545
               0.16482331  0.23864234  0.34545298  0.50000000

Gradients computed in Reciprocal space

---------------------------------------------------------------------------------


     Starting wfcs are  216 randomized atomic wfcs
     Checking if some PAW data can be deallocated... 

     total cpu time spent up to now is        5.3 secs

     Self-consistent Calculation

     iteration #  1     ecut=    80.00 Ry     beta= 0.70
     Davidson diagonalization with overlap
     ethr =  1.00E-02,  avg # of iterations =  2.0

     Threshold (ethr) on eigenvalues was too large:
     Diagonalizing with lowered threshold

     Davidson diagonalization with overlap
     ethr =  4.40E-04,  avg # of iterations =  3.0

     negative rho (up, down):  4.003E-08 0.000E+00

     total cpu time spent up to now is       20.0 secs

     total energy              =   -2246.16530147 Ry
     estimated scf accuracy    <       1.62419477 Ry

     iteration #  2     ecut=    80.00 Ry     beta= 0.70
     Davidson diagonalization with overlap
     ethr =  5.21E-04,  avg # of iterations =  3.0

     total cpu time spent up to now is       24.8 secs

     total energy              =   -2246.15186534 Ry
     estimated scf accuracy    <       0.63263592 Ry

     iteration #  3     ecut=    80.00 Ry     beta= 0.70
     Davidson diagonalization with overlap
     ethr =  2.03E-04,  avg # of iterations =  5.0

     total cpu time spent up to now is       29.1 secs

     total energy              =   -2246.15187724 Ry
     estimated scf accuracy    <       0.16718310 Ry

     iteration #  4     ecut=    80.00 Ry     beta= 0.70
     Davidson diagonalization with overlap
     ethr =  5.36E-05,  avg # of iterations =  4.0

     total cpu time spent up to now is       33.5 secs

     total energy              =   -2246.18043188 Ry
     estimated scf accuracy    <       0.02977793 Ry

     iteration #  5     ecut=    80.00 Ry     beta= 0.70
     Davidson diagonalization with overlap
     ethr =  9.54E-06,  avg # of iterations = 20.0

     total cpu time spent up to now is       38.9 secs

     total energy              =   -2246.18184583 Ry
     estimated scf accuracy    <       0.01731381 Ry

     iteration #  6     ecut=    80.00 Ry     beta= 0.70
     Davidson diagonalization with overlap
     ethr =  5.55E-06,  avg # of iterations =  2.0

     total cpu time spent up to now is       43.0 secs

     total energy              =   -2246.18133479 Ry
     estimated scf accuracy    <       0.01216882 Ry

     iteration #  7     ecut=    80.00 Ry     beta= 0.70
     Davidson diagonalization with overlap
     ethr =  3.90E-06,  avg # of iterations =  1.0

     total cpu time spent up to now is       47.0 secs

     total energy              =   -2246.18030402 Ry
     estimated scf accuracy    <       0.00816538 Ry

     iteration #  8     ecut=    80.00 Ry     beta= 0.70
     Davidson diagonalization with overlap
     ethr =  2.62E-06,  avg # of iterations =  1.0

     negative rho (up, down):  2.047E-03 0.000E+00

     total cpu time spent up to now is       53.5 secs

     total energy              =   -2246.17873387 Ry
     estimated scf accuracy    <       0.00517036 Ry

     iteration #  9     ecut=    80.00 Ry     beta= 0.70
     Davidson diagonalization with overlap
     ethr =  1.66E-06,  avg # of iterations =  2.0

     negative rho (up, down):  1.515E-02 0.000E+00

     total cpu time spent up to now is       61.1 secs

     total energy              =   -2246.17855765 Ry
     estimated scf accuracy    <       0.00277381 Ry

     iteration # 10     ecut=    80.00 Ry     beta= 0.70
     Davidson diagonalization with overlap
     ethr =  8.89E-07,  avg # of iterations =  1.0

     negative rho (up, down):  2.521E-02 0.000E+00

     total cpu time spent up to now is       67.1 secs

     total energy              =   -2246.17849570 Ry
     estimated scf accuracy    <       0.00141134 Ry

     iteration # 11     ecut=    80.00 Ry     beta= 0.70
     Davidson diagonalization with overlap
     ethr =  4.52E-07,  avg # of iterations =  2.0

     negative rho (up, down):  2.188E-02 0.000E+00

     total cpu time spent up to now is       74.5 secs

     total energy              =   -2246.17854176 Ry
     estimated scf accuracy    <       0.00044996 Ry

     iteration # 12     ecut=    80.00 Ry     beta= 0.70
     Davidson diagonalization with overlap
     ethr =  1.44E-07,  avg # of iterations =  2.0

     negative rho (up, down):  7.063E-03 0.000E+00

     total cpu time spent up to now is       82.0 secs

     total energy              =   -2246.17851775 Ry
     estimated scf accuracy    <       0.00006878 Ry

     iteration # 13     ecut=    80.00 Ry     beta= 0.70
     Davidson diagonalization with overlap
     ethr =  2.20E-08,  avg # of iterations =  5.0

     negative rho (up, down):  1.883E-03 0.000E+00

     total cpu time spent up to now is       90.0 secs

     total energy              =   -2246.17855623 Ry
     estimated scf accuracy    <       0.00000784 Ry

     iteration # 14     ecut=    80.00 Ry     beta= 0.70
     Davidson diagonalization with overlap
     ethr =  2.51E-09,  avg # of iterations =  5.0

     negative rho (up, down):  5.660E-04 0.000E+00

     total cpu time spent up to now is      103.8 secs

     total energy              =   -2246.17856089 Ry
     estimated scf accuracy    <       0.00000147 Ry

     iteration # 15     ecut=    80.00 Ry     beta= 0.70
     Davidson diagonalization with overlap
     ethr =  4.73E-10,  avg # of iterations =  4.0

     negative rho (up, down):  2.081E-04 0.000E+00

     total cpu time spent up to now is      108.3 secs

     End of self-consistent calculation

          k = 0.0000 0.0000 0.0000 (105382 PWs)   bands (ev):

   -63.0290 -62.8819 -62.8770 -62.8377 -62.8356 -62.8170 -62.8094 -62.7909
   -62.7883 -62.7752 -62.7684 -62.7628 -37.3017 -37.2734 -37.1885 -37.1798
   -37.1557 -37.1375 -37.1200 -37.1096 -37.0818 -37.0702 -37.0582 -37.0535
   -37.0372 -37.0260 -37.0215 -37.0204 -37.0114 -37.0033 -36.9940 -36.9787
   -36.9736 -36.9625 -36.9519 -36.9450 -36.9370 -36.9253 -36.9205 -36.9112
   -36.9027 -36.8897 -36.8733 -36.8529 -36.8381 -36.8122 -36.7275 -36.7182
   -23.9167 -15.9498 -15.3481 -15.1517 -15.1147 -14.9252 -14.8134 -14.7481
   -14.4778 -14.4747 -14.4123 -14.3640 -14.3597 -14.3188 -14.2929 -14.1806
   -14.1240 -14.1202 -14.0531 -13.8973 -13.8770 -13.8576 -13.8284 -13.5014
    -9.2850  -8.2714  -8.1721  -7.5762  -7.4341  -7.3001  -7.2349  -7.2150
    -7.1912  -7.0913  -7.0033  -6.8072  -6.7805  -6.7517  -6.6399  -6.5869
    -6.4732  -6.4611  -6.4086  -6.2860  -6.2106  -6.0804  -5.9655  -5.9267
    -5.8034  -5.7778  -5.7411  -5.7200  -5.7135  -5.6383  -5.6032  -5.5877
    -5.5090  -5.4370  -5.4264  -5.2713  -5.2368  -5.1749  -5.1084  -5.0368
    -5.0130  -4.9966  -4.8758  -4.7878  -4.6981  -4.5965  -4.3928  -4.3200
    -4.2530  -4.2332  -4.1123  -4.0812  -3.9894  -3.9815  -3.9262  -3.8199
    -3.7914  -3.7078  -3.6448  -3.6098  -3.5571  -3.5196  -3.4935  -3.4659
    -3.4268  -3.3888  -3.2663  -3.2057  -3.0636  -3.0237  -2.9224  -2.8621
    -2.7636  -2.7315  -2.6921  -2.6816  -2.6504  -2.6470  -2.5675  -2.2578
    -2.1135  -2.0150  -1.9058  -1.5200  -1.1251  -0.7591  -0.7064  -0.1839
    -0.1529  -0.0564  -0.0426   0.0287   0.1122   0.1652   0.2156   0.2859
     0.3007   0.3191   0.4354   0.4716   0.5244   0.5564   0.6152   0.6373
     0.6593   0.7273   0.7461   0.7651   0.8172   0.8477   0.9152   0.9709
     1.0273   1.0610   1.2098

     the Fermi energy is    -1.3225 ev

!    total energy              =   -2246.17856182 Ry
     estimated scf accuracy    <       0.00000018 Ry
     smearing contrib. (-TS)   =      -0.00137390 Ry
     internal energy E=F+TS    =   -2246.17718792 Ry

     The total energy is F=E-TS. E is the sum of the following terms:
     one-electron contribution =  -18493.37199328 Ry
     hartree contribution      =    9235.16757823 Ry
     xc contribution           =    -392.27877712 Ry
     ewald contribution        =    7414.16317671 Ry
     one-center paw contrib.   =      -9.85717246 Ry

     convergence has been achieved in  15 iterations

     negative rho (up, down):  2.081E-04 0.000E+00

     Forces acting on atoms (cartesian axes, Ry/au):

     atom    1 type  1   force =     0.01536221   -0.03007017   -0.00143978
     atom    2 type  2   force =    -0.01349117    0.01614419    0.00119201
     atom    3 type  2   force =    -0.00598324    0.00786131   -0.00455146
     atom    4 type  1   force =     0.00161233    0.03767370    0.00194264
     atom    5 type  2   force =     0.13277130   -0.07498415   -0.12548521
     atom    6 type  2   force =     0.00273706    0.01160428   -0.00101693
     atom    7 type  1   force =    -0.00473269   -0.01348170   -0.00793952
     atom    8 type  2   force =     0.00624604    0.00128379    0.01744921
     atom    9 type  2   force =     0.01756361   -0.00007327    0.00582116
     atom   10 type  1   force =    -0.00950669    0.00935649   -0.02837492
     atom   11 type  2   force =     0.00393669   -0.00412453   -0.00599185
     atom   12 type  2   force =     0.00043510    0.00195532    0.00718219
     atom   13 type  1   force =     0.00980587    0.00604555   -0.00319483
     atom   14 type  2   force =     0.00557795   -0.00068590    0.01138720
     atom   15 type  2   force =    -0.01234897    0.00424172   -0.01013358
     atom   16 type  1   force =    -0.00859659    0.03560780   -0.07067428
     atom   17 type  2   force =    -0.07294240   -0.00281261   -0.04974151
     atom   18 type  2   force =    -0.00335478   -0.00408579    0.01510387
     atom   19 type  1   force =     0.01242202   -0.00240607   -0.00050061
     atom   20 type  2   force =     0.00042396   -0.00773541    0.00512983
     atom   21 type  1   force =    -0.00385538    0.00393515    0.00046750
     atom   22 type  2   force =    -0.00249728   -0.00198917   -0.00218455
     atom   23 type  2   force =    -0.00090677    0.00206102    0.00969632
     atom   24 type  1   force =    -0.01167684   -0.00478724   -0.01994528
     atom   25 type  2   force =     0.01583585    0.01869165    0.00808564
     atom   26 type  2   force =    -0.01423799   -0.00181773   -0.00601061
     atom   27 type  1   force =    -0.01413594   -0.00318958   -0.00682105
     atom   28 type  2   force =     0.00983829   -0.00336691   -0.00533089
     atom   29 type  2   force =     0.00142354    0.00042217   -0.00425957
     atom   30 type  1   force =    -0.00330033    0.01385525   -0.00364323
     atom   31 type  2   force =    -0.00003277   -0.00059650    0.01801209
     atom   32 type  2   force =    -0.01030277    0.00480902    0.00319029
     atom   33 type  1   force =     0.01257322   -0.00588102   -0.00877753
     atom   34 type  2   force =     0.00282569   -0.04270829   -0.00950750
     atom   35 type  2   force =    -0.00874352    0.00688437    0.01556574
     atom   36 type  3   force =    -0.05074460    0.02236327    0.25529900
     The non-local contrib.  to forces
     atom    1 type  1   force =     0.01445985    0.05347680   -0.00420296
     atom    2 type  2   force =    -0.01055070    0.00706933   -0.27138156
     atom    3 type  2   force =    -0.01164695   -0.00306079    0.26909930
     atom    4 type  1   force =     0.01073063    0.00000875    0.01010034
     atom    5 type  2   force =    -0.31190912    0.00899391    0.03210123
     atom    6 type  2   force =    -0.00144221    0.00827879    0.26034286
     atom    7 type  1   force =    -0.02265541   -0.00271455   -0.01297280
     atom    8 type  2   force =     0.00318850   -0.00762623   -0.25362549
     atom    9 type  2   force =     0.00999027   -0.01502466    0.28327906
     atom   10 type  1   force =     0.00470371    0.00029971   -0.00198434
     atom   11 type  2   force =     0.01330623    0.00346937   -0.26135971
     atom   12 type  2   force =    -0.01297590   -0.01830227    0.26332494
     atom   13 type  1   force =    -0.00946365    0.01701194   -0.00868263
     atom   14 type  2   force =     0.00742065   -0.02418865   -0.25755688
     atom   15 type  2   force =    -0.01123441   -0.00549691    0.25586450
     atom   16 type  1   force =     0.01112844    0.02699676   -0.00464409
     atom   17 type  2   force =     0.05652519   -0.03798054   -0.20467565
     atom   18 type  2   force =    -0.00019861   -0.00647520    0.27297889
     atom   19 type  1   force =     0.00950594   -0.01050933   -0.00821796
     atom   20 type  2   force =    -0.00012377   -0.02602364    0.26786709
     atom   21 type  1   force =    -0.00153885    0.01753977    0.00729836
     atom   22 type  2   force =    -0.00631676    0.00220187   -0.25978272
     atom   23 type  2   force =     0.00726642   -0.01526029    0.26841227
     atom   24 type  1   force =     0.01002563    0.00793498   -0.01324213
     atom   25 type  2   force =     0.00594347    0.00607347   -0.26052594
     atom   26 type  2   force =    -0.00442691   -0.01271382    0.26247590
     atom   27 type  1   force =     0.01257826    0.00314262    0.02017587
     atom   28 type  2   force =     0.00628350   -0.02077050   -0.27207853
     atom   29 type  2   force =     0.00480471    0.00200139    0.26046092
     atom   30 type  1   force =     0.00311658    0.01988708    0.00996650
     atom   31 type  2   force =    -0.01140616    0.00577844   -0.24635857
     atom   32 type  2   force =    -0.00250298   -0.00314392    0.27404221
     atom   33 type  1   force =    -0.00672991    0.00944890    0.00439739
     atom   34 type  2   force =    -0.00041756   -0.03768959   -0.27347709
     atom   35 type  2   force =    -0.00281118   -0.01161326    0.27176750
     atom   36 type  3   force =     1.63942344    0.13689403   -1.02448725
     The ionic contribution  to forces
     atom    1 type  1   force =     1.95896250   -2.12220004    2.28078302
     atom    2 type  2   force =    -0.10581234   -0.28206387   39.05167680
     atom    3 type  2   force =    -0.01311092   -0.20518874  -36.72047257
     atom    4 type  1   force =     1.80196605    1.24673607   -1.68901595
     atom    5 type  2   force =     6.87310788    2.00075951   33.81419519
     atom    6 type  2   force =     0.60182346   -0.53070108  -39.24328122
     atom    7 type  1   force =    -2.15206850   -1.49699064    1.00218478
     atom    8 type  2   force =    -0.37313828    0.75562740   37.06787807
     atom    9 type  2   force =     0.48997345    0.17431668  -38.66020869
     atom   10 type  1   force =    -0.76574349   -0.68014504    4.75015405
     atom   11 type  2   force =    -0.41890880   -1.53175884   38.98042898
     atom   12 type  2   force =     0.50156380    0.70185553  -38.38428259
     atom   13 type  1   force =    -1.10579989   -0.83047538    0.09350090
     atom   14 type  2   force =    -0.13852895   -2.03578043   37.88802384
     atom   15 type  2   force =     0.13338791   -0.42699112  -37.66393664
     atom   16 type  1   force =    -0.66115813    6.05126535   -6.03405405
     atom   17 type  2   force =    -3.52247697    1.56970079   35.82633469
     atom   18 type  2   force =    -0.44211033   -0.66401365  -39.64227570
     atom   19 type  1   force =     2.16870327   -1.35362556   -0.79054767
     atom   20 type  2   force =     0.19826086    0.12954861  -39.33064437
     atom   21 type  1   force =    -0.02115794   -0.55371512   -0.01698206
     atom   22 type  2   force =     0.28185226   -1.65125578   38.26814132
     atom   23 type  2   force =    -0.15502275    0.67201582  -38.80724614
     atom   24 type  1   force =    -0.38562231    0.48846406    4.58258894
     atom   25 type  2   force =     0.24410675   -0.25725772   39.06548507
     atom   26 type  2   force =    -0.40836404   -0.12749140  -37.93586858
     atom   27 type  1   force =    -1.14934379    0.89017926   -4.14006525
     atom   28 type  2   force =     0.24066910    1.00948644   37.93119043
     atom   29 type  2   force =    -0.21654145   -0.43962121  -37.95581418
     atom   30 type  1   force =    -0.25794283   -0.35257753   -1.01618653
     atom   31 type  2   force =     0.76540359    0.50451342   37.05357831
     atom   32 type  2   force =    -0.59449859    0.17410916  -39.24570969
     atom   33 type  1   force =     0.52724119   -1.17986013    1.17404812
     atom   34 type  2   force =     0.26459524   -1.43677900   39.24629826
     atom   35 type  2   force =    -0.28890248    0.48417885  -38.26925553
     atom   36 type  3   force =    -3.87536455    1.30573534   47.46935665
     The local contribution  to forces
     atom    1 type  1   force =    -1.95828973    2.03862327   -2.27805678
     atom    2 type  2   force =     0.10249788    0.29159979  -38.80000065
     atom    3 type  2   force =     0.01822530    0.21608255   36.46762110
     atom    4 type  1   force =    -1.81106967   -1.20902535    1.68056433
     atom    5 type  2   force =    -6.44547655   -2.08475700  -33.97658930
     atom    6 type  2   force =    -0.59796959    0.53503097   39.00264070
     atom    7 type  1   force =     2.17002748    1.48623376   -0.99751688
     atom    8 type  2   force =     0.37620019   -0.74762465  -36.81724868
     atom    9 type  2   force =    -0.48209217   -0.16021267   38.40391454
     atom   10 type  1   force =     0.75146154    0.68922702   -4.77670711
     atom   11 type  2   force =     0.41012562    1.52467996  -38.74586308
     atom   12 type  2   force =    -0.48936503   -0.68305142   38.14889666
     atom   13 type  1   force =     1.12529433    0.81970954   -0.08803243
     atom   14 type  2   force =     0.13711752    2.05864811  -37.63963500
     atom   15 type  2   force =    -0.13512402    0.43642309   37.41829401
     atom   16 type  1   force =     0.64118932   -6.04296174    5.96787071
     atom   17 type  2   force =     3.39547985   -1.53655331  -35.68973341
     atom   18 type  2   force =     0.43910133    0.66684301   39.40543445
     atom   19 type  1   force =    -2.16593816    1.36169981    0.79787983
     atom   20 type  2   force =    -0.19793001   -0.11229103   39.08905122
     atom   21 type  1   force =     0.01876297    0.54019401    0.00997753
     atom   22 type  2   force =    -0.27816416    1.64748424  -38.03127021
     atom   23 type  2   force =     0.14742473   -0.65606669   38.56937445
     atom   24 type  1   force =     0.36390297   -0.50106639   -4.58943725
     atom   25 type  2   force =    -0.23421331    0.27041578  -38.81769128
     atom   26 type  2   force =     0.39867144    0.13774889   37.68815557
     atom   27 type  1   force =     1.12280966   -0.89642686    4.11288200
     atom   28 type  2   force =    -0.23700835   -0.99373981  -37.68540604
     atom   29 type  2   force =     0.21359779    0.43870751   37.71148679
     atom   30 type  1   force =     0.25162407    0.34644940    1.00226358
     atom   31 type  2   force =    -0.75462960   -0.51077862  -36.80958542
     atom   32 type  2   force =     0.58689993   -0.16638472   38.99584166
     atom   33 type  1   force =    -0.50776051    1.16439462   -1.18747212
     atom   34 type  2   force =    -0.26171765    1.43051823  -39.00358748
     atom   35 type  2   force =     0.28305656   -0.46675838   38.03409925
     atom   36 type  3   force =     2.20234791   -1.41899527  -46.19918376
     The core correction contribution to forces
     atom    1 type  1   force =     0.00000000    0.00000000    0.00000000
     atom    2 type  2   force =     0.00028805   -0.00042131    0.02076940
     atom    3 type  2   force =     0.00049714    0.00004911   -0.02082227
     atom    4 type  1   force =     0.00000000    0.00000000    0.00000000
     atom    5 type  2   force =     0.01688389   -0.00004999    0.00484735
     atom    6 type  2   force =     0.00024704   -0.00097688   -0.02077831
     atom    7 type  1   force =     0.00000000    0.00000000    0.00000000
     atom    8 type  2   force =     0.00003200    0.00088914    0.02032391
     atom    9 type  2   force =    -0.00027427    0.00084767   -0.02127368
     atom   10 type  1   force =     0.00000000    0.00000000    0.00000000
     atom   11 type  2   force =    -0.00063520   -0.00043867    0.02071203
     atom   12 type  2   force =     0.00116420    0.00144934   -0.02085829
     atom   13 type  1   force =     0.00000000    0.00000000    0.00000000
     atom   14 type  2   force =    -0.00043006    0.00074325    0.02046951
     atom   15 type  2   force =     0.00062503    0.00032307   -0.02032324
     atom   16 type  1   force =     0.00000000    0.00000000    0.00000000
     atom   17 type  2   force =    -0.00236134    0.00200689    0.01823375
     atom   18 type  2   force =    -0.00011032   -0.00036335   -0.02101408
     atom   19 type  1   force =     0.00000000    0.00000000    0.00000000
     atom   20 type  2   force =     0.00011915    0.00101197   -0.02126838
     atom   21 type  1   force =     0.00000000    0.00000000    0.00000000
     atom   22 type  2   force =     0.00015168   -0.00041622    0.02059669
     atom   23 type  2   force =    -0.00057315    0.00128502   -0.02090468
     atom   24 type  1   force =     0.00000000    0.00000000    0.00000000
     atom   25 type  2   force =     0.00007907   -0.00049214    0.02071142
     atom   26 type  2   force =    -0.00007107    0.00065137   -0.02081774
     atom   27 type  1   force =     0.00000000    0.00000000    0.00000000
     atom   28 type  2   force =    -0.00004867    0.00165630    0.02081837
     atom   29 type  2   force =    -0.00039450   -0.00060039   -0.02042913
     atom   30 type  1   force =     0.00000000    0.00000000    0.00000000
     atom   31 type  2   force =     0.00064338   -0.00016116    0.02017622
     atom   32 type  2   force =    -0.00014600    0.00023933   -0.02101568
     atom   33 type  1   force =     0.00000000    0.00000000    0.00000000
     atom   34 type  2   force =     0.00037214    0.00121794    0.02113479
     atom   35 type  2   force =    -0.00005209    0.00097978   -0.02113255
     atom   36 type  3   force =    -0.01727477   -0.00136755    0.00951903
     The Hubbard contrib.    to forces
     atom    1 type  1   force =     0.00000000    0.00000000    0.00000000
     atom    2 type  2   force =     0.00000000    0.00000000    0.00000000
     atom    3 type  2   force =     0.00000000    0.00000000    0.00000000
     atom    4 type  1   force =     0.00000000    0.00000000    0.00000000
     atom    5 type  2   force =     0.00000000    0.00000000    0.00000000
     atom    6 type  2   force =     0.00000000    0.00000000    0.00000000
     atom    7 type  1   force =     0.00000000    0.00000000    0.00000000
     atom    8 type  2   force =     0.00000000    0.00000000    0.00000000
     atom    9 type  2   force =     0.00000000    0.00000000    0.00000000
     atom   10 type  1   force =     0.00000000    0.00000000    0.00000000
     atom   11 type  2   force =     0.00000000    0.00000000    0.00000000
     atom   12 type  2   force =     0.00000000    0.00000000    0.00000000
     atom   13 type  1   force =     0.00000000    0.00000000    0.00000000
     atom   14 type  2   force =     0.00000000    0.00000000    0.00000000
     atom   15 type  2   force =     0.00000000    0.00000000    0.00000000
     atom   16 type  1   force =     0.00000000    0.00000000    0.00000000
     atom   17 type  2   force =     0.00000000    0.00000000    0.00000000
     atom   18 type  2   force =     0.00000000    0.00000000    0.00000000
     atom   19 type  1   force =     0.00000000    0.00000000    0.00000000
     atom   20 type  2   force =     0.00000000    0.00000000    0.00000000
     atom   21 type  1   force =     0.00000000    0.00000000    0.00000000
     atom   22 type  2   force =     0.00000000    0.00000000    0.00000000
     atom   23 type  2   force =     0.00000000    0.00000000    0.00000000
     atom   24 type  1   force =     0.00000000    0.00000000    0.00000000
     atom   25 type  2   force =     0.00000000    0.00000000    0.00000000
     atom   26 type  2   force =     0.00000000    0.00000000    0.00000000
     atom   27 type  1   force =     0.00000000    0.00000000    0.00000000
     atom   28 type  2   force =     0.00000000    0.00000000    0.00000000
     atom   29 type  2   force =     0.00000000    0.00000000    0.00000000
     atom   30 type  1   force =     0.00000000    0.00000000    0.00000000
     atom   31 type  2   force =     0.00000000    0.00000000    0.00000000
     atom   32 type  2   force =     0.00000000    0.00000000    0.00000000
     atom   33 type  1   force =     0.00000000    0.00000000    0.00000000
     atom   34 type  2   force =     0.00000000    0.00000000    0.00000000
     atom   35 type  2   force =     0.00000000    0.00000000    0.00000000
     atom   36 type  3   force =     0.00000000    0.00000000    0.00000000
     The SCF correction term to forces
     atom    1 type  1   force =     0.00022665    0.00002972    0.00003552
     atom    2 type  2   force =     0.00008302   -0.00003982    0.00012660
     atom    3 type  2   force =     0.00004926   -0.00002089    0.00002156
     atom    4 type  1   force =    -0.00001762   -0.00004585    0.00029250
     atom    5 type  2   force =     0.00016228    0.00006934   -0.00004110
     atom    6 type  2   force =     0.00007542   -0.00002760    0.00005762
     atom    7 type  1   force =    -0.00003919   -0.00001035    0.00036397
     atom    8 type  2   force =    -0.00003930    0.00001805    0.00011999
     atom    9 type  2   force =    -0.00003660   -0.00000037    0.00010851
     atom   10 type  1   force =     0.00006862   -0.00002529    0.00016106
     atom   11 type  2   force =     0.00004591   -0.00007643    0.00008851
     atom   12 type  2   force =     0.00004510    0.00000406    0.00010006
     atom   13 type  1   force =    -0.00022787   -0.00020063    0.00001791
     atom   14 type  2   force =    -0.00000415   -0.00010825    0.00008431
     atom   15 type  2   force =    -0.00000642   -0.00001649   -0.00003363
     atom   16 type  1   force =     0.00024085    0.00030735    0.00015174
     atom   17 type  2   force =    -0.00011207    0.00001348    0.00009769
     atom   18 type  2   force =    -0.00003979   -0.00007669   -0.00002110
     atom   19 type  1   force =     0.00014805    0.00002893    0.00038376
     atom   20 type  2   force =     0.00009480    0.00001860    0.00012285
     atom   21 type  1   force =     0.00007551   -0.00008359    0.00017225
     atom   22 type  2   force =    -0.00002323   -0.00000336    0.00012895
     atom   23 type  2   force =    -0.00000496    0.00008709    0.00005899
     atom   24 type  1   force =     0.00001394   -0.00011996    0.00014375
     atom   25 type  2   force =    -0.00008305   -0.00004782    0.00010496
     atom   26 type  2   force =    -0.00005035   -0.00001284    0.00004281
     atom   27 type  1   force =    -0.00018300   -0.00008469    0.00018491
     atom   28 type  2   force =    -0.00006023    0.00000058    0.00014347
     atom   29 type  2   force =    -0.00004594   -0.00006522    0.00003462
     atom   30 type  1   force =    -0.00010109    0.00009622    0.00031180
     atom   31 type  2   force =    -0.00004692    0.00005134    0.00020013
     atom   32 type  2   force =    -0.00005806   -0.00001091    0.00003037
     atom   33 type  1   force =    -0.00018048    0.00013550    0.00024766
     atom   34 type  2   force =    -0.00000940    0.00002405    0.00012260
     atom   35 type  2   force =    -0.00003726    0.00009729    0.00008565
     atom   36 type  3   force =     0.00012043    0.00009663    0.00009291

     Total force =     0.364783     Total SCF correction =     0.001237

     BFGS Geometry Optimization
     Energy error            =      0.0E+00 Ry
     Gradient error          =      2.6E-01 Ry/Bohr

     number of scf cycles    =   1
     number of bfgs steps    =   0

     energy             new  =   -2246.1785618217 Ry

     new trust radius        =       0.2612521950 bohr
     new conv_thr            =       0.0000010000 Ry


ATOMIC_POSITIONS (angstrom)
Mo            6.5826777390        1.7718937794        2.8228811345
S             8.1695701182        0.8182471605        4.4351691387
S             8.1900668903        0.8154017730        1.2754748976
Mo            8.0960157724        4.5149930086        2.7188463938
S             6.5701688047        3.6827315861        4.2802567329
S             6.5547981904        3.5178782781        1.1207420920
Mo            6.4874772667        7.2113030743        2.6676830727
S             8.0850329904        6.3445503435        4.2516952890
S             8.0902119091        6.3046635462        1.0869434226
Mo            8.1555883243        9.9071316519        2.8284463993
S             6.4972508012        8.9407442078        4.3799347822
S             6.6181774442        9.0497459240        1.1437079559
Mo            3.4268487043        1.7501550153        2.7747805320
S             4.9781172146        0.8165782452        4.3565589409
S             5.0512989596        0.8485067277        1.2212960001
Mo            4.9752075608        4.5320208394        2.5954853302
S             3.3892422044        3.6701113176        4.2533875059
S             3.4361453078        3.5460665912        1.0663443054
Mo            3.4604351921        7.2150513019        2.6304119479
S             4.9834585409        6.3228388809        1.0399683206
Mo            5.0102237426        9.9036824447        2.7436483484
S             3.4696366130        8.9426986454        4.3244352974
S             3.4079493229        9.0660806311        1.1011993695
Mo            0.2899113687        1.7449762334        2.8388901215
S             1.8588421858        0.8025852006        4.4024881732
S             1.8532656156        0.8534640183        1.2062201741
Mo            1.8532108903        4.4939789077        2.6565878379
S             0.2774200486        3.6526171341        4.3347631126
S             0.2319845117        3.5274726271        1.1697638184
Mo            0.2694056914        7.2239779764        2.6997685160
S             1.9022209057        6.3124831790        4.2319757099
S             1.8567862214        6.3128886366        1.0462475136
Mo            1.8510001245        9.9370270512        2.7683013829
S             0.2974081907        9.0673975730        4.4088383121
S             0.2721445301        9.0471687669        1.1586378170
O             5.2269026691        3.6548007987        5.2489678782



     Writing config-only to output data dir ./MoS2-V-O.save/
     NEW-OLD atomic charge density approx. for the potential

     negative rho (up, down):  1.979E-04 0.000E+00

     total cpu time spent up to now is      116.2 secs

     Self-consistent Calculation

     iteration #  1     ecut=    80.00 Ry     beta= 0.70
     Davidson diagonalization with overlap
     ethr =  1.00E-06,  avg # of iterations = 13.0

     negative rho (up, down):  1.965E-03 0.000E+00

     total cpu time spent up to now is      133.5 secs

     total energy              =   -2246.23947818 Ry
     estimated scf accuracy    <       0.02644356 Ry

     iteration #  2     ecut=    80.00 Ry     beta= 0.70
     Davidson diagonalization with overlap
     ethr =  8.48E-06,  avg # of iterations =  5.0

     negative rho (up, down):  3.070E-03 0.000E+00

     total cpu time spent up to now is      147.8 secs

     total energy              =   -2246.24167465 Ry
     estimated scf accuracy    <       0.01495910 Ry

     iteration #  3     ecut=    80.00 Ry     beta= 0.70
     Davidson diagonalization with overlap
     ethr =  4.79E-06,  avg # of iterations =  3.0

     negative rho (up, down):  5.485E-03 0.000E+00

     total cpu time spent up to now is      160.4 secs

     total energy              =   -2246.24172563 Ry
     estimated scf accuracy    <       0.00262939 Ry

     iteration #  4     ecut=    80.00 Ry     beta= 0.70
     Davidson diagonalization with overlap
     ethr =  8.43E-07,  avg # of iterations =  4.0

     negative rho (up, down):  5.850E-03 0.000E+00

     total cpu time spent up to now is      171.6 secs

     total energy              =   -2246.24198439 Ry
     estimated scf accuracy    <       0.00121505 Ry

     iteration #  5     ecut=    80.00 Ry     beta= 0.70
     Davidson diagonalization with overlap
     ethr =  3.89E-07,  avg # of iterations =  2.0

     negative rho (up, down):  5.723E-03 0.000E+00

     total cpu time spent up to now is      183.0 secs

     total energy              =   -2246.24189222 Ry
     estimated scf accuracy    <       0.00053172 Ry

     iteration #  6     ecut=    80.00 Ry     beta= 0.70
     Davidson diagonalization with overlap
     ethr =  1.70E-07,  avg # of iterations =  5.0

     negative rho (up, down):  5.029E-03 0.000E+00

     total cpu time spent up to now is      194.2 secs

     total energy              =   -2246.24196998 Ry
     estimated scf accuracy    <       0.00013032 Ry

     iteration #  7     ecut=    80.00 Ry     beta= 0.70
     Davidson diagonalization with overlap
     ethr =  4.18E-08,  avg # of iterations =  3.0

     negative rho (up, down):  3.729E-03 0.000E+00

     total cpu time spent up to now is      204.6 secs

     total energy              =   -2246.24196358 Ry
     estimated scf accuracy    <       0.00002513 Ry

     iteration #  8     ecut=    80.00 Ry     beta= 0.70
     Davidson diagonalization with overlap
     ethr =  8.05E-09,  avg # of iterations =  5.0

     negative rho (up, down):  2.631E-03 0.000E+00

     total cpu time spent up to now is      215.4 secs

     total energy              =   -2246.24195895 Ry
     estimated scf accuracy    <       0.00001332 Ry

     iteration #  9     ecut=    80.00 Ry     beta= 0.70
     Davidson diagonalization with overlap
     ethr =  4.27E-09,  avg # of iterations =  2.0

     negative rho (up, down):  1.427E-03 0.000E+00

     total cpu time spent up to now is      225.8 secs

     total energy              =   -2246.24195053 Ry
     estimated scf accuracy    <       0.00000499 Ry

     iteration # 10     ecut=    80.00 Ry     beta= 0.70
     Davidson diagonalization with overlap
     ethr =  1.60E-09,  avg # of iterations =  4.0

     negative rho (up, down):  8.798E-04 0.000E+00

     total cpu time spent up to now is      236.9 secs

     total energy              =   -2246.24194751 Ry
     estimated scf accuracy    <       0.00000101 Ry

     iteration # 11     ecut=    80.00 Ry     beta= 0.70
     Davidson diagonalization with overlap
     ethr =  3.23E-10,  avg # of iterations =  5.0

     negative rho (up, down):  2.003E-04 0.000E+00

     total cpu time spent up to now is      241.4 secs

     End of self-consistent calculation

          k = 0.0000 0.0000 0.0000 (105382 PWs)   bands (ev):

   -63.0730 -62.9558 -62.9379 -62.9010 -62.8976 -62.8919 -62.8794 -62.8721
   -62.8604 -62.8507 -62.8402 -62.8344 -37.3678 -37.3289 -37.2504 -37.2438
   -37.2213 -37.2007 -37.1935 -37.1713 -37.1487 -37.1387 -37.1329 -37.1241
   -37.1116 -37.0946 -37.0896 -37.0867 -37.0815 -37.0758 -37.0634 -37.0612
   -37.0460 -37.0262 -37.0221 -37.0062 -37.0045 -36.9988 -36.9905 -36.9862
   -36.9714 -36.9570 -36.9500 -36.9248 -36.9126 -36.8891 -36.8116 -36.7890
   -21.3739 -16.0189 -15.2644 -15.2262 -15.1982 -14.9846 -14.8235 -14.8096
   -14.5356 -14.5326 -14.4911 -14.4366 -14.4349 -14.3847 -14.3461 -14.2580
   -14.2044 -14.1861 -14.1138 -13.9447 -13.9389 -13.9283 -13.9155 -13.8398
    -8.4159  -7.8215  -7.6943  -7.5338  -7.4310  -7.3776  -7.3085  -7.2860
    -7.2407  -7.0463  -7.0003  -6.8662  -6.8571  -6.7689  -6.7019  -6.6067
    -6.5461  -6.5160  -6.4586  -6.3191  -6.1792  -6.1025  -6.0425  -6.0034
    -5.8710  -5.8496  -5.8140  -5.7910  -5.7671  -5.7192  -5.6760  -5.6427
    -5.5833  -5.5029  -5.4867  -5.2908  -5.2799  -5.2277  -5.1615  -5.0989
    -5.0856  -5.0547  -4.9321  -4.8257  -4.6992  -4.6565  -4.4189  -4.3753
    -4.2965  -4.2604  -4.1734  -4.1093  -4.0481  -3.9861  -3.9636  -3.8701
    -3.8623  -3.7554  -3.7297  -3.6597  -3.6337  -3.5959  -3.5650  -3.5381
    -3.5106  -3.4588  -3.3256  -3.2775  -3.0992  -3.0700  -2.9576  -2.9117
    -2.8059  -2.7824  -2.7685  -2.7648  -2.7346  -2.7096  -2.6829  -2.3114
    -2.1963  -2.0905  -1.9823  -1.5997  -1.0867  -0.8317  -0.7662  -0.2573
    -0.2348  -0.1247  -0.0938  -0.0170   0.0628   0.1006   0.1697   0.2237
     0.2317   0.2651   0.3657   0.4068   0.4628   0.5051   0.5341   0.5622
     0.6017   0.6544   0.6874   0.7099   0.7564   0.7715   0.8621   0.9181
     0.9809   1.0047   1.1307

     the Fermi energy is    -1.3432 ev

!    total energy              =   -2246.24194526 Ry
     estimated scf accuracy    <       0.00000042 Ry
     smearing contrib. (-TS)   =      -0.00032258 Ry
     internal energy E=F+TS    =   -2246.24162268 Ry

     The total energy is F=E-TS. E is the sum of the following terms:
     one-electron contribution =  -18477.82491508 Ry
     hartree contribution      =    9226.88438521 Ry
     xc contribution           =    -392.10969515 Ry
     ewald contribution        =    7406.67687335 Ry
     one-center paw contrib.   =      -9.86827100 Ry

     convergence has been achieved in  11 iterations

     negative rho (up, down):  2.003E-04 0.000E+00

     Forces acting on atoms (cartesian axes, Ry/au):

     atom    1 type  1   force =     0.00251893   -0.02698736   -0.00930420
     atom    2 type  2   force =    -0.00736514    0.00843002   -0.00073031
     atom    3 type  2   force =    -0.00579979    0.00622831   -0.01168129
     atom    4 type  1   force =     0.01944426    0.02718721   -0.00704773
     atom    5 type  2   force =    -0.09545611   -0.06111804    0.03461782
     atom    6 type  2   force =     0.00494415    0.00797404   -0.00592364
     atom    7 type  1   force =     0.00105364   -0.00880217   -0.00326884
     atom    8 type  2   force =     0.00288619    0.00395000    0.01590645
     atom    9 type  2   force =     0.01312992    0.00599026    0.00072932
     atom   10 type  1   force =    -0.00331642    0.00777888   -0.00959960
     atom   11 type  2   force =     0.00320078   -0.00336396   -0.00833279
     atom   12 type  2   force =    -0.00258242    0.00033588    0.00252387
     atom   13 type  1   force =     0.00373471    0.00161079   -0.00583876
     atom   14 type  2   force =     0.00535778    0.00134555    0.00731661
     atom   15 type  2   force =    -0.00904781    0.00231905   -0.00923338
     atom   16 type  1   force =    -0.00716657    0.00415132   -0.00808550
     atom   17 type  2   force =    -0.00522047   -0.00230772   -0.02411211
     atom   18 type  2   force =    -0.00620247   -0.00408952    0.00353506
     atom   19 type  1   force =     0.00708833   -0.00412767    0.00153890
     atom   20 type  2   force =     0.00013051    0.00328335   -0.01014788
     atom   21 type  1   force =    -0.00312136    0.00368979    0.00232760
     atom   22 type  2   force =    -0.00080935   -0.00182121   -0.00199557
     atom   23 type  2   force =     0.00024534    0.00042851    0.00547865
     atom   24 type  1   force =    -0.00636808   -0.00295073   -0.00934972
     atom   25 type  2   force =     0.01095475    0.01361310    0.00129468
     atom   26 type  2   force =    -0.00889475   -0.00150122   -0.00499788
     atom   27 type  1   force =    -0.01662137    0.00558205   -0.00797392
     atom   28 type  2   force =     0.00624009   -0.00333645   -0.00613021
     atom   29 type  2   force =    -0.00160837   -0.00054123   -0.00632414
     atom   30 type  1   force =    -0.00175495    0.00576625    0.00253853
     atom   31 type  2   force =    -0.00044997   -0.00066913    0.01055244
     atom   32 type  2   force =    -0.00810136    0.00578504    0.00231723
     atom   33 type  1   force =     0.00528632   -0.00181948    0.00003702
     atom   34 type  2   force =     0.00024802   -0.03098751   -0.01349169
     atom   35 type  2   force =    -0.00617350    0.00761777    0.00795259
     atom   36 type  3   force =     0.10959651    0.03135624    0.06490241
     The non-local contrib.  to forces
     atom    1 type  1   force =     0.01330842    0.04055958   -0.00954555
     atom    2 type  2   force =    -0.00560911    0.00081139   -0.27314324
     atom    3 type  2   force =    -0.01126492   -0.00550345    0.26447097
     atom    4 type  1   force =     0.00795591    0.00101319    0.01425967
     atom    5 type  2   force =    -0.40581843    0.04522507    0.14874948
     atom    6 type  2   force =    -0.00119761    0.00638021    0.26067369
     atom    7 type  1   force =    -0.02451075   -0.00227650   -0.01641808
     atom    8 type  2   force =     0.00197624   -0.00491905   -0.25607522
     atom    9 type  2   force =     0.00642393   -0.01039996    0.27938799
     atom   10 type  1   force =     0.00343568   -0.00012028   -0.00279659
     atom   11 type  2   force =     0.01217489    0.00276546   -0.26480481
     atom   12 type  2   force =    -0.01389669   -0.01963078    0.26250611
     atom   13 type  1   force =    -0.00764876    0.02137392   -0.00834056
     atom   14 type  2   force =     0.00758533   -0.02344348   -0.26391543
     atom   15 type  2   force =    -0.00828212   -0.00644664    0.25555116
     atom   16 type  1   force =    -0.00005253    0.03497877   -0.01023760
     atom   17 type  2   force =     0.08181184   -0.02621716   -0.18384621
     atom   18 type  2   force =    -0.00027734   -0.00253226    0.26847324
     atom   19 type  1   force =     0.01248845   -0.00921681   -0.01162650
     atom   20 type  2   force =    -0.00072984   -0.01901121    0.25858037
     atom   21 type  1   force =    -0.00263880    0.01849292    0.00650232
     atom   22 type  2   force =    -0.00406855    0.00223007   -0.26084855
     atom   23 type  2   force =     0.00815742   -0.01623495    0.26646462
     atom   24 type  1   force =     0.00879034    0.00808966   -0.01313454
     atom   25 type  2   force =     0.00232309    0.00251587   -0.26687628
     atom   26 type  2   force =    -0.00051753   -0.01217933    0.26449818
     atom   27 type  1   force =     0.01143636    0.00024883    0.02344333
     atom   28 type  2   force =     0.00017436   -0.01884760   -0.27683496
     atom   29 type  2   force =     0.00209970    0.00008559    0.26045684
     atom   30 type  1   force =     0.00268605    0.02103273    0.00899919
     atom   31 type  2   force =    -0.01161643    0.00623621   -0.25377189
     atom   32 type  2   force =     0.00004882   -0.00320203    0.27458765
     atom   33 type  1   force =    -0.00443953    0.00788589    0.00321867
     atom   34 type  2   force =    -0.00286956   -0.02778893   -0.27813654
     atom   35 type  2   force =    -0.00164098   -0.01028601    0.26779404
     atom   36 type  3   force =     1.25195802    0.01846878   -0.93872827
     The ionic contribution  to forces
     atom    1 type  1   force =     1.30072796   -1.69280570    2.37475780
     atom    2 type  2   force =     0.04179464   -0.41339621   39.15975951
     atom    3 type  2   force =    -0.00718538   -0.16887533  -36.84865374
     atom    4 type  1   force =     1.76847894    1.07363660   -1.58464753
     atom    5 type  2   force =     4.22178187    1.69861124   33.85232927
     atom    6 type  2   force =     0.65031482   -0.69870619  -39.07148526
     atom    7 type  1   force =    -2.10552570   -1.33123786    1.13880337
     atom    8 type  2   force =    -0.47548954    0.79330141   37.29210552
     atom    9 type  2   force =     0.48244757    0.22850853  -38.69917060
     atom   10 type  1   force =    -0.58132765   -0.71932332    4.45019683
     atom   11 type  2   force =    -0.37944346   -1.53840454   38.94892357
     atom   12 type  2   force =     0.42103952    0.65384749  -38.34087236
     atom   13 type  1   force =    -0.85854177   -0.77245433    0.31241591
     atom   14 type  2   force =    -0.17823214   -1.81472244   37.95320664
     atom   15 type  2   force =     0.12012175   -0.36812790  -37.66148852
     atom   16 type  1   force =    -0.43962600    4.95066765   -6.15631677
     atom   17 type  2   force =    -2.52317208    1.57669867   35.49826801
     atom   18 type  2   force =    -0.49894660   -0.77280460  -39.53218872
     atom   19 type  1   force =     1.97842936   -1.39712696   -0.53318289
     atom   20 type  2   force =     0.16876670    0.33500715  -39.46606648
     atom   21 type  1   force =    -0.03570851   -0.50240502    0.18495823
     atom   22 type  2   force =     0.28113794   -1.63425054   38.31415244
     atom   23 type  2   force =    -0.13907038    0.65568626  -38.77569013
     atom   24 type  1   force =    -0.15800556    0.39292115    4.34088677
     atom   25 type  2   force =     0.15877493   -0.31434142   39.03084970
     atom   26 type  2   force =    -0.32231959   -0.11745584  -37.87411867
     atom   27 type  1   force =    -1.06264015    1.03369982   -4.24781669
     atom   28 type  2   force =     0.20813994    0.92878330   37.91956547
     atom   29 type  2   force =    -0.27703750   -0.44606770  -37.95757618
     atom   30 type  1   force =    -0.10984683   -0.40408429   -0.94978108
     atom   31 type  2   force =     0.83083889    0.48964201   37.11416631
     atom   32 type  2   force =    -0.55183843    0.20106267  -39.17404714
     atom   33 type  1   force =     0.39676742   -0.91219472    1.29026314
     atom   34 type  2   force =     0.21078964   -1.20571173   39.18253150
     atom   35 type  2   force =    -0.22197295    0.49700828  -38.20069717
     atom   36 type  3   force =    -2.31442168    1.71541439   46.71565997
     The local contribution  to forces
     atom    1 type  1   force =    -1.31152336    1.62513828   -2.37466285
     atom    2 type  2   force =    -0.04372574    0.42119442  -38.90834933
     atom    3 type  2   force =     0.01218922    0.18033418   36.59301761
     atom    4 type  1   force =    -1.75725690   -1.04744297    1.56301015
     atom    5 type  2   force =    -3.93426984   -1.80321318  -33.96486362
     atom    6 type  2   force =    -0.64460518    0.70138412   38.82525251
     atom    7 type  1   force =     2.13089414    1.32459687   -1.12618717
     atom    8 type  2   force =     0.47630408   -0.78528488  -37.04064794
     atom    9 type  2   force =    -0.47568441   -0.21275337   38.44140870
     atom   10 type  1   force =     0.57467945    0.72729906   -4.45762495
     atom   11 type  2   force =     0.37098834    1.53275882  -38.71330384
     atom   12 type  2   force =    -0.41083341   -0.63527360   38.10144207
     atom   13 type  1   force =     0.86995054    0.75262079   -0.31027102
     atom   14 type  2   force =     0.17647113    1.83865123  -37.70287089
     atom   15 type  2   force =    -0.12138684    0.37647295   37.41673028
     atom   16 type  1   force =     0.43252521   -4.98131074    6.15820413
     atom   17 type  2   force =     2.43928455   -1.55439594  -35.35610017
     atom   18 type  2   force =     0.49330091    0.77193324   39.28785265
     atom   19 type  1   force =    -1.98364823    1.40227813    0.54578709
     atom   20 type  2   force =    -0.16806066   -0.31367934   39.21816035
     atom   21 type  1   force =     0.03514923    0.48759553   -0.18965647
     atom   22 type  2   force =    -0.27795232    1.63067721  -38.07603432
     atom   23 type  2   force =     0.13171266   -0.64028427   38.53532146
     atom   24 type  1   force =     0.14283130   -0.40423511   -4.33769999
     atom   25 type  2   force =    -0.15032194    0.32569728  -38.78359043
     atom   26 type  2   force =     0.31410812    0.12742926   37.62518406
     atom   27 type  1   force =     1.03478513   -1.02843483    4.21581386
     atom   28 type  2   force =    -0.20228324   -0.91480452  -37.66990009
     atom   29 type  2   force =     0.27371354    0.44585527   37.71086858
     atom   30 type  1   force =     0.10540633    0.38919092    0.94278715
     atom   31 type  2   force =    -0.82031054   -0.49629973  -36.87025839
     atom   32 type  2   force =     0.54397953   -0.19229795   38.92243948
     atom   33 type  1   force =    -0.38707322    0.90242852   -1.29400795
     atom   34 type  2   force =    -0.20805947    1.20167480  -38.93921504
     atom   35 type  2   force =     0.21750801   -0.47995767   37.96162593
     atom   36 type  3   force =     1.18642586   -1.70238820  -45.72174478
     The core correction contribution to forces
     atom    1 type  1   force =     0.00000000    0.00000000    0.00000000
     atom    2 type  2   force =     0.00014481   -0.00021805    0.02096187
     atom    3 type  2   force =     0.00050411    0.00017970   -0.02077731
     atom    4 type  1   force =     0.00000000    0.00000000    0.00000000
     atom    5 type  2   force =     0.02263356   -0.00174090   -0.00154359
     atom    6 type  2   force =     0.00038070   -0.00104103   -0.02067719
     atom    7 type  1   force =     0.00000000    0.00000000    0.00000000
     atom    8 type  2   force =     0.00005373    0.00084869    0.02052866
     atom    9 type  2   force =    -0.00008699    0.00067337   -0.02121527
     atom   10 type  1   force =     0.00000000    0.00000000    0.00000000
     atom   11 type  2   force =    -0.00052211   -0.00042151    0.02085151
     atom   12 type  2   force =     0.00113351    0.00145515   -0.02085075
     atom   13 type  1   force =     0.00000000    0.00000000    0.00000000
     atom   14 type  2   force =    -0.00044845    0.00091036    0.02089213
     atom   15 type  2   force =     0.00047730    0.00036446   -0.02033081
     atom   16 type  1   force =     0.00000000    0.00000000    0.00000000
     atom   17 type  2   force =    -0.00294453    0.00158720    0.01753658
     atom   18 type  2   force =    -0.00024595   -0.00066449   -0.02090532
     atom   19 type  1   force =     0.00000000    0.00000000    0.00000000
     atom   20 type  2   force =     0.00013538    0.00093492   -0.02107323
     atom   21 type  1   force =     0.00000000    0.00000000    0.00000000
     atom   22 type  2   force =     0.00003920   -0.00042590    0.02070452
     atom   23 type  2   force =    -0.00058100    0.00130166   -0.02088289
     atom   24 type  1   force =     0.00000000    0.00000000    0.00000000
     atom   25 type  2   force =     0.00020090   -0.00032862    0.02092109
     atom   26 type  2   force =    -0.00019667    0.00063353   -0.02087238
     atom   27 type  1   force =     0.00000000    0.00000000    0.00000000
     atom   28 type  2   force =     0.00017742    0.00149708    0.02104376
     atom   29 type  2   force =    -0.00035848   -0.00048942   -0.02042941
     atom   30 type  1   force =     0.00000000    0.00000000    0.00000000
     atom   31 type  2   force =     0.00066732   -0.00016876    0.02042972
     atom   32 type  2   force =    -0.00024837    0.00026524   -0.02101952
     atom   33 type  1   force =     0.00000000    0.00000000    0.00000000
     atom   34 type  2   force =     0.00042119    0.00086966    0.02132547
     atom   35 type  2   force =    -0.00006394    0.00092597   -0.02102392
     atom   36 type  3   force =    -0.01425077   -0.00014050    0.00957825
     The Hubbard contrib.    to forces
     atom    1 type  1   force =     0.00000000    0.00000000    0.00000000
     atom    2 type  2   force =     0.00000000    0.00000000    0.00000000
     atom    3 type  2   force =     0.00000000    0.00000000    0.00000000
     atom    4 type  1   force =     0.00000000    0.00000000    0.00000000
     atom    5 type  2   force =     0.00000000    0.00000000    0.00000000
     atom    6 type  2   force =     0.00000000    0.00000000    0.00000000
     atom    7 type  1   force =     0.00000000    0.00000000    0.00000000
     atom    8 type  2   force =     0.00000000    0.00000000    0.00000000
     atom    9 type  2   force =     0.00000000    0.00000000    0.00000000
     atom   10 type  1   force =     0.00000000    0.00000000    0.00000000
     atom   11 type  2   force =     0.00000000    0.00000000    0.00000000
     atom   12 type  2   force =     0.00000000    0.00000000    0.00000000
     atom   13 type  1   force =     0.00000000    0.00000000    0.00000000
     atom   14 type  2   force =     0.00000000    0.00000000    0.00000000
     atom   15 type  2   force =     0.00000000    0.00000000    0.00000000
     atom   16 type  1   force =     0.00000000    0.00000000    0.00000000
     atom   17 type  2   force =     0.00000000    0.00000000    0.00000000
     atom   18 type  2   force =     0.00000000    0.00000000    0.00000000
     atom   19 type  1   force =     0.00000000    0.00000000    0.00000000
     atom   20 type  2   force =     0.00000000    0.00000000    0.00000000
     atom   21 type  1   force =     0.00000000    0.00000000    0.00000000
     atom   22 type  2   force =     0.00000000    0.00000000    0.00000000
     atom   23 type  2   force =     0.00000000    0.00000000    0.00000000
     atom   24 type  1   force =     0.00000000    0.00000000    0.00000000
     atom   25 type  2   force =     0.00000000    0.00000000    0.00000000
     atom   26 type  2   force =     0.00000000    0.00000000    0.00000000
     atom   27 type  1   force =     0.00000000    0.00000000    0.00000000
     atom   28 type  2   force =     0.00000000    0.00000000    0.00000000
     atom   29 type  2   force =     0.00000000    0.00000000    0.00000000
     atom   30 type  1   force =     0.00000000    0.00000000    0.00000000
     atom   31 type  2   force =     0.00000000    0.00000000    0.00000000
     atom   32 type  2   force =     0.00000000    0.00000000    0.00000000
     atom   33 type  1   force =     0.00000000    0.00000000    0.00000000
     atom   34 type  2   force =     0.00000000    0.00000000    0.00000000
     atom   35 type  2   force =     0.00000000    0.00000000    0.00000000
     atom   36 type  3   force =     0.00000000    0.00000000    0.00000000
     The SCF correction term to forces
     atom    1 type  1   force =     0.00000588    0.00012075    0.00015227
     atom    2 type  2   force =     0.00003023    0.00003874    0.00004674
     atom    3 type  2   force =    -0.00004286    0.00009348    0.00026703
     atom    4 type  1   force =     0.00026628   -0.00001934    0.00033583
     atom    5 type  2   force =     0.00021671    0.00000000   -0.00004786
     atom    6 type  2   force =     0.00005140   -0.00004280    0.00031847
     atom    7 type  1   force =     0.00019591    0.00011559    0.00053890
     atom    8 type  2   force =     0.00004164    0.00000410    0.00000129
     atom    9 type  2   force =     0.00002980   -0.00003804    0.00032435
     atom   10 type  1   force =    -0.00010392   -0.00007631    0.00063097
     atom   11 type  2   force =     0.00000309   -0.00006192    0.00000663
     atom   12 type  2   force =    -0.00002537   -0.00006211    0.00030466
     atom   13 type  1   force =    -0.00002532    0.00007067    0.00036278
     atom   14 type  2   force =    -0.00001812   -0.00004984    0.00001001
     atom   15 type  2   force =     0.00002207    0.00005645    0.00031038
     atom   16 type  1   force =    -0.00001326   -0.00018410    0.00027060
     atom   17 type  2   force =    -0.00020027    0.00001978    0.00003552
     atom   18 type  2   force =    -0.00003353   -0.00002115    0.00030906
     atom   19 type  1   force =    -0.00018127   -0.00006175    0.00056706
     atom   20 type  2   force =     0.00001890    0.00003211    0.00025697
     atom   21 type  1   force =     0.00007669    0.00000663    0.00052938
     atom   22 type  2   force =     0.00003436   -0.00005178    0.00003620
     atom   23 type  2   force =     0.00002661   -0.00003992    0.00027144
     atom   24 type  1   force =     0.00001581    0.00027383    0.00060391
     atom   25 type  2   force =    -0.00002226    0.00007025   -0.00000355
     atom   26 type  2   force =     0.00003090    0.00007143    0.00031679
     atom   27 type  1   force =    -0.00020273    0.00006850    0.00059145
     atom   28 type  2   force =     0.00003157    0.00003555    0.00000147
     atom   29 type  2   force =    -0.00002566    0.00007531    0.00036189
     atom   30 type  1   force =    -0.00000053   -0.00037285    0.00053914
     atom   31 type  2   force =    -0.00002924   -0.00007858   -0.00000745
     atom   32 type  2   force =    -0.00004293   -0.00004263    0.00036263
     atom   33 type  1   force =     0.00003162    0.00006109    0.00056902
     atom   34 type  2   force =    -0.00003381   -0.00003105    0.00000879
     atom   35 type  2   force =    -0.00000366   -0.00007254    0.00025957
     atom   36 type  3   force =    -0.00011495    0.00000203    0.00014310

     Total force =     0.196363     Total SCF correction =     0.002192
     Energy error            =      6.3E-02 Ry
     Gradient error          =      1.1E-01 Ry/Bohr

     number of scf cycles    =   2
     number of bfgs steps    =   1

     energy             old  =   -2246.1785618217 Ry
     energy             new  =   -2246.2419452574 Ry

     CASE: energy            _new < energy            _old

     new trust radius        =       0.1884370307 bohr
     new conv_thr            =       0.0000001096 Ry


ATOMIC_POSITIONS (angstrom)
Mo            6.5867829502        1.7513203436        2.8173417470
S             8.1630357516        0.8258485238        4.4349614384
S             8.1857288683        0.8203102043        1.2680427833
Mo            8.1073491584        4.5370032278        2.7151782754
S             6.5390132914        3.6349410509        4.2780975529
S             6.5580849312        3.5244304060        1.1171979171
Mo            6.4872525998        7.2039535003        2.6644432974
S             8.0877605518        6.3470190708        4.2637736211
S             8.1007318751        6.3080558714        1.0883710001
Mo            8.1520487828        9.9131816755        2.8180517902
S             6.4997553089        8.9381142563        4.3741554145
S             6.6167852225        9.0502771159        1.1463924725
Mo            3.4306780818        1.7521227016        2.7709056069
S             4.9821334503        0.8172237417        4.3626995847
S             5.0440068712        0.8505631090        1.2142839577
Mo            4.9696378363        4.5405771304        2.5785903763
S             3.3735811329        3.6683100733        4.2310252169
S             3.4320357980        3.5430309460        1.0709821596
Mo            3.4666261557        7.2122862806        2.6311995945
S             4.9836065040        6.3233591223        1.0350926086
Mo            5.0077785317        9.9064646569        2.7450527914
S             3.4687419682        8.9413172478        4.3229207829
S             3.4079309861        9.0666828743        1.1060009991
Mo            0.2842595024        1.7424658469        2.8301044965
S             1.8678250399        0.8135761212        4.4046311918
S             1.8457318030        0.8522943478        1.2023332242
Mo            1.8413027538        4.4965968833        2.6508681698
S             0.2826792115        3.6501346626        4.3303507904
S             0.2313179846        3.5272384392        1.1654276943
Mo            0.2678337872        7.2296668323        2.7005775074
S             1.9019594223        6.3119990173        4.2411085860
S             1.8503882132        6.3170139320        1.0481198918
Mo            1.8561930737        9.9349693656        2.7667949436
S             0.2980409089        9.0423510011        4.3995146464
S             0.2671137313        9.0526970061        1.1658671297
O             5.2803705274        3.6765164912        5.3302883161



     Writing config-only to output data dir ./MoS2-V-O.save/
     NEW-OLD atomic charge density approx. for the potential

     negative rho (up, down):  1.513E-04 0.000E+00

     total cpu time spent up to now is      249.6 secs

     Self-consistent Calculation

     iteration #  1     ecut=    80.00 Ry     beta= 0.70
     Davidson diagonalization with overlap
     ethr =  1.00E-06,  avg # of iterations = 20.0

     negative rho (up, down):  3.350E-04 0.000E+00

     total cpu time spent up to now is      264.7 secs

     total energy              =   -2246.27596810 Ry
     estimated scf accuracy    <       0.01551297 Ry

     iteration #  2     ecut=    80.00 Ry     beta= 0.70
     Davidson diagonalization with overlap
     ethr =  4.97E-06,  avg # of iterations =  6.0

     negative rho (up, down):  5.260E-04 0.000E+00

     total cpu time spent up to now is      278.1 secs

     total energy              =   -2246.27941005 Ry
     estimated scf accuracy    <       0.01082276 Ry

     iteration #  3     ecut=    80.00 Ry     beta= 0.70
     Davidson diagonalization with overlap
     ethr =  3.47E-06,  avg # of iterations =  4.0

     negative rho (up, down):  9.266E-04 0.000E+00

     total cpu time spent up to now is      291.8 secs

     total energy              =   -2246.28000132 Ry
     estimated scf accuracy    <       0.00074602 Ry

     iteration #  4     ecut=    80.00 Ry     beta= 0.70
     Davidson diagonalization with overlap
     ethr =  2.39E-07,  avg # of iterations =  6.0

     negative rho (up, down):  9.782E-04 0.000E+00

     total cpu time spent up to now is      306.5 secs

     total energy              =   -2246.28015819 Ry
     estimated scf accuracy    <       0.00024981 Ry

     iteration #  5     ecut=    80.00 Ry     beta= 0.70
     Davidson diagonalization with overlap
     ethr =  8.01E-08,  avg # of iterations =  2.0

     negative rho (up, down):  9.968E-04 0.000E+00

     total cpu time spent up to now is      318.5 secs

     total energy              =   -2246.28014776 Ry
     estimated scf accuracy    <       0.00009394 Ry

     iteration #  6     ecut=    80.00 Ry     beta= 0.70
     Davidson diagonalization with overlap
     ethr =  3.01E-08,  avg # of iterations =  5.0

     negative rho (up, down):  9.181E-04 0.000E+00

     total cpu time spent up to now is      332.0 secs

     total energy              =   -2246.28016023 Ry
     estimated scf accuracy    <       0.00000683 Ry

     iteration #  7     ecut=    80.00 Ry     beta= 0.70
     Davidson diagonalization with overlap
     ethr =  2.19E-09,  avg # of iterations =  6.0

     negative rho (up, down):  7.706E-04 0.000E+00

     total cpu time spent up to now is      344.7 secs

     total energy              =   -2246.28016110 Ry
     estimated scf accuracy    <       0.00000257 Ry

     iteration #  8     ecut=    80.00 Ry     beta= 0.70
     Davidson diagonalization with overlap
     ethr =  8.24E-10,  avg # of iterations =  3.0

     negative rho (up, down):  5.913E-04 0.000E+00

     total cpu time spent up to now is      355.8 secs

     total energy              =   -2246.28016083 Ry
     estimated scf accuracy    <       0.00000081 Ry

     iteration #  9     ecut=    80.00 Ry     beta= 0.70
     Davidson diagonalization with overlap
     ethr =  2.60E-10,  avg # of iterations =  2.0

     negative rho (up, down):  4.185E-04 0.000E+00

     total cpu time spent up to now is      366.3 secs

     total energy              =   -2246.28016054 Ry
     estimated scf accuracy    <       0.00000036 Ry

     iteration # 10     ecut=    80.00 Ry     beta= 0.70
     Davidson diagonalization with overlap
     ethr =  1.16E-10,  avg # of iterations =  2.0

     negative rho (up, down):  1.995E-04 0.000E+00

     total cpu time spent up to now is      370.8 secs

     End of self-consistent calculation

          k = 0.0000 0.0000 0.0000 (105382 PWs)   bands (ev):

   -63.0868 -62.9794 -62.9617 -62.9269 -62.9184 -62.9152 -62.8974 -62.8921
   -62.8800 -62.8758 -62.8536 -62.8468 -37.3746 -37.3313 -37.2680 -37.2584
   -37.2410 -37.2248 -37.2147 -37.1870 -37.1723 -37.1623 -37.1578 -37.1479
   -37.1363 -37.1219 -37.1135 -37.1069 -37.1018 -37.0962 -37.0843 -37.0824
   -37.0728 -37.0469 -37.0388 -37.0284 -37.0192 -37.0121 -37.0073 -37.0001
   -36.9929 -36.9818 -36.9686 -36.9487 -36.9347 -36.9125 -36.8309 -36.8060
   -21.2738 -16.0413 -15.2499 -15.2261 -15.1580 -14.9971 -14.8469 -14.7361
   -14.5456 -14.5374 -14.5176 -14.4612 -14.4513 -14.4051 -14.3483 -14.2820
   -14.2252 -14.2050 -14.1392 -13.9728 -13.9649 -13.9445 -13.9252 -13.8652
    -8.1414  -7.8238  -7.6453  -7.5521  -7.4428  -7.3979  -7.3304  -7.2991
    -7.2622  -7.0449  -6.9878  -6.8947  -6.8659  -6.7714  -6.7291  -6.6297
    -6.5658  -6.5355  -6.4672  -6.3324  -6.1765  -6.1177  -6.0458  -6.0167
    -5.8846  -5.8718  -5.8442  -5.8075  -5.7853  -5.7473  -5.6960  -5.6601
    -5.6094  -5.5145  -5.5001  -5.3074  -5.2774  -5.2431  -5.1572  -5.1212
    -5.1175  -5.0637  -4.9584  -4.8217  -4.7278  -4.6756  -4.4429  -4.3911
    -4.3106  -4.2805  -4.2117  -4.1370  -4.0799  -4.0015  -3.9823  -3.8920
    -3.8447  -3.7664  -3.7551  -3.6732  -3.6366  -3.6126  -3.5763  -3.5621
    -3.5321  -3.4811  -3.3585  -3.3022  -3.1112  -3.0664  -2.9698  -2.9153
    -2.8317  -2.8073  -2.7890  -2.7787  -2.7601  -2.7266  -2.7080  -2.3312
    -2.2448  -2.1082  -2.0138  -1.6963  -1.0012  -0.8279  -0.7741  -0.2934
    -0.2634  -0.1456  -0.0828  -0.0136   0.0579   0.0677   0.1653   0.2070
     0.2207   0.2493   0.3382   0.3861   0.4434   0.4976   0.5037   0.5362
     0.5884   0.6427   0.6757   0.6994   0.7360   0.7494   0.8365   0.9066
     0.9761   1.0047   1.1169

     the Fermi energy is    -1.3487 ev

!    total energy              =   -2246.28016043 Ry
     estimated scf accuracy    <       0.00000010 Ry
     smearing contrib. (-TS)   =      -0.00001655 Ry
     internal energy E=F+TS    =   -2246.28014389 Ry

     The total energy is F=E-TS. E is the sum of the following terms:
     one-electron contribution =  -18464.50757963 Ry
     hartree contribution      =    9220.07665287 Ry
     xc contribution           =    -392.09676765 Ry
     ewald contribution        =    7400.11440007 Ry
     one-center paw contrib.   =      -9.86684955 Ry

     convergence has been achieved in  10 iterations

     negative rho (up, down):  1.995E-04 0.000E+00

     Forces acting on atoms (cartesian axes, Ry/au):

     atom    1 type  1   force =    -0.00796158   -0.01717854   -0.01056937
     atom    2 type  2   force =    -0.00258744    0.00232564   -0.00262536
     atom    3 type  2   force =    -0.00355126    0.00301227   -0.01606326
     atom    4 type  1   force =     0.00336669    0.00160704    0.01054599
     atom    5 type  2   force =    -0.09826992   -0.02504309    0.03378585
     atom    6 type  2   force =     0.00664946    0.00605579   -0.00286048
     atom    7 type  1   force =     0.00532830   -0.00504552    0.00044695
     atom    8 type  2   force =    -0.00001955    0.00302337    0.01233301
     atom    9 type  2   force =     0.00935200    0.00903939   -0.00235118
     atom   10 type  1   force =     0.00119533    0.00543189    0.00165645
     atom   11 type  2   force =     0.00219682   -0.00258384   -0.00889437
     atom   12 type  2   force =    -0.00412640   -0.00047396   -0.00033553
     atom   13 type  1   force =     0.00008811   -0.00115759   -0.00750562
     atom   14 type  2   force =     0.00316265    0.00033380    0.00431864
     atom   15 type  2   force =    -0.00679644   -0.00066415   -0.00915474
     atom   16 type  1   force =    -0.00391534   -0.01033928    0.00964169
     atom   17 type  2   force =     0.00652230    0.00565009   -0.01314352
     atom   18 type  2   force =    -0.00716896   -0.00321422   -0.00372408
     atom   19 type  1   force =     0.00165355   -0.00521538    0.00070563
     atom   20 type  2   force =    -0.00042672    0.00793785   -0.01530997
     atom   21 type  1   force =    -0.00235159    0.00313319    0.00231174
     atom   22 type  2   force =     0.00025023   -0.00155221   -0.00083063
     atom   23 type  2   force =     0.00087681   -0.00076904    0.00350674
     atom   24 type  1   force =    -0.00372226    0.00062274   -0.00191863
     atom   25 type  2   force =     0.00661957    0.00907500   -0.00355311
     atom   26 type  2   force =    -0.00387412   -0.00177414   -0.00344675
     atom   27 type  1   force =    -0.00865985    0.00582349   -0.00587611
     atom   28 type  2   force =     0.00113640   -0.00132568   -0.00691030
     atom   29 type  2   force =    -0.00420428   -0.00028893   -0.00777407
     atom   30 type  1   force =    -0.00089927   -0.00053725    0.00494819
     atom   31 type  2   force =     0.00050867   -0.00109739    0.00480718
     atom   32 type  2   force =    -0.00575761    0.00732752    0.00221195
     atom   33 type  1   force =    -0.00015295    0.00063321    0.00421014
     atom   34 type  2   force =    -0.00139459   -0.01839463   -0.01306834
     atom   35 type  2   force =    -0.00323947    0.00718577    0.00291013
     atom   36 type  3   force =     0.12017272    0.01843678    0.03757512
     The non-local contrib.  to forces
     atom    1 type  1   force =     0.01367335    0.03568175   -0.00978589
     atom    2 type  2   force =    -0.00262922   -0.00374167   -0.27235405
     atom    3 type  2   force =    -0.00808275   -0.00885030    0.25998767
     atom    4 type  1   force =     0.01126812    0.00241691    0.01019979
     atom    5 type  2   force =    -0.37309242    0.07103983    0.18458709
     atom    6 type  2   force =    -0.00022854    0.00469002    0.26599545
     atom    7 type  1   force =    -0.02468351   -0.00373413   -0.01986587
     atom    8 type  2   force =     0.00070141   -0.00321868   -0.25665232
     atom    9 type  2   force =     0.00395135   -0.00791565    0.27558468
     atom   10 type  1   force =     0.00273185   -0.00076397   -0.00303595
     atom   11 type  2   force =     0.01078787    0.00242102   -0.26622986
     atom   12 type  2   force =    -0.01402351   -0.02016707    0.26237964
     atom   13 type  1   force =    -0.00492164    0.02295107   -0.00924828
     atom   14 type  2   force =     0.00657557   -0.02147920   -0.26805901
     atom   15 type  2   force =    -0.00533016   -0.00847803    0.25564853
     atom   16 type  1   force =     0.00243763    0.03570359   -0.01016820
     atom   17 type  2   force =     0.04564662   -0.02355310   -0.20539043
     atom   18 type  2   force =    -0.00139623   -0.00022866    0.26576818
[...]
     atom   28 type  2   force =     0.00167592   -0.00670975   -0.27902840
     atom   29 type  2   force =     0.00097448   -0.00790219    0.26474402
     atom   30 type  1   force =     0.00066441    0.01999800    0.00689772
     atom   31 type  2   force =    -0.00929557    0.00016942   -0.27035627
     atom   32 type  2   force =     0.00918647   -0.01697121    0.26997976
     atom   33 type  1   force =    -0.00171677    0.00600793    0.00219623
     atom   34 type  2   force =    -0.00293089   -0.00907747   -0.27583359
     atom   35 type  2   force =     0.00067432   -0.01468167    0.26644394
     atom   36 type  3   force =     0.02053302   -0.06516258   -2.31600183
     The ionic contribution  to forces
     atom    1 type  1   force =    -0.14606942   -0.46650402   -1.57951817
     atom    2 type  2   force =     0.38736381   -0.83427162   38.39255249
     atom    3 type  2   force =     0.16480643   -0.17199291  -38.25790698
     atom    4 type  1   force =     0.83369987    0.84775575   -3.77360376
     atom    5 type  2   force =    -0.81469655    0.86977211   28.05681708
     atom    6 type  2   force =     0.17550157   -0.38290842  -38.61665997
     atom    7 type  1   force =    -2.74206144   -0.98955970    1.45373142
     atom    8 type  2   force =    -0.60405474    1.22366973   37.61317819
     atom    9 type  2   force =     0.33220230    0.19375272  -38.66274793
     atom   10 type  1   force =    -0.29030053   -0.93079398    2.62442892
     atom   11 type  2   force =    -0.50465413   -1.34230460   38.31787936
     atom   12 type  2   force =     0.21595822    0.32118092  -38.20072732
     atom   13 type  1   force =    -0.49929910    0.02745368    1.17423595
     atom   14 type  2   force =    -0.57535321   -0.99892194   38.00100372
     atom   15 type  2   force =    -0.12480259   -0.21826881  -38.31080245
     atom   16 type  1   force =    -0.57463636    3.82044283   -2.34746683
     atom   17 type  2   force =    -0.26245499    1.08020444   37.66722379
     atom   18 type  2   force =    -0.27981988   -0.45112610  -38.87636387
     atom   19 type  1   force =     2.35719820   -1.13399625    0.67970883
     atom   20 type  2   force =     0.05397544    0.19520365  -39.51333502
     atom   21 type  1   force =    -0.25090035   -0.78107438    0.20355563
     atom   22 type  2   force =     0.38253293   -1.43101821   38.27504948
     atom   23 type  2   force =    -0.21633894    0.35953002  -38.37270674
     atom   24 type  1   force =     0.63221085   -0.07803808    1.07598894
     atom   25 type  2   force =     0.21124831   -0.21430688   38.58711762
     atom   26 type  2   force =    -0.03516905   -0.17509122  -37.87386086
     atom   27 type  1   force =    -0.04467972    0.53703563   -0.89015768
     atom   28 type  2   force =     0.97517138    0.42271642   37.41319737
     atom   29 type  2   force =     0.05890649   -0.18267373  -38.40306163
     atom   30 type  1   force =     0.33835068   -0.12297788    1.35907998
     atom   31 type  2   force =     1.15760311    0.47042705   37.93580067
     atom   32 type  2   force =    -0.40219227    0.09438472  -38.48572245
     atom   33 type  1   force =     0.48299742   -0.47902306    2.36674771
     atom   34 type  2   force =     0.16909121   -0.45351825   38.85725924
     atom   35 type  2   force =     0.04132762    0.17251806  -37.83493939
     atom   36 type  3   force =    -0.60266256    1.20232230   49.94502466
     The local contribution  to forces
     atom    1 type  1   force =     0.14435971    0.43745061    1.57289191
     atom    2 type  2   force =    -0.38621696    0.84359314  -38.14264430
     atom    3 type  2   force =    -0.16106988    0.18095676   38.01209183
     atom    4 type  1   force =    -0.82629037   -0.84630266    3.75039749
     atom    5 type  2   force =     0.80238753   -0.87447705  -28.34519518
     atom    6 type  2   force =    -0.17523628    0.38648344   38.36050061
     atom    7 type  1   force =     2.75313312    0.98878044   -1.42999918
     atom    8 type  2   force =     0.59746432   -1.22487818  -37.36451860
     atom    9 type  2   force =    -0.32634659   -0.17965300   38.41331388
     atom   10 type  1   force =     0.28223760    0.92666988   -2.62386788
     atom   11 type  2   force =     0.49870848    1.34227933  -38.07780330
     atom   12 type  2   force =    -0.20618141   -0.30780485   37.95531537
     atom   13 type  1   force =     0.49775088   -0.05236209   -1.16764732
     atom   14 type  2   force =     0.57446758    1.00797094  -37.74882493
     atom   15 type  2   force =     0.12377462    0.22769174   38.07017722
     atom   16 type  1   force =     0.56585907   -3.84178981    2.36715019
     atom   17 type  2   force =     0.26249643   -1.06490888  -37.42798152
     atom   18 type  2   force =     0.28048714    0.45296797   38.63499733
     atom   19 type  1   force =    -2.37517923    1.12199260   -0.66061290
     atom   20 type  2   force =    -0.05298413   -0.18255203   39.27185227
     atom   21 type  1   force =     0.25213473    0.75600867   -0.20691840
     atom   22 type  2   force =    -0.37754601    1.43146870  -38.03456516
     atom   23 type  2   force =     0.20873098   -0.34485811   38.13080807
     atom   24 type  1   force =    -0.62900055    0.06331535   -1.07433902
     atom   25 type  2   force =    -0.21038430    0.22365133  -38.33865162
     atom   26 type  2   force =     0.03187632    0.18359789   37.62625251
     atom   27 type  1   force =     0.04701916   -0.54608507    0.87726072
     atom   28 type  2   force =    -0.97597201   -0.41634735  -37.15538905
     atom   29 type  2   force =    -0.05962432    0.19056315   38.15812175
     atom   30 type  1   force =    -0.33883952    0.10231042   -1.36635924
     atom   31 type  2   force =    -1.14878597   -0.47065894  -37.68639453
     atom   32 type  2   force =     0.39438532   -0.07841118   38.23706981
     atom   33 type  1   force =    -0.48150443    0.47343232   -2.36845297
     atom   34 type  2   force =    -0.16711240    0.46209962  -38.60344517
     atom   35 type  2   force =    -0.04192399   -0.15871178   37.58930109
     atom   36 type  3   force =     0.58347155   -1.13926914  -47.65580452
     The core correction contribution to forces
     atom    1 type  1   force =     0.00000000    0.00000000    0.00000000
     atom    2 type  2   force =     0.00000969    0.00051424    0.02123246
     atom    3 type  2   force =     0.00028322    0.00032580   -0.02089097
     atom    4 type  1   force =     0.00000000    0.00000000    0.00000000
     atom    5 type  2   force =    -0.00074134   -0.00038692   -0.01003206
     atom    6 type  2   force =     0.00011305   -0.00031066   -0.02127589
     atom    7 type  1   force =     0.00000000    0.00000000    0.00000000
     atom    8 type  2   force =    -0.00040781    0.00015478    0.02123141
     atom    9 type  2   force =     0.00054344    0.00088237   -0.02103167
     atom   10 type  1   force =     0.00000000    0.00000000    0.00000000
     atom   11 type  2   force =    -0.00013702   -0.00020683    0.02072173
     atom   12 type  2   force =     0.00083679    0.00101802   -0.02088135
     atom   13 type  1   force =     0.00000000    0.00000000    0.00000000
     atom   14 type  2   force =    -0.00005995    0.00019758    0.02130262
     atom   15 type  2   force =    -0.00013486    0.00047798   -0.02069071
     atom   16 type  1   force =     0.00000000    0.00000000    0.00000000
     atom   17 type  2   force =     0.00017122    0.00064630    0.02086553
     atom   18 type  2   force =    -0.00010301   -0.00045932   -0.02074811
     atom   19 type  1   force =     0.00000000    0.00000000    0.00000000
     atom   20 type  2   force =     0.00020774    0.00071637   -0.02116808
     atom   21 type  1   force =     0.00000000    0.00000000    0.00000000
     atom   22 type  2   force =     0.00012169   -0.00032131    0.02074207
     atom   23 type  2   force =    -0.00062112    0.00108033   -0.02081442
     atom   24 type  1   force =     0.00000000    0.00000000    0.00000000
     atom   25 type  2   force =     0.00007489    0.00037899    0.02094988
     atom   26 type  2   force =    -0.00019822    0.00034948   -0.02093576
     atom   27 type  1   force =     0.00000000    0.00000000    0.00000000
     atom   28 type  2   force =    -0.00011303    0.00054233    0.02152972
     atom   29 type  2   force =    -0.00004578    0.00012090   -0.02067232
     atom   30 type  1   force =     0.00000000    0.00000000    0.00000000
     atom   31 type  2   force =     0.00050148    0.00024991    0.02111066
     atom   32 type  2   force =    -0.00087698    0.00083714   -0.02099961
     atom   33 type  1   force =     0.00000000    0.00000000    0.00000000
     atom   34 type  2   force =     0.00019812    0.00033647    0.02134731
     atom   35 type  2   force =    -0.00003535    0.00085162   -0.02095720
     atom   36 type  3   force =    -0.00023489    0.00067599    0.02458700
     The Hubbard contrib.    to forces
     atom    1 type  1   force =     0.00000000    0.00000000    0.00000000
     atom    2 type  2   force =     0.00000000    0.00000000    0.00000000
     atom    3 type  2   force =     0.00000000    0.00000000    0.00000000
     atom    4 type  1   force =     0.00000000    0.00000000    0.00000000
     atom    5 type  2   force =     0.00000000    0.00000000    0.00000000
     atom    6 type  2   force =     0.00000000    0.00000000    0.00000000
     atom    7 type  1   force =     0.00000000    0.00000000    0.00000000
     atom    8 type  2   force =     0.00000000    0.00000000    0.00000000
     atom    9 type  2   force =     0.00000000    0.00000000    0.00000000
     atom   10 type  1   force =     0.00000000    0.00000000    0.00000000
     atom   11 type  2   force =     0.00000000    0.00000000    0.00000000
     atom   12 type  2   force =     0.00000000    0.00000000    0.00000000
     atom   13 type  1   force =     0.00000000    0.00000000    0.00000000
     atom   14 type  2   force =     0.00000000    0.00000000    0.00000000
     atom   15 type  2   force =     0.00000000    0.00000000    0.00000000
     atom   16 type  1   force =     0.00000000    0.00000000    0.00000000
     atom   17 type  2   force =     0.00000000    0.00000000    0.00000000
     atom   18 type  2   force =     0.00000000    0.00000000    0.00000000
     atom   19 type  1   force =     0.00000000    0.00000000    0.00000000
     atom   20 type  2   force =     0.00000000    0.00000000    0.00000000
     atom   21 type  1   force =     0.00000000    0.00000000    0.00000000
     atom   22 type  2   force =     0.00000000    0.00000000    0.00000000
     atom   23 type  2   force =     0.00000000    0.00000000    0.00000000
     atom   24 type  1   force =     0.00000000    0.00000000    0.00000000
     atom   25 type  2   force =     0.00000000    0.00000000    0.00000000
     atom   26 type  2   force =     0.00000000    0.00000000    0.00000000
     atom   27 type  1   force =     0.00000000    0.00000000    0.00000000
     atom   28 type  2   force =     0.00000000    0.00000000    0.00000000
     atom   29 type  2   force =     0.00000000    0.00000000    0.00000000
     atom   30 type  1   force =     0.00000000    0.00000000    0.00000000
     atom   31 type  2   force =     0.00000000    0.00000000    0.00000000
     atom   32 type  2   force =     0.00000000    0.00000000    0.00000000
     atom   33 type  1   force =     0.00000000    0.00000000    0.00000000
     atom   34 type  2   force =     0.00000000    0.00000000    0.00000000
     atom   35 type  2   force =     0.00000000    0.00000000    0.00000000
     atom   36 type  3   force =     0.00000000    0.00000000    0.00000000
     The SCF correction term to forces
     atom    1 type  1   force =     0.00000732    0.00000570    0.00003901
     atom    2 type  2   force =     0.00000633   -0.00000882    0.00001819
     atom    3 type  2   force =     0.00000465   -0.00000540    0.00001026
     atom    4 type  1   force =    -0.00000616    0.00000667    0.00006019
     atom    5 type  2   force =     0.00000362    0.00001950    0.00001404
     atom    6 type  2   force =    -0.00000199    0.00001432    0.00001479
     atom    7 type  1   force =    -0.00000408   -0.00002663    0.00004484
     atom    8 type  2   force =    -0.00001017   -0.00001594    0.00001872
     atom    9 type  2   force =    -0.00000448   -0.00000770    0.00001773
     atom   10 type  1   force =    -0.00001561   -0.00000718    0.00004978
     atom   11 type  2   force =     0.00001020    0.00000045    0.00001528
     atom   12 type  2   force =    -0.00000477    0.00000850    0.00001605
     atom   13 type  1   force =     0.00000222    0.00000135    0.00002329
     atom   14 type  2   force =    -0.00000006   -0.00000458    0.00001520
     atom   15 type  2   force =    -0.00001190   -0.00000679    0.00000063
     atom   16 type  1   force =     0.00001781    0.00000696    0.00003479
     atom   17 type  2   force =     0.00000418    0.00000569    0.00001568
     atom   18 type  2   force =     0.00000216    0.00000517    0.00000263
     atom   19 type  1   force =     0.00000624   -0.00000080    0.00002137
     atom   20 type  2   force =    -0.00000494   -0.00001297    0.00000552
     atom   21 type  1   force =    -0.00001670   -0.00000273    0.00002079
     atom   22 type  2   force =     0.00000631    0.00000601    0.00000795
     atom   23 type  2   force =     0.00000346    0.00000801   -0.00000175
     atom   24 type  1   force =     0.00000237    0.00000087    0.00003582
     atom   25 type  2   force =    -0.00000302   -0.00000755    0.00001237
     atom   26 type  2   force =     0.00000863   -0.00000828    0.00000215
     atom   27 type  1   force =     0.00002212    0.00000307    0.00003617
     atom   28 type  2   force =    -0.00001652    0.00000756    0.00001302
     atom   29 type  2   force =    -0.00000533    0.00000260    0.00001280
     atom   30 type  1   force =    -0.00000826   -0.00000038    0.00003636
     atom   31 type  2   force =    -0.00000644   -0.00000594    0.00001971
     atom   32 type  2   force =     0.00000390   -0.00000344   -0.00000152
     atom   33 type  1   force =    -0.00001983    0.00000981    0.00002270
     atom   34 type  2   force =    -0.00000166    0.00000417    0.00001665
     atom   35 type  2   force =     0.00001032    0.00000737    0.00001148
     atom   36 type  3   force =    -0.00001924    0.00002160    0.00000453

     Total force =     0.006453     Total SCF correction =     0.000165
     Energy error            =      8.2E-05 Ry
     Gradient error          =      2.4E-03 Ry/Bohr

     bfgs converged in  23 scf cycles and  22 bfgs steps
     (criteria: energy <  1.0E-04 Ry, force <  1.0E-02 Ry/Bohr)

     End of BFGS Geometry Optimization

     Final energy             =   -2246.4442653826 Ry

     File ./MoS2-V-O.bfgs deleted, as requested
Begin final coordinates

ATOMIC_POSITIONS (angstrom)
Mo            6.5352877197        1.7167957965        2.7373531700
S             8.1001094250        0.8475999519        4.3704624030
S             8.1281312511        0.8206318786        1.1644876627
Mo            8.1123507867        4.5144607431        2.6889863107
S             6.4937619901        3.6476675318        4.2029377403
S             6.5250231229        3.5587647483        1.1162591715
Mo            6.4744188132        7.1856884977        2.6690493985
S             8.0393128859        6.3007251282        4.3072535030
S             8.0985261872        6.3499776801        1.1004127423
Mo            8.1118650580        9.9347170420        2.7761935574
S             6.4819659659        8.9488643401        4.3261923571
S             6.5598540705        9.0377216973        1.1332070216
Mo            3.3986457032        1.7646883634        2.7539654479
S             4.9617667308        0.8170893396        4.3393608124
S             4.9506660840        0.8331273094        1.1505290023
Mo            4.9332739277        4.5621256749        2.6320261689
S             3.4439119579        3.6830048643        4.3070748079
S             3.3968379690        3.5571628468        1.0957772752
Mo            3.4226327210        7.1807225503        2.6466964692
S             4.9577541451        6.3361355934        1.0213156415
Mo            4.9549473538        9.9106822006        2.7261696536
S             3.4326546747        8.9371551876        4.3127997183
S             3.3617854938        9.0372868657        1.1188042496
Mo            0.2316708689        1.7420436129        2.7637957306
S             1.8267769487        0.8529137583        4.3637817913
S             1.8153836952        0.8415759680        1.1743708710
Mo            1.8377105299        4.4892004172        2.7037447421
S             0.2288879902        3.6141546287        4.3049946503
S             0.2428249383        3.5494315789        1.1320771752
Mo            0.2227423243        7.2186170911        2.7384758982
S             1.8691704651        6.3009619691        4.2945838765
S             1.7936786785        6.3274861893        1.1023790833
Mo            1.8200907325        9.9354908552        2.7673482170
S             0.2410736956        9.0237628484        4.3687449600
S             0.2343095016        9.0518641841        1.1764900981
O             6.4862981617        3.6936141446        5.7026461982
End final coordinates



     Writing all to output data dir ./MoS2-V-O.save/
 
     init_run     :      4.64s CPU      5.10s WALL (       1 calls)
     electrons    :   2268.04s CPU   2587.21s WALL (      23 calls)
     update_pot   :     71.32s CPU     76.60s WALL (      22 calls)
     forces       :     70.04s CPU     81.34s WALL (      23 calls)

     Called by init_run:
     wfcinit      :      0.51s CPU      0.56s WALL (       1 calls)
     potinit      :      2.37s CPU      2.59s WALL (       1 calls)
     hinit0       :      0.45s CPU      0.47s WALL (       1 calls)

     Called by electrons:
     c_bands      :    318.36s CPU    325.63s WALL (     216 calls)
     sum_band     :    131.82s CPU    189.23s WALL (     216 calls)
     v_of_rho     :    277.19s CPU    334.72s WALL (     232 calls)
     newd         :     86.13s CPU    132.17s WALL (     232 calls)
     PAW_pot      :      9.15s CPU      9.18s WALL (     254 calls)
     mix_rho      :   1473.87s CPU   1628.86s WALL (     216 calls)

     Called by c_bands:
     init_us_2    :      4.92s CPU      5.29s WALL (     455 calls)
     init_us_2:cp :      4.92s CPU      5.29s WALL (     455 calls)
     regterg      :    302.25s CPU    309.13s WALL (     216 calls)

     Called by *egterg:
     rdiaghg      :     20.31s CPU     20.54s WALL (    1148 calls)
     h_psi        :    197.76s CPU    199.51s WALL (    1178 calls)
     s_psi        :     18.03s CPU     18.11s WALL (    1178 calls)
     g_psi        :      0.99s CPU      1.00s WALL (     961 calls)

     Called by h_psi:
     h_psi:calbec :     20.45s CPU     20.57s WALL (    1178 calls)
     vloc_psi     :    157.03s CPU    158.54s WALL (    1178 calls)
     add_vuspsi   :     17.87s CPU     17.98s WALL (    1178 calls)

     General routines
     calbec       :     29.66s CPU     29.83s WALL (    1508 calls)
     fft          :    184.60s CPU    206.30s WALL (   15492 calls)
     ffts         :    656.18s CPU    805.52s WALL (  356038 calls)
     fftw         :    104.28s CPU    105.21s WALL (  132560 calls)
     interpolate  :      2.89s CPU      3.32s WALL (     232 calls)
 
     Parallel routines
 
     PWSCF        :  40m25.45s CPU  46m 7.42s WALL

 
   This run was terminated on:  16:12: 0   1Nov2023            

=------------------------------------------------------------------------------=
   JOB DONE.
=------------------------------------------------------------------------------=
