
     Program PWSCF v.7.2 starts on  1Nov2023 at 16:12: 2 

     This program is part of the open-source Quantum ESPRESSO suite
     for quantum simulation of materials; please cite
         "P. Giannozzi et al., J. Phys.:Condens. Matter 21 395502 (2009);
         "P. Giannozzi et al., J. Phys.:Condens. Matter 29 465901 (2017);
         "P. Giannozzi et al., J. Chem. Phys. 152 154105 (2020);
          URL http://www.quantum-espresso.org", 
     in publications or presentations arising from this work. More details at
     http://www.quantum-espresso.org/quote

     Parallel version (MPI & OpenMP), running on      48 processor cores
     Number of MPI processes:                48
     Threads/MPI process:                     1

     MPI processes distributed on     1 nodes
     77183 MiB available memory on the printing compute node when the environment starts
 
     Waiting for input...
     Reading input from standard input
Warning: card &CELL ignored
Warning: card CELL_DYNAMICS = 'BFGS', ignored
Warning: card CELL_DOFREE = '2DXY' ignored
Warning: card / ignored

     Current dimensions of program PWSCF are:
     Max number of different atomic species (ntypx) = 10
     Max number of k-points (npk) =  40000
     Max angular momentum in pseudopotentials (lmaxx) =  4
     file O.pbe-n-kjpaw_psl.0.1.UPF: wavefunction(s)  2P renormalized

     IMPORTANT: XC functional enforced from input :
     Exchange-correlation= RVV10
                           (   1   4  13   4  26   0   0)
     Any further DFT definition will be discarded
     Please, verify this is what you really want


     gamma-point specific algorithms are used
     signal trapping enabled: kill the code with -SIGUSR1 to stop cleanly the simulation 
 
     R & G space division:  proc/nbgrp/npool/nimage =      48
     Subspace diagonalization in iterative solution of the eigenvalue problem:
     one sub-group per band group will be used
     scalapack distributed-memory algorithm (size of sub-group:  2*  2 procs)

 
     Parallelization info
     --------------------
     sticks:   dense  smooth     PW     G-vecs:    dense   smooth      PW
     Min         396     194     47               101632    35090    4376
     Max         398     196     50               101674    35128    4410
     Sum       19091    9389   2349              4879585  1685513  210763
 
     Using Slab Decomposition
 


     bravais-lattice index     =            0
     lattice parameter (alat)  =      17.8707  a.u.
     unit-cell volume          =   17436.2743 (a.u.)^3
     number of atoms/cell      =           36
     number of atomic types    =            3
     number of electrons       =       312.00
     number of Kohn-Sham states=          187
     kinetic-energy cutoff     =      80.0000  Ry
     charge density cutoff     =     650.0000  Ry
     scf convergence threshold =      1.0E-06
     mixing beta               =       0.7000
     number of iterations used =            8  local-TF  mixing
     energy convergence thresh.=      1.0E-04
     force convergence thresh. =      1.0E-02
     Exchange-correlation= RVV10
                           (   1   4  13   4  26   0   0)
     nstep                     =          200


     celldm(1)=  17.870686  celldm(2)=   0.000000  celldm(3)=   0.000000
     celldm(4)=   0.000000  celldm(5)=   0.000000  celldm(6)=   0.000000

     crystal axes: (cart. coord. in units of alat)
               a(1) = (   1.000000   0.000000   0.000000 )  
               a(2) = (   0.000000   1.155671   0.000000 )  
               a(3) = (   0.000000   0.000000   2.643601 )  

     reciprocal axes: (cart. coord. in units 2 pi/alat)
               b(1) = (  1.000000  0.000000  0.000000 )  
               b(2) = (  0.000000  0.865298  0.000000 )  
               b(3) = (  0.000000  0.000000  0.378272 )  


     PseudoPot. # 1 for Mo read from file:
     ../pseudo/Mo_ONCV_PBE-1.0.oncvpsp.upf
     MD5 check sum: 1b5d28e075c9ccadda658a603575cd1f
     Pseudo is Norm-conserving, Zval = 14.0
     Generated using ONCVPSP code by D. R. Hamann
     Using radial grid of 1526 points,  6 beta functions with: 
                l(1) =   0
                l(2) =   0
                l(3) =   1
                l(4) =   1
                l(5) =   2
                l(6) =   2

     PseudoPot. # 2 for S  read from file:
     ../pseudo/s_pbe_v1.4.uspp.F.UPF
     MD5 check sum: 88d86576ff6df21479756cfb9bdac1df
     Pseudo is Ultrasoft + core correction, Zval =  6.0
     Generated by new atomic code, or converted to UPF format
     Using radial grid of  907 points,  6 beta functions with: 
                l(1) =   0
                l(2) =   0
                l(3) =   1
                l(4) =   1
                l(5) =   2
                l(6) =   2
     Q(r) pseudized with  8 coefficients,  rinner =    1.300   1.300   1.300
                                                       1.300   1.300

     PseudoPot. # 3 for O  read from file:
     ../pseudo/O.pbe-n-kjpaw_psl.0.1.UPF
     MD5 check sum: 0234752ac141de4415c5fc33072bef88
     Pseudo is Projector augmented-wave + core cor, Zval =  6.0
     Generated using "atomic" code by A. Dal Corso  v.5.0.99 svn rev. 10869
     Shape of augmentation charge: BESSEL
     Using radial grid of 1095 points,  4 beta functions with: 
                l(1) =   0
                l(2) =   0
                l(3) =   1
                l(4) =   1
     Q(r) pseudized with 0 coefficients 


     atomic species   valence    mass     pseudopotential
        Mo            14.00    95.94000     Mo( 1.00)
        S              6.00    32.06500     S ( 1.00)
        O              6.00    15.99940     O ( 1.00)

     No symmetry found



   Cartesian axes

     site n.     atom                  positions (alat units)
         1           Mo  tau(   1) = (   0.6952221   0.1890506   0.2985846  )
         2           S   tau(   2) = (   0.8646417   0.0856217   0.4689279  )
         3           S   tau(   3) = (   0.8663890   0.0857843   0.1351291  )
         4           Mo  tau(   4) = (   0.8560186   0.4753274   0.2873942  )
         5           S   tau(   5) = (   0.6873294   0.3936244   0.4596353  )
         6           S   tau(   6) = (   0.6929804   0.3713468   0.1185692  )
         7           Mo  tau(   7) = (   0.6862796   0.7633098   0.2825370  )
         8           S   tau(   8) = (   0.8545980   0.6708292   0.4486168  )
         9           S   tau(   9) = (   0.8545123   0.6666874   0.1146125  )
        10           Mo  tau(  10) = (   0.8629403   1.0471007   0.3006803  )
        11           S   tau(  11) = (   0.6868280   0.9456650   0.4634891  )
        12           S   tau(  12) = (   0.6998113   0.9568511   0.1205389  )
        13           Mo  tau(  13) = (   0.3618216   0.1847309   0.2935964  )
        14           S   tau(  14) = (   0.5260962   0.0863870   0.4600448  )
        15           S   tau(  15) = (   0.5348379   0.0894875   0.1297123  )
        16           Mo  tau(  16) = (   0.5265817   0.4772436   0.2784130  )
        17           S   tau(  17) = (   0.3624753   0.3882513   0.4525556  )
        18           S   tau(  18) = (   0.3635411   0.3752055   0.1119148  )
        19           Mo  tau(  19) = (   0.3652268   0.7630864   0.2781795  )
        20           S   tau(  20) = (   0.5269494   0.6690381   0.1096838  )
        21           Mo  tau(  21) = (   0.5300192   1.0470394   0.2900995  )
        22           S   tau(  22) = (   0.3670346   0.9457522   0.4574073  )
        23           S   tau(  23) = (   0.3604225   0.9585725   0.1159032  )
        24           Mo  tau(  24) = (   0.0313099   0.1847895   0.3013130  )
        25           S   tau(  25) = (   0.1956761   0.0838230   0.4650863  )
        26           S   tau(  26) = (   0.1967693   0.0903508   0.1278874  )
        27           Mo  tau(  27) = (   0.1967578   0.4753919   0.2813011  )
        28           S   tau(  28) = (   0.0287851   0.3864324   0.4586755  )
        29           S   tau(  29) = (   0.0244514   0.3729871   0.1239344  )
        30           Mo  tau(  30) = (   0.0286728   0.7631204   0.2856894  )
        31           S   tau(  31) = (   0.2011512   0.6675435   0.4465001  )
        32           S   tau(  32) = (   0.1969214   0.6672839   0.1104564  )
        33           Mo  tau(  33) = (   0.1950294   1.0511147   0.2932237  )
        34           S   tau(  34) = (   0.0312912   0.9612169   0.4667423  )
        35           S   tau(  35) = (   0.0292670   0.9563028   0.1216485  )
        36           O   tau(  36) = (   0.1111111   0.5136314   0.5650415  )

     number of k points=     1  Gaussian smearing, width (Ry)=  0.0100
                       cart. coord. in units 2pi/alat
        k(    1) = (   0.0000000   0.0000000   0.0000000), wk =   2.0000000

     Dense  grid:  2439793 G-vectors     FFT dimensions: ( 150, 180, 384)

     Smooth grid:   842757 G-vectors     FFT dimensions: ( 108, 120, 270)

     Estimated max dynamical RAM per process >     269.22 MB

     Estimated total dynamical RAM >      12.62 GB

     Initial potential from superposition of free atoms

     starting charge     311.9873, renormalised to     312.0000

     negative rho (up, down):  2.752E-04 0.000E+00


---------------------------------------------------------------------------------
Carrying out rVV10 run using the following parameters:
Nqs =      20    Nr_points =    1024   r_max =   100.000
b_value =  6.30000    beta =  0.00901
     q_mesh =  0.00010000  0.00030000  0.00058939  0.00100810
               0.00161396  0.00249058  0.00375900  0.00559430
               0.00824984  0.01209221  0.01765183  0.02569619
               0.03733578  0.05417739  0.07854596  0.11380545
               0.16482331  0.23864234  0.34545298  0.50000000

Gradients computed in Reciprocal space

---------------------------------------------------------------------------------


     Starting wfcs are  216 randomized atomic wfcs
     Checking if some PAW data can be deallocated... 

     total cpu time spent up to now is        5.2 secs

     Self-consistent Calculation

     iteration #  1     ecut=    80.00 Ry     beta= 0.70
     Davidson diagonalization with overlap
     ethr =  1.00E-02,  avg # of iterations =  2.0

     Threshold (ethr) on eigenvalues was too large:
     Diagonalizing with lowered threshold

     Davidson diagonalization with overlap
     ethr =  4.17E-04,  avg # of iterations =  4.0

     negative rho (up, down):  5.069E-08 0.000E+00

     total cpu time spent up to now is       21.5 secs

     total energy              =   -2246.24390262 Ry
     estimated scf accuracy    <       1.55276087 Ry

     iteration #  2     ecut=    80.00 Ry     beta= 0.70
     Davidson diagonalization with overlap
     ethr =  4.98E-04,  avg # of iterations =  3.0

     total cpu time spent up to now is       26.3 secs

     total energy              =   -2246.22307740 Ry
     estimated scf accuracy    <       0.58927511 Ry

     iteration #  3     ecut=    80.00 Ry     beta= 0.70
     Davidson diagonalization with overlap
     ethr =  1.89E-04,  avg # of iterations =  5.0

     total cpu time spent up to now is       30.7 secs

     total energy              =   -2246.22547352 Ry
     estimated scf accuracy    <       0.14949036 Ry

     iteration #  4     ecut=    80.00 Ry     beta= 0.70
     Davidson diagonalization with overlap
     ethr =  4.79E-05,  avg # of iterations = 17.0

     total cpu time spent up to now is       35.8 secs

     total energy              =   -2246.25349090 Ry
     estimated scf accuracy    <       0.02503927 Ry

     iteration #  5     ecut=    80.00 Ry     beta= 0.70
     Davidson diagonalization with overlap
     ethr =  8.03E-06,  avg # of iterations = 14.0

     total cpu time spent up to now is       40.5 secs

     total energy              =   -2246.25393381 Ry
     estimated scf accuracy    <       0.01472586 Ry

     iteration #  6     ecut=    80.00 Ry     beta= 0.70
     Davidson diagonalization with overlap
     ethr =  4.72E-06,  avg # of iterations =  2.0

     total cpu time spent up to now is       44.5 secs

     total energy              =   -2246.25309202 Ry
     estimated scf accuracy    <       0.00945869 Ry

     iteration #  7     ecut=    80.00 Ry     beta= 0.70
     Davidson diagonalization with overlap
     ethr =  3.03E-06,  avg # of iterations =  2.0

     negative rho (up, down):  7.610E-06 0.000E+00

     total cpu time spent up to now is       50.5 secs

     total energy              =   -2246.25218988 Ry
     estimated scf accuracy    <       0.00556095 Ry

     iteration #  8     ecut=    80.00 Ry     beta= 0.70
     Davidson diagonalization with overlap
     ethr =  1.78E-06,  avg # of iterations = 10.0

     negative rho (up, down):  7.142E-03 0.000E+00

     total cpu time spent up to now is       57.3 secs

     total energy              =   -2246.25167442 Ry
     estimated scf accuracy    <       0.00321914 Ry

     iteration #  9     ecut=    80.00 Ry     beta= 0.70
     Davidson diagonalization with overlap
     ethr =  1.03E-06,  avg # of iterations =  2.0

     negative rho (up, down):  2.256E-02 0.000E+00

     total cpu time spent up to now is       63.3 secs

     total energy              =   -2246.25151182 Ry
     estimated scf accuracy    <       0.00176953 Ry

     iteration # 10     ecut=    80.00 Ry     beta= 0.70
     Davidson diagonalization with overlap
     ethr =  5.67E-07,  avg # of iterations =  2.0

     negative rho (up, down):  2.354E-02 0.000E+00

     total cpu time spent up to now is       70.0 secs

     total energy              =   -2246.25156995 Ry
     estimated scf accuracy    <       0.00072880 Ry

     iteration # 11     ecut=    80.00 Ry     beta= 0.70
     Davidson diagonalization with overlap
     ethr =  2.34E-07,  avg # of iterations =  5.0

     negative rho (up, down):  1.263E-02 0.000E+00

     total cpu time spent up to now is       77.5 secs

     total energy              =   -2246.25156329 Ry
     estimated scf accuracy    <       0.00014750 Ry

     iteration # 12     ecut=    80.00 Ry     beta= 0.70
     Davidson diagonalization with overlap
     ethr =  4.73E-08,  avg # of iterations =  5.0

     negative rho (up, down):  4.411E-03 0.000E+00

     total cpu time spent up to now is       86.7 secs

     total energy              =   -2246.25160668 Ry
     estimated scf accuracy    <       0.00004463 Ry

     iteration # 13     ecut=    80.00 Ry     beta= 0.70
     Davidson diagonalization with overlap
     ethr =  1.43E-08,  avg # of iterations =  2.0

     negative rho (up, down):  9.310E-04 0.000E+00

     total cpu time spent up to now is       96.7 secs

     total energy              =   -2246.25162295 Ry
     estimated scf accuracy    <       0.00001058 Ry

     iteration # 14     ecut=    80.00 Ry     beta= 0.70
     Davidson diagonalization with overlap
     ethr =  3.39E-09,  avg # of iterations =  3.0

     negative rho (up, down):  4.773E-04 0.000E+00

     total cpu time spent up to now is      107.6 secs

     total energy              =   -2246.25162381 Ry
     estimated scf accuracy    <       0.00000256 Ry

     iteration # 15     ecut=    80.00 Ry     beta= 0.70
     Davidson diagonalization with overlap
     ethr =  8.19E-10,  avg # of iterations =  5.0

     negative rho (up, down):  2.030E-04 0.000E+00

     total cpu time spent up to now is      111.9 secs

     End of self-consistent calculation

          k = 0.0000 0.0000 0.0000 (105382 PWs)   bands (ev):

   -62.9910 -62.9699 -62.9593 -62.9477 -62.9428 -62.9298 -62.9195 -62.9062
   -62.8849 -62.8679 -62.8432 -62.7958 -37.3321 -37.2724 -37.2475 -37.2364
   -37.2265 -37.2100 -37.1936 -37.1795 -37.1672 -37.1611 -37.1571 -37.1512
   -37.1354 -37.1250 -37.1177 -37.1146 -37.1099 -37.1012 -37.0857 -37.0849
   -37.0615 -37.0471 -37.0298 -37.0273 -37.0229 -37.0026 -36.9971 -36.9876
   -36.9749 -36.9668 -36.9594 -36.9524 -36.9310 -36.8995 -36.8564 -36.7724
   -20.6230 -16.0199 -15.3785 -15.1993 -15.1119 -14.9788 -14.8681 -14.8351
   -14.5559 -14.5293 -14.4947 -14.4777 -14.4292 -14.3855 -14.3358 -14.3041
   -14.1974 -14.1963 -14.1402 -14.0634 -13.9972 -13.9396 -13.9085 -13.8120
    -8.2271  -7.7881  -7.5666  -7.5396  -7.4123  -7.3614  -7.3308  -7.2726
    -7.2352  -6.9991  -6.9605  -6.8606  -6.8503  -6.7632  -6.6857  -6.6434
    -6.5411  -6.5156  -6.3686  -6.3297  -6.1560  -6.0491  -6.0452  -5.9896
    -5.8728  -5.8369  -5.8063  -5.7909  -5.7618  -5.7203  -5.7054  -5.6380
    -5.5880  -5.5425  -5.5118  -5.3685  -5.2923  -5.2266  -5.1786  -5.0779
    -5.0689  -5.0232  -4.9282  -4.8448  -4.7200  -4.6149  -4.4575  -4.4129
    -4.4101  -4.3025  -4.2385  -4.1522  -4.0061  -3.9813  -3.9189  -3.9025
    -3.8449  -3.8044  -3.7204  -3.6879  -3.6387  -3.6132  -3.5890  -3.5556
    -3.4978  -3.4550  -3.3182  -3.2930  -3.1086  -3.0392  -2.9985  -2.9123
    -2.9013  -2.8257  -2.7914  -2.7546  -2.7286  -2.6907  -2.6351  -2.4673
    -2.1378  -2.0933  -2.0643  -1.4875  -0.9938  -0.9048  -0.7518  -0.2828
    -0.2081  -0.1659  -0.0928  -0.0108   0.0408   0.0669   0.1566   0.1704
     0.1997   0.2557   0.3154   0.3768   0.4521   0.4764   0.5090   0.5474
     0.5888   0.6681   0.6787   0.7029   0.7246   0.7660   0.8359   0.8606
     0.9084   1.0375   1.1848

     the Fermi energy is    -1.2414 ev

!    total energy              =   -2246.25162711 Ry
     estimated scf accuracy    <       0.00000100 Ry
     smearing contrib. (-TS)   =      -0.00043193 Ry
     internal energy E=F+TS    =   -2246.25119518 Ry

     The total energy is F=E-TS. E is the sum of the following terms:
     one-electron contribution =  -18453.32480695 Ry
     hartree contribution      =    9214.59051597 Ry
     xc contribution           =    -391.99125457 Ry
     ewald contribution        =    7394.34559177 Ry
     one-center paw contrib.   =      -9.87124140 Ry

     convergence has been achieved in  15 iterations

     negative rho (up, down):  2.030E-04 0.000E+00

     Forces acting on atoms (cartesian axes, Ry/au):

     atom    1 type  1   force =     0.01290320   -0.02401618    0.00846128
     atom    2 type  2   force =    -0.01632284    0.01492185   -0.00051480
     atom    3 type  2   force =    -0.01008226    0.00922519   -0.00437567
     atom    4 type  1   force =     0.01055189    0.02122131    0.00467096
     atom    5 type  2   force =    -0.00665969   -0.00840717   -0.00769576
     atom    6 type  2   force =    -0.00124805    0.00772011   -0.00179787
     atom    7 type  1   force =     0.00715865   -0.01402037   -0.01083412
     atom    8 type  2   force =     0.00295991   -0.00191819    0.01495735
     atom    9 type  2   force =     0.01330589    0.00408448    0.01236274
     atom   10 type  1   force =    -0.01194816    0.00758644   -0.02662759
     atom   11 type  2   force =     0.00458994   -0.00180987   -0.00608200
     atom   12 type  2   force =    -0.00035136    0.00170450    0.00846941
     atom   13 type  1   force =     0.00702944    0.00730098   -0.01155965
     atom   14 type  2   force =     0.00791699   -0.00095317    0.01333888
     atom   15 type  2   force =    -0.01306209    0.00324211   -0.00826090
     atom   16 type  1   force =    -0.00178941    0.00575214    0.00530145
     atom   17 type  2   force =     0.01209683   -0.00130638   -0.00074112
     atom   18 type  2   force =    -0.00338666   -0.00536747    0.01299445
     atom   19 type  1   force =     0.00733933    0.00731767   -0.01400965
     atom   20 type  2   force =     0.00221643   -0.00699706   -0.00166228
     atom   21 type  1   force =    -0.00347005    0.00620750   -0.00210012
     atom   22 type  2   force =    -0.00520445   -0.00045001   -0.00119291
     atom   23 type  2   force =    -0.00008008    0.00018602    0.01020977
     atom   24 type  1   force =    -0.00054779   -0.02136821   -0.01820714
     atom   25 type  2   force =     0.01800345    0.01288478    0.00960314
     atom   26 type  2   force =    -0.01098804   -0.00102709   -0.00595185
     atom   27 type  1   force =     0.03012893   -0.01320872   -0.06480526
     atom   28 type  2   force =     0.02527329    0.08574291    0.02884091
     atom   29 type  2   force =     0.00226312   -0.00071953   -0.00048637
     atom   30 type  1   force =    -0.00806591   -0.00247846    0.00485534
     atom   31 type  2   force =    -0.00782761   -0.00403584    0.00494336
     atom   32 type  2   force =    -0.00910844    0.00791871    0.00801629
     atom   33 type  1   force =     0.01388654   -0.01141952   -0.01038358
     atom   34 type  2   force =     0.00426881   -0.03996402   -0.00779028
     atom   35 type  2   force =    -0.00810076    0.01448141    0.01364139
     atom   36 type  3   force =    -0.06364899   -0.05803082    0.04441218
     The non-local contrib.  to forces
     atom    1 type  1   force =    -0.00650647    0.03046046   -0.01235667
     atom    2 type  2   force =    -0.01295040    0.00087141   -0.26964769
     atom    3 type  2   force =    -0.01210998   -0.00426354    0.27231611
     atom    4 type  1   force =    -0.00506026   -0.01133864    0.00685862
     atom    5 type  2   force =     0.00604899   -0.03412894   -0.25417522
     atom    6 type  2   force =    -0.00310286    0.01115607    0.26510872
     atom    7 type  1   force =    -0.01911551   -0.00139756   -0.01435383
     atom    8 type  2   force =    -0.00156363    0.00249672   -0.25698254
     atom    9 type  2   force =     0.01089747   -0.00705559    0.27057309
     atom   10 type  1   force =    -0.00162595   -0.00306836    0.00251801
     atom   11 type  2   force =     0.01512473    0.00316185   -0.26548872
     atom   12 type  2   force =    -0.01288684   -0.01434122    0.25968741
     atom   13 type  1   force =     0.00001534    0.02477364   -0.00653742
     atom   14 type  2   force =     0.01129784   -0.00713692   -0.26267598
     atom   15 type  2   force =    -0.01300076   -0.00413755    0.26156523
     atom   16 type  1   force =    -0.00231096    0.02200654   -0.02367030
     atom   17 type  2   force =     0.02638780   -0.03207927   -0.26050961
     atom   18 type  2   force =    -0.00456517   -0.00094197    0.27685939
     atom   19 type  1   force =    -0.00050443   -0.02800077   -0.00019496
     atom   20 type  2   force =     0.00297523   -0.02585147    0.26573654
     atom   21 type  1   force =     0.00446122    0.02722351    0.00644320
     atom   22 type  2   force =    -0.01104179    0.00718142   -0.25824763
     atom   23 type  2   force =     0.00436808   -0.01538467    0.26996656
     atom   24 type  1   force =     0.00221490    0.02076010   -0.01648894
     atom   25 type  2   force =     0.00853951    0.00091834   -0.25605130
     atom   26 type  2   force =    -0.00329987   -0.01150034    0.26628792
     atom   27 type  1   force =    -0.00328372    0.01289710    0.04114672
     atom   28 type  2   force =     0.19890142    0.29892848    0.09736133
     atom   29 type  2   force =     0.00330182    0.00086555    0.26051733
     atom   30 type  1   force =     0.01001386    0.02184964    0.00882351
     atom   31 type  2   force =    -0.09725416   -0.12556462   -0.11137067
     atom   32 type  2   force =    -0.00393580   -0.00846725    0.27569301
     atom   33 type  1   force =     0.00393916    0.01286185    0.00685955
     atom   34 type  2   force =     0.00094255   -0.03763579   -0.27580027
     atom   35 type  2   force =    -0.00230512   -0.00888436    0.26994532
     atom   36 type  3   force =    -0.50479821   -0.60822415   -0.81725590
     The ionic contribution  to forces
     atom    1 type  1   force =     0.07708770   -0.43084188    4.54722521
     atom    2 type  2   force =    -0.95591284   -0.06560623   39.04810268
     atom    3 type  2   force =    -0.25686593   -0.13560945  -36.64326227
     atom    4 type  1   force =    -1.80727598    0.24304311   -2.32728440
     atom    5 type  2   force =    -1.41784284    1.18515685   38.38339873
     atom    6 type  2   force =     0.25339515   -0.61235262  -38.68908567
     atom    7 type  1   force =    -2.96984903   -2.12370278    1.23899845
     atom    8 type  2   force =    -2.43549295    1.02379432   36.54621642
     atom    9 type  2   force =     0.14160771    0.13300260  -38.81951848
     atom   10 type  1   force =    -1.40860517   -0.10354209    4.66073672
     atom   11 type  2   force =    -0.67609506   -1.34409752   38.95419209
     atom   12 type  2   force =     0.40045687    0.78927078  -38.34688532
     atom   13 type  1   force =     1.17146521   -0.06928227    1.33181594
     atom   14 type  2   force =     0.18837354   -0.28024809   38.32304850
     atom   15 type  2   force =     0.19806248   -0.17355557  -37.30298833
     atom   16 type  1   force =     0.62631400    3.80027313   -1.23559956
     atom   17 type  2   force =     2.58265414    0.52832903   36.96005816
     atom   18 type  2   force =     0.04271395   -0.80190101  -39.39705325
     atom   19 type  1   force =     3.65738322   -1.31567808   -1.26193753
     atom   20 type  2   force =     0.31649729   -0.08127224  -39.13194427
     atom   21 type  1   force =     0.17914286    0.19070944    0.26205274
     atom   22 type  2   force =     0.73611152   -1.28122515   38.17931564
     atom   23 type  2   force =    -0.00582711    0.78951694  -38.83267089
     atom   24 type  1   force =    -0.96434134   -0.57451860    3.79891507
     atom   25 type  2   force =     0.82572020   -0.43030441   38.95883001
     atom   26 type  2   force =    -0.23974275   -0.12691727  -37.95392828
     atom   27 type  1   force =     1.53775949   -0.30208400   -8.07410507
     atom   28 type  2   force =    -2.79290462   -3.43942854   34.39074443
     atom   29 type  2   force =    -0.39694646   -0.67057097  -38.35127981
     atom   30 type  1   force =    -0.97023094    1.09975294   -2.90092243
     atom   31 type  2   force =     3.20717331    3.39087850   34.56194594
     atom   32 type  2   force =    -0.36708542    0.22881822  -39.65644643
     atom   33 type  1   force =     0.95156058   -0.59751987    0.91784560
     atom   34 type  2   force =     0.09463981   -0.82142176   39.06972681
     atom   35 type  2   force =    -0.34347216    0.64310291  -38.41605007
     atom   36 type  3   force =     0.82037157    1.73603163   47.20779289
     The local contribution  to forces
     atom    1 type  1   force =    -0.05760032    0.37665636   -4.52751046
     atom    2 type  2   force =     0.95225717    0.07987568  -38.80006078
     atom    3 type  2   force =     0.25838084    0.14901569   36.38703362
     atom    4 type  1   force =     1.82299326   -0.21042028    2.32397395
     atom    5 type  2   force =     1.40583905   -1.16132486  -38.15770669
     atom    6 type  2   force =    -0.25182960    0.61003282   38.44264963
     atom    7 type  1   force =     2.99623243    2.11095046   -1.23666180
     atom    8 type  2   force =     2.43972291   -1.02839837  -36.29548361
     atom    9 type  2   force =    -0.13881820   -0.12232602   38.58153016
     atom   10 type  1   force =     1.39836517    0.11410784   -4.69103591
     atom   11 type  2   force =     0.66630585    1.33945556  -38.71616192
     atom   12 type  2   force =    -0.38905092   -0.77458253   38.11584593
     atom   13 type  1   force =    -1.16460781    0.05209193   -1.33800492
     atom   14 type  2   force =    -0.19116035    0.28657847  -38.06807274
     atom   15 type  2   force =    -0.19882101    0.18067130   37.05319993
     atom   16 type  1   force =    -0.62579079   -3.81649808    1.26350951
     atom   17 type  2   force =    -2.59563692   -0.49933468  -36.72165846
     atom   18 type  2   force =    -0.04165513    0.79811378   39.15385097
     atom   19 type  1   force =    -3.64966007    1.35087692    1.24691777
     atom   20 type  2   force =    -0.31720525    0.09905334   38.88515891
     atom   21 type  1   force =    -0.18710092   -0.21188902   -0.27184516
     atom   22 type  2   force =    -0.73069449    1.27410298  -37.94323742
     atom   23 type  2   force =     0.00177642   -0.77530805   38.59337334
     atom   24 type  1   force =     0.96166498    0.53262842   -3.80174785
     atom   25 type  2   force =    -0.81632025    0.44263131  -38.71405804
     atom   26 type  2   force =     0.23215204    0.13683915   37.70213874
     atom   27 type  1   force =    -1.50443539    0.27602883    7.96689809
     atom   28 type  2   force =     2.63067033    3.24273326  -34.46025038
     atom   29 type  2   force =     0.39633217    0.66960586   38.11029349
     atom   30 type  1   force =     0.95213809   -1.12433168    2.89572667
     atom   31 type  2   force =    -3.12243697   -3.27549180  -34.45974041
     atom   32 type  2   force =     0.36195129   -0.21295836   39.40942886
     atom   33 type  1   force =    -0.94167447    0.57317738   -0.93623985
     atom   34 type  2   force =    -0.09158071    0.81784415  -38.82337390
     atom   35 type  2   force =     0.33776053   -0.62065581   38.18028032
     atom   36 type  3   force =    -0.38513429   -1.19285540  -46.35471717
     The core correction contribution to forces
     atom    1 type  1   force =     0.00000000    0.00000000    0.00000000
     atom    2 type  2   force =     0.00032516   -0.00013457    0.02072873
     atom    3 type  2   force =     0.00054411    0.00011380   -0.02099139
     atom    4 type  1   force =     0.00000000    0.00000000    0.00000000
     atom    5 type  2   force =    -0.00065547    0.00191214    0.02047163
     atom    6 type  2   force =     0.00032608   -0.00107830   -0.02099385
     atom    7 type  1   force =     0.00000000    0.00000000    0.00000000
     atom    8 type  2   force =     0.00031598    0.00014790    0.02077546
     atom    9 type  2   force =    -0.00033906    0.00044521   -0.02070368
     atom   10 type  1   force =     0.00000000    0.00000000    0.00000000
     atom   11 type  2   force =    -0.00070405   -0.00042977    0.02094390
     atom   12 type  2   force =     0.00113847    0.00125367   -0.02071431
     atom   13 type  1   force =     0.00000000    0.00000000    0.00000000
     atom   14 type  2   force =    -0.00059228   -0.00007331    0.02066141
     atom   15 type  2   force =     0.00069923    0.00029787   -0.02060134
     atom   16 type  1   force =     0.00000000    0.00000000    0.00000000
     atom   17 type  2   force =    -0.00138883    0.00183432    0.02097379
     atom   18 type  2   force =     0.00000843   -0.00057432   -0.02116132
     atom   19 type  1   force =     0.00000000    0.00000000    0.00000000
     atom   20 type  2   force =    -0.00006675    0.00109884   -0.02116707
     atom   21 type  1   force =     0.00000000    0.00000000    0.00000000
     atom   22 type  2   force =     0.00037453   -0.00061777    0.02054221
     atom   23 type  2   force =    -0.00041736    0.00126455   -0.02097672
     atom   24 type  1   force =     0.00000000    0.00000000    0.00000000
     atom   25 type  2   force =     0.00001664   -0.00028718    0.02052751
     atom   26 type  2   force =    -0.00012932    0.00060927   -0.02098335
     atom   27 type  1   force =     0.00000000    0.00000000    0.00000000
     atom   28 type  2   force =    -0.01138899   -0.01646647    0.00068083
     atom   29 type  2   force =    -0.00035527   -0.00052895   -0.02052112
     atom   30 type  1   force =     0.00000000    0.00000000    0.00000000
     atom   31 type  2   force =     0.00468702    0.00607262    0.01371714
     atom   32 type  2   force =    -0.00006312    0.00045280   -0.02113415
     atom   33 type  1   force =     0.00000000    0.00000000    0.00000000
     atom   34 type  2   force =     0.00027716    0.00117933    0.02130155
     atom   35 type  2   force =    -0.00007665    0.00083942   -0.02108510
     atom   36 type  3   force =     0.00585958    0.00689290    0.00823710
     The Hubbard contrib.    to forces
     atom    1 type  1   force =     0.00000000    0.00000000    0.00000000
     atom    2 type  2   force =     0.00000000    0.00000000    0.00000000
     atom    3 type  2   force =     0.00000000    0.00000000    0.00000000
     atom    4 type  1   force =     0.00000000    0.00000000    0.00000000
     atom    5 type  2   force =     0.00000000    0.00000000    0.00000000
     atom    6 type  2   force =     0.00000000    0.00000000    0.00000000
     atom    7 type  1   force =     0.00000000    0.00000000    0.00000000
     atom    8 type  2   force =     0.00000000    0.00000000    0.00000000
     atom    9 type  2   force =     0.00000000    0.00000000    0.00000000
     atom   10 type  1   force =     0.00000000    0.00000000    0.00000000
     atom   11 type  2   force =     0.00000000    0.00000000    0.00000000
     atom   12 type  2   force =     0.00000000    0.00000000    0.00000000
     atom   13 type  1   force =     0.00000000    0.00000000    0.00000000
     atom   14 type  2   force =     0.00000000    0.00000000    0.00000000
     atom   15 type  2   force =     0.00000000    0.00000000    0.00000000
     atom   16 type  1   force =     0.00000000    0.00000000    0.00000000
     atom   17 type  2   force =     0.00000000    0.00000000    0.00000000
     atom   18 type  2   force =     0.00000000    0.00000000    0.00000000
     atom   19 type  1   force =     0.00000000    0.00000000    0.00000000
     atom   20 type  2   force =     0.00000000    0.00000000    0.00000000
     atom   21 type  1   force =     0.00000000    0.00000000    0.00000000
     atom   22 type  2   force =     0.00000000    0.00000000    0.00000000
     atom   23 type  2   force =     0.00000000    0.00000000    0.00000000
     atom   24 type  1   force =     0.00000000    0.00000000    0.00000000
     atom   25 type  2   force =     0.00000000    0.00000000    0.00000000
     atom   26 type  2   force =     0.00000000    0.00000000    0.00000000
     atom   27 type  1   force =     0.00000000    0.00000000    0.00000000
     atom   28 type  2   force =     0.00000000    0.00000000    0.00000000
     atom   29 type  2   force =     0.00000000    0.00000000    0.00000000
     atom   30 type  1   force =     0.00000000    0.00000000    0.00000000
     atom   31 type  2   force =     0.00000000    0.00000000    0.00000000
     atom   32 type  2   force =     0.00000000    0.00000000    0.00000000
     atom   33 type  1   force =     0.00000000    0.00000000    0.00000000
     atom   34 type  2   force =     0.00000000    0.00000000    0.00000000
     atom   35 type  2   force =     0.00000000    0.00000000    0.00000000
     atom   36 type  3   force =     0.00000000    0.00000000    0.00000000
     The SCF correction term to forces
     atom    1 type  1   force =    -0.00007806   -0.00029110    0.00108021
     atom    2 type  2   force =    -0.00004228   -0.00008443    0.00033928
     atom    3 type  2   force =    -0.00003165   -0.00003129    0.00050527
     atom    4 type  1   force =    -0.00010547   -0.00006286    0.00109980
     atom    5 type  2   force =    -0.00004976   -0.00002234    0.00029281
     atom    6 type  2   force =    -0.00003717   -0.00003784    0.00050031
     atom    7 type  1   force =    -0.00010957    0.00012953    0.00116006
     atom    8 type  2   force =    -0.00002275    0.00004125    0.00040863
     atom    9 type  2   force =    -0.00004238    0.00001830    0.00045865
     atom   10 type  1   force =    -0.00008256    0.00008907    0.00113061
     atom   11 type  2   force =    -0.00004188    0.00010002    0.00040966
     atom   12 type  2   force =    -0.00000929    0.00010382    0.00051271
     atom   13 type  1   force =     0.00015635   -0.00028230    0.00114375
     atom   14 type  2   force =    -0.00000211   -0.00007331    0.00035470
     atom   15 type  2   force =    -0.00000238   -0.00003391    0.00054062
     atom   16 type  1   force =    -0.00000201   -0.00002944    0.00103881
     atom   17 type  2   force =     0.00008029   -0.00005577    0.00037201
     atom   18 type  2   force =     0.00011091   -0.00006392    0.00047568
     atom   19 type  1   force =     0.00012025    0.00011961    0.00118208
     atom   20 type  2   force =     0.00001556   -0.00002552    0.00053061
     atom   21 type  1   force =     0.00002644    0.00016359    0.00122611
     atom   22 type  2   force =     0.00004542    0.00010854    0.00041130
     atom   23 type  2   force =     0.00001954    0.00009727    0.00049448
     atom   24 type  1   force =    -0.00008667   -0.00023810    0.00109159
     atom   25 type  2   force =     0.00004700   -0.00007326    0.00033196
     atom   26 type  2   force =     0.00003152   -0.00005788    0.00051013
     atom   27 type  1   force =     0.00008821   -0.00005064    0.00123201
     atom   28 type  2   force =    -0.00000520   -0.00002379    0.00028172
     atom   29 type  2   force =    -0.00006949   -0.00009101    0.00048075
     atom   30 type  1   force =     0.00001274    0.00025066    0.00120460
     atom   31 type  2   force =     0.00000283    0.00006947    0.00036837
     atom   32 type  2   force =     0.00002426    0.00007332    0.00045201
     atom   33 type  1   force =     0.00006093    0.00006114    0.00112813
     atom   34 type  2   force =    -0.00001035    0.00007006    0.00033254
     atom   35 type  2   force =    -0.00000771    0.00007925    0.00052793
     atom   36 type  3   force =     0.00005202    0.00012423    0.00033226

     Total force =     0.184467     Total SCF correction =     0.004567

     BFGS Geometry Optimization
     Energy error            =      0.0E+00 Ry
     Gradient error          =      8.6E-02 Ry/Bohr

     number of scf cycles    =   1
     number of bfgs steps    =   0

     energy             new  =   -2246.2516271066 Ry

     new trust radius        =       0.0969082649 bohr
     new conv_thr            =       0.0000010000 Ry


ATOMIC_POSITIONS (angstrom)
Mo            6.5813764867        1.7750974121        2.8281205465
S             8.1680716644        0.8176003257        4.4342659340
S             8.1878977834        0.8161235067        1.2755679236
Mo            8.1007463873        4.5062867795        2.7202901566
S             6.4963851013        3.7179626059        4.3425882294
S             6.5526893582        3.5158228608        1.1203288375
Mo            6.4937698930        7.2110180249        2.6661513153
S             8.0832940468        6.3428559288        4.2503766539
S             8.0879588210        6.3068637296        1.0904050777
Mo            8.1542963520        9.9061949848        2.8293710474
S             6.4975964895        8.9419690700        4.3798870782
S             6.6177612663        9.0496131933        1.1443891230
Mo            3.4253794811        1.7508193606        2.7703540567
S             4.9793549796        0.8164368124        4.3575917224
S             5.0509215914        0.8479777602        1.2222869789
Mo            4.9788097647        4.5162219049        2.6356899562
S             3.4342430293        3.6709083791        4.2793173960
S             3.4361284371        3.5453883558        1.0652280500
Mo            3.4577455441        7.2201968813        2.6232632760
S             4.9844070764        6.3232296002        1.0363740918
Mo            5.0104276473        9.9048849179        2.7422896225
S             3.4682040384        8.9435131365        4.3249600491
S             3.4083867912        9.0650884219        1.1014710765
Mo            0.2958006116        1.7362019629        2.8398099057
S             1.8599892292        0.7995123366        4.4032912024
S             1.8549854118        0.8538824077        1.2062512724
Mo            1.8766348513        4.4886770058        2.6259039146
S             0.2855879004        3.6997720196        4.3528460533
S             0.2324288001        3.5268684685        1.1717605087
Mo            0.2668838576        7.2153345470        2.7042657655
S             1.8980960556        6.3106631599        4.2250600369
S             1.8574182347        6.3145342109        1.0488013218
Mo            1.8516951041        9.9340962015        2.7674514966
S             0.2981718569        9.0688497802        4.4097470262
S             0.2724846648        9.0511889445        1.1576194950
O             1.0170695148        4.8265803016        5.3669636733



     Writing config-only to output data dir ./MoS2-V-O.save/
     NEW-OLD atomic charge density approx. for the potential

     negative rho (up, down):  1.876E-04 0.000E+00

     total cpu time spent up to now is      120.1 secs

     Self-consistent Calculation

     iteration #  1     ecut=    80.00 Ry     beta= 0.70
     Davidson diagonalization with overlap
     ethr =  1.00E-06,  avg # of iterations = 12.0

     negative rho (up, down):  1.356E-04 0.000E+00

     total cpu time spent up to now is      133.1 secs

     total energy              =   -2246.28100215 Ry
     estimated scf accuracy    <       0.00613983 Ry

     iteration #  2     ecut=    80.00 Ry     beta= 0.70
     Davidson diagonalization with overlap
     ethr =  1.97E-06,  avg # of iterations =  4.0

     negative rho (up, down):  1.318E-04 0.000E+00

     total cpu time spent up to now is      145.7 secs

     total energy              =   -2246.28159128 Ry
     estimated scf accuracy    <       0.00178180 Ry

     iteration #  3     ecut=    80.00 Ry     beta= 0.70
     Davidson diagonalization with overlap
     ethr =  5.71E-07,  avg # of iterations =  4.0

     negative rho (up, down):  1.094E-04 0.000E+00

     total cpu time spent up to now is      159.3 secs

     total energy              =   -2246.28171144 Ry
     estimated scf accuracy    <       0.00027294 Ry

     iteration #  4     ecut=    80.00 Ry     beta= 0.70
     Davidson diagonalization with overlap
     ethr =  8.75E-08,  avg # of iterations =  5.0

     negative rho (up, down):  1.067E-04 0.000E+00

     total cpu time spent up to now is      175.0 secs

     total energy              =   -2246.28175224 Ry
     estimated scf accuracy    <       0.00001916 Ry

     iteration #  5     ecut=    80.00 Ry     beta= 0.70
     Davidson diagonalization with overlap
     ethr =  6.14E-09,  avg # of iterations =  5.0

     negative rho (up, down):  1.092E-04 0.000E+00

     total cpu time spent up to now is      188.3 secs

     total energy              =   -2246.28175880 Ry
     estimated scf accuracy    <       0.00000736 Ry

     iteration #  6     ecut=    80.00 Ry     beta= 0.70
     Davidson diagonalization with overlap
     ethr =  2.36E-09,  avg # of iterations =  2.0

     negative rho (up, down):  1.145E-04 0.000E+00

     total cpu time spent up to now is      202.5 secs

     total energy              =   -2246.28175927 Ry
     estimated scf accuracy    <       0.00000228 Ry

     iteration #  7     ecut=    80.00 Ry     beta= 0.70
     Davidson diagonalization with overlap
     ethr =  7.30E-10,  avg # of iterations =  5.0

     negative rho (up, down):  2.015E-04 0.000E+00

     total cpu time spent up to now is      206.9 secs

     End of self-consistent calculation

          k = 0.0000 0.0000 0.0000 (105382 PWs)   bands (ev):

   -62.9832 -62.9715 -62.9620 -62.9475 -62.9366 -62.9249 -62.9077 -62.9070
   -62.8796 -62.8632 -62.8299 -62.7904 -37.3256 -37.2627 -37.2439 -37.2312
   -37.2212 -37.2100 -37.1906 -37.1749 -37.1653 -37.1556 -37.1536 -37.1472
   -37.1305 -37.1200 -37.1156 -37.1115 -37.1061 -37.0979 -37.0851 -37.0745
   -37.0579 -37.0412 -37.0238 -37.0236 -37.0179 -36.9987 -36.9939 -36.9841
   -36.9639 -36.9600 -36.9488 -36.9438 -36.9289 -36.8974 -36.8522 -36.7677
   -21.0806 -16.0188 -15.3194 -15.1966 -15.1021 -14.9625 -14.8629 -14.7941
   -14.5571 -14.5276 -14.4970 -14.4656 -14.4331 -14.3877 -14.3339 -14.2977
   -14.2046 -14.1938 -14.1423 -14.0470 -13.9713 -13.9508 -13.9212 -13.7640
    -8.2645  -7.7921  -7.5870  -7.5364  -7.4419  -7.3571  -7.3295  -7.2730
    -7.2349  -7.0210  -6.9746  -6.8621  -6.8500  -6.7631  -6.7049  -6.6460
    -6.5337  -6.5057  -6.3643  -6.3278  -6.1618  -6.0580  -6.0347  -5.9810
    -5.8663  -5.8417  -5.8066  -5.7796  -5.7644  -5.7192  -5.7079  -5.6432
    -5.5718  -5.5426  -5.4783  -5.3462  -5.2753  -5.2309  -5.1728  -5.0884
    -5.0661  -5.0259  -4.9295  -4.8553  -4.7152  -4.6163  -4.4569  -4.4367
    -4.4107  -4.3081  -4.2440  -4.1636  -4.0359  -3.9953  -3.9306  -3.8922
    -3.8441  -3.7963  -3.7182  -3.6873  -3.6359  -3.6101  -3.5833  -3.5581
    -3.5042  -3.4583  -3.3264  -3.2983  -3.1018  -3.0279  -2.9907  -2.9071
    -2.8706  -2.8179  -2.7798  -2.7640  -2.7296  -2.6955  -2.6676  -2.4653
    -2.1509  -2.1219  -2.0651  -1.5637  -0.9574  -0.8847  -0.7437  -0.2725
    -0.2080  -0.1531  -0.0803   0.0267   0.0461   0.0794   0.1658   0.1752
     0.2142   0.2617   0.3225   0.3779   0.4618   0.4765   0.5148   0.5676
     0.6009   0.6689   0.6791   0.6933   0.7410   0.7857   0.8226   0.8734
     0.9118   1.0507   1.2136

     the Fermi energy is    -1.2613 ev

!    total energy              =   -2246.28175921 Ry
     estimated scf accuracy    <       0.00000040 Ry
     smearing contrib. (-TS)   =      -0.00008145 Ry
     internal energy E=F+TS    =   -2246.28167776 Ry

     The total energy is F=E-TS. E is the sum of the following terms:
     one-electron contribution =  -18449.32728210 Ry
     hartree contribution      =    9212.60653511 Ry
     xc contribution           =    -392.01698540 Ry
     ewald contribution        =    7392.32488024 Ry
     one-center paw contrib.   =      -9.86882560 Ry

     convergence has been achieved in   7 iterations

     negative rho (up, down):  2.015E-04 0.000E+00

     Forces acting on atoms (cartesian axes, Ry/au):

     atom    1 type  1   force =     0.00530055   -0.01201130    0.00157341
     atom    2 type  2   force =    -0.00967427    0.00883043   -0.00201952
     atom    3 type  2   force =    -0.00879097    0.00754498   -0.00943545
     atom    4 type  1   force =     0.00672613    0.01389490    0.00630296
     atom    5 type  2   force =    -0.00231487   -0.00676465   -0.00803928
     atom    6 type  2   force =     0.00046971    0.00505664    0.00212869
     atom    7 type  1   force =     0.00470867   -0.00908059   -0.00344682
     atom    8 type  2   force =     0.00066598    0.00000526    0.01372708
     atom    9 type  2   force =     0.01225111    0.00394828    0.00630761
     atom   10 type  1   force =    -0.00478493    0.00698384   -0.00873793
     atom   11 type  2   force =     0.00388595   -0.00210352   -0.00880513
     atom   12 type  2   force =    -0.00220968    0.00066927    0.00319210
     atom   13 type  1   force =     0.00429334    0.00309917   -0.00389216
     atom   14 type  2   force =     0.00527540   -0.00112696    0.00895338
     atom   15 type  2   force =    -0.00835220    0.00277446   -0.00705106
     atom   16 type  1   force =     0.00188283    0.00304498    0.00415069
     atom   17 type  2   force =     0.00669036    0.00084684   -0.00487024
     atom   18 type  2   force =     0.00604750   -0.00772118    0.00080140
     atom   19 type  1   force =     0.00181168    0.00132981   -0.00463612
     atom   20 type  2   force =     0.00283159   -0.00578835   -0.00460770
     atom   21 type  1   force =    -0.00285616    0.00325548    0.00211156
     atom   22 type  2   force =    -0.00242577   -0.00146511   -0.00209503
     atom   23 type  2   force =     0.00086868    0.00109668    0.00334496
     atom   24 type  1   force =     0.00054361   -0.00646898    0.00017484
     atom   25 type  2   force =     0.01403433    0.00887633    0.00183567
     atom   26 type  2   force =    -0.00742923   -0.00256899   -0.00655906
     atom   27 type  1   force =     0.01441996   -0.00164526   -0.02363437
     atom   28 type  2   force =     0.03044188    0.07185478    0.01263767
     atom   29 type  2   force =    -0.00015448   -0.00239249   -0.00349491
     atom   30 type  1   force =    -0.00509564   -0.00156568    0.00377609
     atom   31 type  2   force =     0.00650006    0.00304105   -0.01122666
     atom   32 type  2   force =    -0.00821966    0.01033791   -0.00007520
     atom   33 type  1   force =     0.00769341   -0.00398372   -0.00029863
     atom   34 type  2   force =     0.00098944   -0.03062696   -0.01219279
     atom   35 type  2   force =    -0.00638360    0.01047424    0.00845277
     atom   36 type  3   force =    -0.06964071   -0.07165156    0.04564718
     The non-local contrib.  to forces
     atom    1 type  1   force =    -0.00506904    0.02645533   -0.01332671
     atom    2 type  2   force =    -0.00865030   -0.00190446   -0.26828357
     atom    3 type  2   force =    -0.00940480   -0.00698680    0.26857690
     atom    4 type  1   force =    -0.00191796   -0.00911752    0.00776216
     atom    5 type  2   force =     0.01033901   -0.03329562   -0.25569728
     atom    6 type  2   force =    -0.00179376    0.00826168    0.26830813
     atom    7 type  1   force =    -0.01830774   -0.00309533   -0.01472333
     atom    8 type  2   force =    -0.00298775    0.00375031   -0.25808549
     atom    9 type  2   force =     0.00834823   -0.00761443    0.26705867
     atom   10 type  1   force =    -0.00263573   -0.00312542    0.00188870
     atom   11 type  2   force =     0.01326756    0.00188833   -0.26786558
     atom   12 type  2   force =    -0.01376300   -0.01553920    0.25739661
     atom   13 type  1   force =    -0.00003339    0.02636059   -0.00861720
     atom   14 type  2   force =     0.00933508   -0.00630783   -0.26433373
     atom   15 type  2   force =    -0.00970042   -0.00492016    0.26169822
     atom   16 type  1   force =    -0.00475685    0.02428814   -0.02424723
     atom   17 type  2   force =     0.02279706   -0.03006901   -0.25998783
     atom   18 type  2   force =     0.00217692   -0.00291866    0.26865529
     atom   19 type  1   force =    -0.00059760   -0.02356773   -0.00299070
     atom   20 type  2   force =     0.00252616   -0.02451618    0.26438021
     atom   21 type  1   force =     0.00311397    0.02807409    0.00510490
     atom   22 type  2   force =    -0.00888315    0.00616643   -0.25917161
     atom   23 type  2   force =     0.00539727   -0.01406011    0.26499845
     atom   24 type  1   force =     0.00176341    0.01515569   -0.02012782
     atom   25 type  2   force =     0.00552414   -0.00169848   -0.26018815
     atom   26 type  2   force =    -0.00146132   -0.01285556    0.26672629
     atom   27 type  1   force =    -0.00162598    0.00919609    0.04533984
     atom   28 type  2   force =     0.21020322    0.30331901    0.12384082
     atom   29 type  2   force =     0.00437319   -0.00055856    0.26085755
     atom   30 type  1   force =     0.00923161    0.01999330    0.00784702
     atom   31 type  2   force =    -0.07859227   -0.10065543   -0.16051580
     atom   32 type  2   force =    -0.00055334   -0.00872959    0.27132370
     atom   33 type  1   force =     0.00528238    0.00857429    0.00578753
     atom   34 type  2   force =    -0.00189937   -0.02996812   -0.27983766
     atom   35 type  2   force =    -0.00177446   -0.01211377    0.26791626
     atom   36 type  3   force =    -0.63825226   -0.82808563   -0.97278521
     The ionic contribution  to forces
     atom    1 type  1   force =     0.00549389   -0.01980333    4.74932224
     atom    2 type  2   force =    -0.73639385   -0.11497475   39.11221556
     atom    3 type  2   force =    -0.25420523   -0.05383594  -36.72814311
     atom    4 type  1   force =    -1.81507749   -0.27876282   -2.11165035
     atom    5 type  2   force =    -1.35437852    1.14383032   38.26350662
     atom    6 type  2   force =     0.29683555   -0.66388002  -38.53934798
     atom    7 type  1   force =    -3.07876080   -1.95278259    1.11830869
     atom    8 type  2   force =    -2.49234488    1.08736501   36.71492987
     atom    9 type  2   force =     0.13894883    0.11272901  -38.84066140
     atom   10 type  1   force =    -1.14360225   -0.12921901    4.36974892
     atom   11 type  2   force =    -0.66066047   -1.36150360   38.91158004
     atom   12 type  2   force =     0.32903663    0.73643576  -38.31341584
     atom   13 type  1   force =     1.07850615   -0.22148241    1.30753083
     atom   14 type  2   force =     0.09946572   -0.26166869   38.41904755
     atom   15 type  2   force =     0.25116568   -0.13171461  -37.33823002
     atom   16 type  1   force =     0.82235788    3.71803903   -0.92752810
     atom   17 type  2   force =     2.39136616    0.59712992   37.01287641
     atom   18 type  2   force =     0.23990587   -0.86583127  -39.45140538
     atom   19 type  1   force =     3.53033765   -1.44135346   -1.33748842
     atom   20 type  2   force =     0.32783041   -0.08818224  -39.16727530
     atom   21 type  1   force =     0.18972960    0.13988462    0.40528829
     atom   22 type  2   force =     0.74247378   -1.31265557   38.23807281
     atom   23 type  2   force =     0.01812948    0.79782121  -38.84141650
     atom   24 type  1   force =    -0.90341613   -0.19370374    3.90584356
     atom   25 type  2   force =     0.71339282   -0.43705718   38.95031488
     atom   26 type  2   force =    -0.20576348   -0.15259638  -37.92483224
     atom   27 type  1   force =     1.18355880   -0.20811822   -9.06917456
     atom   28 type  2   force =    -2.87306445   -3.98216233   33.83915419
     atom   29 type  2   force =    -0.56889012   -0.71980441  -38.23411376
     atom   30 type  1   force =    -0.75356585    1.10585692   -2.61819928
     atom   31 type  2   force =     3.22476766    3.10882373   34.60720038
     atom   32 type  2   force =    -0.39946442    0.35407656  -39.59674739
     atom   33 type  1   force =     0.73193970   -0.37447331    1.01060651
     atom   34 type  2   force =     0.05065133   -0.60112843   38.98526511
     atom   35 type  2   force =    -0.29974784    0.59273418  -38.31383612
     atom   36 type  3   force =     1.17344217    2.07196803   47.43265330
     The local contribution  to forces
     atom    1 type  1   force =     0.00485151   -0.01893654   -4.73490722
     atom    2 type  2   force =     0.73511201    0.12566129  -38.86699124
     atom    3 type  2   force =     0.25439318    0.06802029   36.47103343
     atom    4 type  1   force =     1.82360702    0.30170664    2.10954643
     atom    5 type  2   force =     1.34256084   -1.11924674  -38.03660792
     atom    6 type  2   force =    -0.29480958    0.66156085   38.29405161
     atom    7 type  1   force =     3.10181119    1.94720703   -1.10741894
     atom    8 type  2   force =     2.49560709   -1.09112622  -36.46431718
     atom    9 type  2   force =    -0.13486900   -0.10156476   38.60047807
     atom   10 type  1   force =     1.14142736    0.13933714   -4.38066809
     atom   11 type  2   force =     0.65186621    1.35799147  -38.67378086
     atom   12 type  2   force =    -0.31858146   -0.72144954   38.07980395
     atom   13 type  1   force =    -1.07417286    0.19781165   -1.30318612
     atom   14 type  2   force =    -0.10292684    0.26682448  -38.16676815
     atom   15 type  2   force =    -0.25038190    0.13897151   37.09004386
     atom   16 type  1   force =    -0.81556773   -3.73938614    0.95542659
     atom   17 type  2   force =    -2.40612504   -0.56810050  -36.77904091
     atom   18 type  2   force =    -0.23599852    0.86151923   39.20442891
     atom   19 type  1   force =    -3.52793892    1.46656157    1.33555610
     atom   20 type  2   force =    -0.32740845    0.10600031   38.91926805
     atom   21 type  1   force =    -0.19560856   -0.16464167   -0.40860919
     atom   22 type  2   force =    -0.73626088    1.30574380  -38.00182557
     atom   23 type  2   force =    -0.02221103   -0.78381000   38.60051736
     atom   24 type  1   force =     0.90220652    0.17166183   -3.88601637
     atom   25 type  2   force =    -0.70504664    0.44768237  -38.70921388
     atom   26 type  2   force =     0.19994407    0.16217251   37.67251345
     atom   27 type  1   force =    -1.16758232    0.19726581    8.99965569
     atom   28 type  2   force =     2.70529280    3.76774341  -33.94930476
     atom   29 type  2   force =     0.56494124    0.71842533   37.99019882
     atom   30 type  1   force =     0.73918637   -1.12708128    2.61366722
     atom   31 type  2   force =    -3.14329445   -3.00936581  -34.47436041
     atom   32 type  2   force =     0.39202693   -0.33559921   39.34617417
     atom   33 type  1   force =    -0.72960076    0.36207527   -1.01698792
     atom   34 type  2   force =    -0.04814332    0.59961874  -38.73929563
     atom   35 type  2   force =     0.29517488   -0.57104640   38.07529331
     atom   36 type  3   force =    -0.61217297   -1.32495735  -46.42472235
     The core correction contribution to forces
     atom    1 type  1   force =     0.00000000    0.00000000    0.00000000
     atom    2 type  2   force =     0.00023452   -0.00008681    0.02073615
     atom    3 type  2   force =     0.00039216    0.00029366   -0.02094501
     atom    4 type  1   force =     0.00000000    0.00000000    0.00000000
     atom    5 type  2   force =    -0.00083513    0.00183832    0.02047439
     atom    6 type  2   force =     0.00027905   -0.00097790   -0.02100344
     atom    7 type  1   force =     0.00000000    0.00000000    0.00000000
     atom    8 type  2   force =     0.00031467    0.00017147    0.02086087
     atom    9 type  2   force =    -0.00019876    0.00047018   -0.02067833
     atom   10 type  1   force =     0.00000000    0.00000000    0.00000000
     atom   11 type  2   force =    -0.00059142   -0.00039782    0.02099592
     atom   12 type  2   force =     0.00109823    0.00126429   -0.02064872
     atom   13 type  1   force =     0.00000000    0.00000000    0.00000000
     atom   14 type  2   force =    -0.00057736   -0.00010036    0.02071348
     atom   15 type  2   force =     0.00059584    0.00036054   -0.02061702
     atom   16 type  1   force =     0.00000000    0.00000000    0.00000000
     atom   17 type  2   force =    -0.00130974    0.00175456    0.02093047
     atom   18 type  2   force =    -0.00008746   -0.00055571   -0.02099369
     atom   19 type  1   force =     0.00000000    0.00000000    0.00000000
     atom   20 type  2   force =    -0.00004879    0.00100773   -0.02114536
     atom   21 type  1   force =     0.00000000    0.00000000    0.00000000
     atom   22 type  2   force =     0.00027972   -0.00061233    0.02061622
     atom   23 type  2   force =    -0.00042374    0.00122501   -0.02086232
     atom   24 type  1   force =     0.00000000    0.00000000    0.00000000
     atom   25 type  2   force =     0.00015167   -0.00017894    0.02062438
     atom   26 type  2   force =    -0.00015636    0.00064698   -0.02100356
     atom   27 type  1   force =     0.00000000    0.00000000    0.00000000
     atom   28 type  2   force =    -0.01202622   -0.01718003   -0.00148728
     atom   29 type  2   force =    -0.00057894   -0.00050257   -0.02052845
     atom   30 type  1   force =     0.00000000    0.00000000    0.00000000
     atom   31 type  2   force =     0.00367339    0.00443809    0.01612758
     atom   32 type  2   force =    -0.00027716    0.00061291   -0.02095466
     atom   33 type  1   force =     0.00000000    0.00000000    0.00000000
     atom   34 type  2   force =     0.00035210    0.00093789    0.02141156
     atom   35 type  2   force =    -0.00007190    0.00094020   -0.02100836
     atom   36 type  3   force =     0.00731288    0.00932927    0.00999911
     The Hubbard contrib.    to forces
     atom    1 type  1   force =     0.00000000    0.00000000    0.00000000
     atom    2 type  2   force =     0.00000000    0.00000000    0.00000000
     atom    3 type  2   force =     0.00000000    0.00000000    0.00000000
     atom    4 type  1   force =     0.00000000    0.00000000    0.00000000
     atom    5 type  2   force =     0.00000000    0.00000000    0.00000000
     atom    6 type  2   force =     0.00000000    0.00000000    0.00000000
     atom    7 type  1   force =     0.00000000    0.00000000    0.00000000
     atom    8 type  2   force =     0.00000000    0.00000000    0.00000000
     atom    9 type  2   force =     0.00000000    0.00000000    0.00000000
     atom   10 type  1   force =     0.00000000    0.00000000    0.00000000
     atom   11 type  2   force =     0.00000000    0.00000000    0.00000000
     atom   12 type  2   force =     0.00000000    0.00000000    0.00000000
     atom   13 type  1   force =     0.00000000    0.00000000    0.00000000
     atom   14 type  2   force =     0.00000000    0.00000000    0.00000000
     atom   15 type  2   force =     0.00000000    0.00000000    0.00000000
     atom   16 type  1   force =     0.00000000    0.00000000    0.00000000
     atom   17 type  2   force =     0.00000000    0.00000000    0.00000000
     atom   18 type  2   force =     0.00000000    0.00000000    0.00000000
     atom   19 type  1   force =     0.00000000    0.00000000    0.00000000
     atom   20 type  2   force =     0.00000000    0.00000000    0.00000000
     atom   21 type  1   force =     0.00000000    0.00000000    0.00000000
     atom   22 type  2   force =     0.00000000    0.00000000    0.00000000
     atom   23 type  2   force =     0.00000000    0.00000000    0.00000000
     atom   24 type  1   force =     0.00000000    0.00000000    0.00000000
     atom   25 type  2   force =     0.00000000    0.00000000    0.00000000
     atom   26 type  2   force =     0.00000000    0.00000000    0.00000000
     atom   27 type  1   force =     0.00000000    0.00000000    0.00000000
     atom   28 type  2   force =     0.00000000    0.00000000    0.00000000
     atom   29 type  2   force =     0.00000000    0.00000000    0.00000000
     atom   30 type  1   force =     0.00000000    0.00000000    0.00000000
     atom   31 type  2   force =     0.00000000    0.00000000    0.00000000
     atom   32 type  2   force =     0.00000000    0.00000000    0.00000000
     atom   33 type  1   force =     0.00000000    0.00000000    0.00000000
     atom   34 type  2   force =     0.00000000    0.00000000    0.00000000
     atom   35 type  2   force =     0.00000000    0.00000000    0.00000000
     atom   36 type  3   force =     0.00000000    0.00000000    0.00000000
     The SCF correction term to forces
     atom    1 type  1   force =     0.00002284    0.00026995    0.00046963
     atom    2 type  2   force =     0.00002199    0.00013187    0.00028811
     atom    3 type  2   force =     0.00003237    0.00005050    0.00002687
     atom    4 type  1   force =     0.00011322    0.00006532    0.00062924
     atom    5 type  2   force =    -0.00000242    0.00010580    0.00026942
     atom    6 type  2   force =    -0.00004290    0.00008873    0.00010490
     atom    7 type  1   force =    -0.00003533   -0.00041298    0.00037128
     atom    8 type  2   force =     0.00007551   -0.00015858    0.00032355
     atom    9 type  2   force =     0.00002046   -0.00007501    0.00009513
     atom   10 type  1   force =     0.00002434   -0.00001216    0.00027706
     atom   11 type  2   force =     0.00000272   -0.00008518    0.00024987
     atom   12 type  2   force =    -0.00000143   -0.00004533    0.00004062
     atom   13 type  1   force =    -0.00000791    0.00040606    0.00036486
     atom   14 type  2   force =    -0.00002256    0.00012216    0.00027876
     atom   15 type  2   force =    -0.00003275    0.00007390    0.00003842
     atom   16 type  1   force =    -0.00015182    0.00010067    0.00048396
     atom   17 type  2   force =    -0.00003942    0.00012858    0.00033614
     atom   18 type  2   force =     0.00004934    0.00006195    0.00010079
     atom   19 type  1   force =     0.00000921   -0.00031384    0.00027142
     atom   20 type  2   force =    -0.00006908   -0.00010125    0.00014923
     atom   21 type  1   force =    -0.00009252   -0.00006484    0.00031208
     atom   22 type  2   force =    -0.00003659   -0.00011073    0.00019765
     atom   23 type  2   force =    -0.00002464   -0.00008271    0.00009250
     atom   24 type  1   force =    -0.00001153    0.00041396    0.00046000
     atom   25 type  2   force =     0.00001100    0.00012529    0.00028296
     atom   26 type  2   force =     0.00000652    0.00006018    0.00002153
     atom   27 type  1   force =     0.00006812    0.00000777    0.00052919
     atom   28 type  2   force =     0.00003519    0.00013144    0.00041922
     atom   29 type  2   force =    -0.00000120    0.00004444    0.00007546
     atom   30 type  1   force =     0.00005088   -0.00033790    0.00044567
     atom   31 type  2   force =    -0.00005562   -0.00020282    0.00030611
     atom   32 type  2   force =     0.00004699   -0.00002605    0.00011351
     atom   33 type  1   force =     0.00007074   -0.00016325    0.00027978
     atom   34 type  2   force =     0.00002736   -0.00009033    0.00024836
     atom   35 type  2   force =     0.00003436   -0.00004325    0.00007221
     atom   36 type  3   force =     0.00002813    0.00009084    0.00048685

     Total force =     0.153924     Total SCF correction =     0.002146
     Energy error            =      3.0E-02 Ry
     Gradient error          =      7.2E-02 Ry/Bohr

     number of scf cycles    =   2
     number of bfgs steps    =   1

     energy             old  =   -2246.2516271066 Ry
     energy             new  =   -2246.2817592061 Ry

     CASE: energy            _new < energy            _old

     new trust radius        =       0.1065990914 bohr
     new conv_thr            =       0.0000000719 Ry


ATOMIC_POSITIONS (angstrom)
Mo            6.5855746734        1.7665204067        2.8301968988
S             8.1617049383        0.8234157927        4.4334553976
S             8.1829638882        0.8204606205        1.2714277769
Mo            8.1050300963        4.5150326888        2.7233691509
S             6.4943679967        3.7140496601        4.3383494795
S             6.5526326873        3.5190051817        1.1207636346
Mo            6.4967278110        7.2052751835        2.6629833187
S             8.0840614986        6.3425139470        4.2579400071
S             8.0947011955        6.3090001378        1.0948645467
Mo            8.1504527466        9.9100387632        2.8214901155
S             6.4998013365        8.9408965041        4.3756652312
S             6.6169123953        9.0501567678        1.1470426299
Mo            3.4281665219        1.7532303654        2.7668976154
S             4.9826503954        0.8158651376        4.3631671569
S             5.0456095858        0.8495456892        1.2182983904
Mo            4.9791586354        4.5183359907        2.6381165062
S             3.4387909601        3.6709753822        4.2774524147
S             3.4376721744        3.5416801084        1.0678424451
Mo            3.4597055206        7.2219815956        2.6191030561
S             4.9858114624        6.3199166552        1.0344373612
Mo            5.0087898006        9.9071554977        2.7426641439
S             3.4664083537        8.9429113935        4.3240011004
S             3.4086813879        9.0655118064        1.1044909247
Mo            0.2958957539        1.7300707893        2.8366082919
S             1.8682078976        0.8049789657        4.4056655191
S             1.8503734599        0.8527846165        1.2028515855
Mo            1.8871642740        4.4857240741        2.6058812874
S             0.3009451898        3.7406977607        4.3625107067
S             0.2327795425        3.5258885852        1.1704303397
Mo            0.2636256777        7.2143334176        2.7064791182
S             1.8990046654        6.3110212627        4.2219533565
S             1.8528620976        6.3196304465        1.0502115687
Mo            1.8569205967        9.9306323154        2.7654839363
S             0.2992889797        9.0507932207        4.4040141168
S             0.2687621692        9.0575100890        1.1630711127
O             0.9808917572        4.7906944801        5.3911596300



     Writing config-only to output data dir ./MoS2-V-O.save/
     NEW-OLD atomic charge density approx. for the potential

     negative rho (up, down):  1.802E-04 0.000E+00

     total cpu time spent up to now is      215.0 secs

     Self-consistent Calculation

     iteration #  1     ecut=    80.00 Ry     beta= 0.70
     Davidson diagonalization with overlap
     ethr =  1.00E-06,  avg # of iterations = 11.0

     negative rho (up, down):  1.243E-04 0.000E+00

     total cpu time spent up to now is      228.4 secs

     total energy              =   -2246.30329260 Ry
     estimated scf accuracy    <       0.00596458 Ry

     iteration #  2     ecut=    80.00 Ry     beta= 0.70
     Davidson diagonalization with overlap
     ethr =  1.91E-06,  avg # of iterations =  5.0

     negative rho (up, down):  1.204E-04 0.000E+00

     total cpu time spent up to now is      238.9 secs

     total energy              =   -2246.30416709 Ry
     estimated scf accuracy    <       0.00201988 Ry

     iteration #  3     ecut=    80.00 Ry     beta= 0.70
     Davidson diagonalization with overlap
     ethr =  6.47E-07,  avg # of iterations =  4.0

     negative rho (up, down):  9.589E-05 0.000E+00

     total cpu time spent up to now is      254.1 secs

     total energy              =   -2246.30433437 Ry
     estimated scf accuracy    <       0.00020089 Ry

     iteration #  4     ecut=    80.00 Ry     beta= 0.70
     Davidson diagonalization with overlap
     ethr =  6.44E-08,  avg # of iterations =  5.0

     negative rho (up, down):  9.418E-05 0.000E+00

     total cpu time spent up to now is      267.7 secs

     total energy              =   -2246.30436484 Ry
     estimated scf accuracy    <       0.00001667 Ry

     iteration #  5     ecut=    80.00 Ry     beta= 0.70
     Davidson diagonalization with overlap
     ethr =  5.34E-09,  avg # of iterations =  8.0

     negative rho (up, down):  9.838E-05 0.000E+00

     total cpu time spent up to now is      283.0 secs

     total energy              =   -2246.30436979 Ry
     estimated scf accuracy    <       0.00000419 Ry

     iteration #  6     ecut=    80.00 Ry     beta= 0.70
     Davidson diagonalization with overlap
     ethr =  1.34E-09,  avg # of iterations =  2.0

     negative rho (up, down):  1.061E-04 0.000E+00

     total cpu time spent up to now is      296.8 secs

     total energy              =   -2246.30437011 Ry
     estimated scf accuracy    <       0.00000171 Ry

     iteration #  7     ecut=    80.00 Ry     beta= 0.70
     Davidson diagonalization with overlap
     ethr =  5.49E-10,  avg # of iterations =  2.0

     negative rho (up, down):  1.156E-04 0.000E+00

     total cpu time spent up to now is      311.6 secs

     total energy              =   -2246.30437014 Ry
     estimated scf accuracy    <       0.00000055 Ry

     iteration #  8     ecut=    80.00 Ry     beta= 0.70
     Davidson diagonalization with overlap
     ethr =  1.78E-10,  avg # of iterations =  5.0

     negative rho (up, down):  1.367E-04 0.000E+00

     total cpu time spent up to now is      321.8 secs

     total energy              =   -2246.30437018 Ry
     estimated scf accuracy    <       0.00000015 Ry

     iteration #  9     ecut=    80.00 Ry     beta= 0.70
     Davidson diagonalization with overlap
     ethr =  4.65E-11,  avg # of iterations =  5.0

     negative rho (up, down):  2.017E-04 0.000E+00

     total cpu time spent up to now is      326.4 secs

     End of self-consistent calculation

          k = 0.0000 0.0000 0.0000 (105382 PWs)   bands (ev):

   -62.9838 -62.9640 -62.9566 -62.9427 -62.9302 -62.9199 -62.9050 -62.8940
   -62.8750 -62.8583 -62.8156 -62.7928 -37.3185 -37.2540 -37.2412 -37.2253
   -37.2176 -37.2056 -37.1894 -37.1659 -37.1590 -37.1508 -37.1428 -37.1417
   -37.1245 -37.1143 -37.1113 -37.1064 -37.1005 -37.0925 -37.0827 -37.0621
   -37.0531 -37.0364 -37.0197 -37.0175 -37.0110 -36.9963 -36.9868 -36.9806
   -36.9600 -36.9555 -36.9392 -36.9347 -36.9242 -36.8918 -36.8473 -36.7689
   -21.5886 -16.0165 -15.2825 -15.1927 -15.0853 -14.9508 -14.8576 -14.7268
   -14.5578 -14.5224 -14.4988 -14.4540 -14.4293 -14.3838 -14.3304 -14.2834
   -14.2062 -14.1902 -14.1367 -14.0386 -13.9648 -13.9379 -13.9194 -13.7119
    -8.2794  -7.8037  -7.6205  -7.5310  -7.4768  -7.3566  -7.3221  -7.2704
    -7.2310  -7.0508  -6.9886  -6.8654  -6.8466  -6.7628  -6.7166  -6.6420
    -6.5280  -6.4944  -6.3610  -6.3252  -6.1699  -6.0749  -6.0283  -5.9678
    -5.8603  -5.8450  -5.8059  -5.7702  -5.7629  -5.7177  -5.7069  -5.6462
    -5.5585  -5.5396  -5.4605  -5.3228  -5.2662  -5.2274  -5.1681  -5.0938
    -5.0613  -5.0244  -4.9314  -4.8564  -4.7113  -4.6152  -4.4669  -4.4570
    -4.4101  -4.3143  -4.2400  -4.1675  -4.0642  -3.9936  -3.9358  -3.8863
    -3.8362  -3.7890  -3.7154  -3.6847  -3.6273  -3.6035  -3.5787  -3.5566
    -3.4985  -3.4537  -3.3348  -3.3003  -3.0988  -3.0239  -2.9894  -2.9025
    -2.8423  -2.8045  -2.7707  -2.7645  -2.7262  -2.7076  -2.6726  -2.4702
    -2.1859  -2.1159  -2.0609  -1.6338  -0.9220  -0.8659  -0.7278  -0.2633
    -0.2075  -0.1395  -0.0761   0.0399   0.0550   0.1001   0.1672   0.1875
     0.2250   0.2697   0.3311   0.3820   0.4647   0.4819   0.5188   0.5806
     0.6114   0.6624   0.6842   0.6931   0.7563   0.7971   0.8304   0.8847
     0.9190   1.0598   1.2380

     the Fermi energy is    -1.2789 ev

!    total energy              =   -2246.30437010 Ry
     estimated scf accuracy    <       0.00000003 Ry
     smearing contrib. (-TS)   =      -0.00001262 Ry
     internal energy E=F+TS    =   -2246.30435749 Ry

     The total energy is F=E-TS. E is the sum of the following terms:
     one-electron contribution =  -18445.92628618 Ry
     hartree contribution      =    9210.91318635 Ry
     xc contribution           =    -392.05328382 Ry
     ewald contribution        =    7390.62789757 Ry
     one-center paw contrib.   =      -9.86587141 Ry

     convergence has been achieved in   9 iterations

     negative rho (up, down):  2.017E-04 0.000E+00

     Forces acting on atoms (cartesian axes, Ry/au):

     atom    1 type  1   force =     0.00017157   -0.00443596   -0.00314113
     atom    2 type  2   force =    -0.00505902    0.00488132   -0.00184435
     atom    3 type  2   force =    -0.00684601    0.00630096   -0.01056992
     atom    4 type  1   force =     0.00455033    0.00856897    0.00616895
     atom    5 type  2   force =     0.00086093   -0.00539676   -0.00701870
     atom    6 type  2   force =     0.00180596    0.00350906    0.00429247
     atom    7 type  1   force =     0.00298985   -0.00581368    0.00024579
     atom    8 type  2   force =    -0.00093063    0.00115481    0.01289352
     atom    9 type  2   force =     0.01059088    0.00368093    0.00255069
     atom   10 type  1   force =    -0.00112334    0.00655427    0.00033787
     atom   11 type  2   force =     0.00336774   -0.00209803   -0.00940409
     atom   12 type  2   force =    -0.00317121    0.00000737    0.00054926
     atom   13 type  1   force =     0.00234791   -0.00009512   -0.00036518
     atom   14 type  2   force =     0.00351687   -0.00106744    0.00589339
     atom   15 type  2   force =    -0.00518674    0.00192941   -0.00549607
     atom   16 type  1   force =     0.00370544    0.00169750    0.00175291
     atom   17 type  2   force =     0.00319388    0.00221275   -0.00607093
     atom   18 type  2   force =     0.01159205   -0.00873492   -0.00584780
     atom   19 type  1   force =    -0.00030687   -0.00278084   -0.00064398
     atom   20 type  2   force =     0.00300258   -0.00448651   -0.00522386
     atom   21 type  1   force =    -0.00227419    0.00149599    0.00329173
     atom   22 type  2   force =    -0.00046611   -0.00207530   -0.00210594
     atom   23 type  2   force =     0.00124124    0.00176725   -0.00014738
     atom   24 type  1   force =     0.00068763    0.00236331    0.00897056
     atom   25 type  2   force =     0.01094289    0.00631714   -0.00183641
     atom   26 type  2   force =    -0.00506147   -0.00298881   -0.00515108
     atom   27 type  1   force =     0.00383701    0.00650387   -0.00082731
     atom   28 type  2   force =     0.02633895    0.05081738   -0.00745294
     atom   29 type  2   force =    -0.00118443   -0.00287321   -0.00329649
     atom   30 type  1   force =    -0.00254376   -0.00013697    0.00141080
     atom   31 type  2   force =     0.01637934    0.00923857   -0.01966693
     atom   32 type  2   force =    -0.00708299    0.01101859   -0.00447754
     atom   33 type  1   force =     0.00332589    0.00073625    0.00405307
     atom   34 type  2   force =    -0.00078656   -0.02314890   -0.01288691
     atom   35 type  2   force =    -0.00486272    0.00731808    0.00533306
     atom   36 type  3   force =    -0.06756288   -0.07194134    0.05573089
     The non-local contrib.  to forces
     atom    1 type  1   force =    -0.00405577    0.02400541   -0.01380307
     atom    2 type  2   force =    -0.00515107   -0.00358955   -0.26655675
     atom    3 type  2   force =    -0.00685148   -0.00867471    0.26713719
     atom    4 type  1   force =     0.00124978   -0.00755200    0.00958478
     atom    5 type  2   force =     0.01369067   -0.03202010   -0.25579157
     atom    6 type  2   force =    -0.00095204    0.00614161    0.26982867
     atom    7 type  1   force =    -0.01768385   -0.00400657   -0.01492644
     atom    8 type  2   force =    -0.00369518    0.00432367   -0.25900636
     atom    9 type  2   force =     0.00558145   -0.00829809    0.26512676
     atom   10 type  1   force =    -0.00312763   -0.00310445    0.00171627
     atom   11 type  2   force =     0.01199429    0.00113783   -0.26872906
     atom   12 type  2   force =    -0.01412417   -0.01640202    0.25663038
     atom   13 type  1   force =    -0.00010104    0.02733482   -0.00973653
     atom   14 type  2   force =     0.00793720   -0.00583529   -0.26530580
     atom   15 type  2   force =    -0.00733866   -0.00573660    0.26192058
     atom   16 type  1   force =    -0.00606736    0.02617473   -0.02428001
     atom   17 type  2   force =     0.01942148   -0.02847798   -0.25840006
     atom   18 type  2   force =     0.00644109   -0.00402062    0.26330856
     atom   19 type  1   force =    -0.00059071   -0.01897655   -0.00541781
     atom   20 type  2   force =     0.00178770   -0.02312505    0.26406311
     atom   21 type  1   force =     0.00207858    0.02850963    0.00431387
     atom   22 type  2   force =    -0.00729134    0.00521819   -0.25942032
     atom   23 type  2   force =     0.00589324   -0.01326848    0.26195758
     atom   24 type  1   force =     0.00134190    0.01225590   -0.02157671
     atom   25 type  2   force =     0.00305122   -0.00310984   -0.26234333
     atom   26 type  2   force =    -0.00023526   -0.01336809    0.26788667
     atom   27 type  1   force =    -0.00221650    0.00549225    0.04801251
     atom   28 type  2   force =     0.20288347    0.28835804    0.14655851
     atom   29 type  2   force =     0.00552233   -0.00065797    0.26235714
     atom   30 type  1   force =     0.00792992    0.01808227    0.00741926
     atom   31 type  2   force =    -0.05830041   -0.06692542   -0.19947706
     atom   32 type  2   force =     0.00197531   -0.00932722    0.26886028
     atom   33 type  1   force =     0.00602799    0.00546492    0.00529880
     atom   34 type  2   force =    -0.00360449   -0.02374080   -0.28109578
     atom   35 type  2   force =    -0.00095825   -0.01472708    0.26687128
     atom   36 type  3   force =    -0.74970871   -1.01717003   -1.12615826
     The ionic contribution  to forces
     atom    1 type  1   force =    -0.02746458    0.23597626    4.81569196
     atom    2 type  2   force =    -0.58937389   -0.14428673   39.14770261
     atom    3 type  2   force =    -0.22425201   -0.00031051  -36.80058944
     atom    4 type  1   force =    -1.82040342   -0.66752672   -1.94767009
     atom    5 type  2   force =    -1.31239265    1.10351110   38.16748890
[...]
     atom   28 type  2   force =    -0.00107402    0.01219068    0.29399636
     atom   29 type  2   force =    -0.00073096   -0.00716301    0.27723057
     atom   30 type  1   force =     0.00014670    0.01759103    0.00480371
     atom   31 type  2   force =    -0.00648120    0.00311828   -0.26898079
     atom   32 type  2   force =     0.00640464   -0.01426732    0.26752411
     atom   33 type  1   force =     0.00233023    0.00426855    0.00266697
     atom   34 type  2   force =     0.00013658   -0.00867884   -0.27613916
     atom   35 type  2   force =    -0.00072929   -0.01475784    0.26720211
     atom   36 type  3   force =     0.01868068   -0.06043338   -2.32396853
     The ionic contribution  to forces
     atom    1 type  1   force =    -0.66539869    0.09753332    1.10983552
     atom    2 type  2   force =    -0.76829318   -0.86762896   38.32640591
     atom    3 type  2   force =    -0.01433087   -0.16480122  -38.22947221
     atom    4 type  1   force =    -1.04845316    0.75413089   -4.11996161
     atom    5 type  2   force =    -1.78829562    1.14098425   37.57905958
     atom    6 type  2   force =     0.14165942   -0.46335016  -38.92821831
     atom    7 type  1   force =    -3.12619366   -1.38907646    1.16899834
     atom    8 type  2   force =    -1.77597588    1.17124442   37.50148122
     atom    9 type  2   force =     0.32262153    0.23446898  -38.85665872
     atom   10 type  1   force =    -0.58536442   -0.87972496    2.27637381
     atom   11 type  2   force =    -0.57865465   -1.44328772   38.44802247
     atom   12 type  2   force =     0.13545823    0.36608823  -38.32053802
     atom   13 type  1   force =     0.64615520    0.12399695    1.37249854
     atom   14 type  2   force =     0.00190542   -0.30473498   38.40441840
     atom   15 type  2   force =    -0.02362824   -0.27009461  -37.86874044
     atom   16 type  1   force =    -0.00766392    3.77327532    0.08183969
     atom   17 type  2   force =     1.76998743    1.12740525   37.60339051
     atom   18 type  2   force =    -0.17799813   -0.46506790  -38.86360499
     atom   19 type  1   force =     3.14476768   -1.40080159    1.74385501
     atom   20 type  2   force =    -0.00897436    0.13175897  -39.09683630
     atom   21 type  1   force =    -0.00456228   -0.38134117    0.94717765
     atom   22 type  2   force =     0.59457095   -1.42158719   38.52653909
     atom   23 type  2   force =    -0.14635783    0.36320538  -38.24173307
     atom   24 type  1   force =     0.05368514   -0.73880800   -1.31831790
     atom   25 type  2   force =     0.75406074   -0.82899486   38.37177555
     atom   26 type  2   force =     0.02293125   -0.16795819  -38.16965557
     atom   27 type  1   force =     1.05874267    0.69661479   -3.81017313
     atom   28 type  2   force =     0.07265366    0.20650296   27.81064106
     atom   29 type  2   force =     0.02143581   -0.22736118  -38.23768335
     atom   30 type  1   force =    -0.01638182    0.39101700    0.36346075
     atom   31 type  2   force =     1.75272052    1.15409564   37.61528444
     atom   32 type  2   force =    -0.29582486    0.22258287  -38.79316288
     atom   33 type  1   force =     0.59790415   -0.85862045    2.49657489
     atom   34 type  2   force =    -0.02023956   -0.45628716   38.61222013
     atom   35 type  2   force =     0.00811002    0.22134442  -37.79810488
     atom   36 type  3   force =    -0.04677868    0.55327715   50.29300885
     The local contribution  to forces
     atom    1 type  1   force =     0.66707446   -0.12289018   -1.10237909
     atom    2 type  2   force =     0.76807527    0.87673724  -38.07719776
     atom    3 type  2   force =     0.01692461    0.17354363   37.98406090
     atom    4 type  1   force =     1.03922675   -0.75129743    4.09847466
     atom    5 type  2   force =     1.78490804   -1.12188688  -37.34228429
     atom    6 type  2   force =    -0.14135986    0.46476276   38.68579966
     atom    7 type  1   force =     3.14106251    1.38553508   -1.14902760
     atom    8 type  2   force =     1.76909018   -1.17403493  -37.25305810
     atom    9 type  2   force =    -0.31658568   -0.22147174   38.61003987
     atom   10 type  1   force =     0.58749306    0.87540928   -2.27948665
     atom   11 type  2   force =     0.57194086    1.44388205  -38.20682891
     atom   12 type  2   force =    -0.12752154   -0.35189986   38.07716940
     atom   13 type  1   force =    -0.64800538   -0.14903071   -1.36523686
     atom   14 type  2   force =    -0.00167948    0.31341752  -38.15542796
     atom   15 type  2   force =     0.02318543    0.27781608   37.62530138
     atom   16 type  1   force =     0.00796086   -3.80784559   -0.05920346
     atom   17 type  2   force =    -1.76573021   -1.10848844  -37.36598732
     atom   18 type  2   force =     0.17751279    0.46667160   38.62101353
     atom   19 type  1   force =    -3.15974061    1.39742794   -1.72384288
     atom   20 type  2   force =     0.00856038   -0.11601377   38.85269993
     atom   21 type  1   force =     0.00437326    0.35157769   -0.94946026
     atom   22 type  2   force =    -0.58769737    1.42243761  -38.28566762
     atom   23 type  2   force =     0.13807950   -0.34878410   37.99832824
     atom   24 type  1   force =    -0.05340959    0.71678083    1.30392077
     atom   25 type  2   force =    -0.75399176    0.83798456  -38.12272411
     atom   26 type  2   force =    -0.02528556    0.17660252   37.92406652
     atom   27 type  1   force =    -1.04874417   -0.69483420    3.78901788
     atom   28 type  2   force =    -0.07070733   -0.21894168  -28.09592436
     atom   29 type  2   force =    -0.02116957    0.23445971   37.98247310
     atom   30 type  1   force =     0.01592544   -0.40811577   -0.36822623
     atom   31 type  2   force =    -1.74650183   -1.15687859  -37.36734242
     atom   32 type  2   force =     0.29001462   -0.20945551   38.54672327
     atom   33 type  1   force =    -0.60078862    0.85480466   -2.49938199
     atom   34 type  2   force =     0.01987177    0.46441878  -38.35771118
     atom   35 type  2   force =    -0.00789073   -0.20662931   37.55178647
     atom   36 type  3   force =     0.02898049   -0.49377162  -47.99406414
     The core correction contribution to forces
     atom    1 type  1   force =     0.00000000    0.00000000    0.00000000
     atom    2 type  2   force =    -0.00014175    0.00044824    0.02119619
     atom    3 type  2   force =     0.00007242    0.00035468   -0.02090165
     atom    4 type  1   force =     0.00000000    0.00000000    0.00000000
     atom    5 type  2   force =    -0.00031113    0.00092649    0.02076819
     atom    6 type  2   force =     0.00015163   -0.00043303   -0.02075223
     atom    7 type  1   force =     0.00000000    0.00000000    0.00000000
     atom    8 type  2   force =    -0.00033094    0.00011665    0.02119965
     atom    9 type  2   force =     0.00071178    0.00080595   -0.02092557
     atom   10 type  1   force =     0.00000000    0.00000000    0.00000000
     atom   11 type  2   force =    -0.00014622   -0.00031684    0.02078547
     atom   12 type  2   force =     0.00065532    0.00110821   -0.02089636
     atom   13 type  1   force =     0.00000000    0.00000000    0.00000000
     atom   14 type  2   force =     0.00004164    0.00015601    0.02100123
     atom   15 type  2   force =    -0.00001792    0.00029284   -0.02072094
     atom   16 type  1   force =     0.00000000    0.00000000    0.00000000
     atom   17 type  2   force =     0.00031880    0.00093569    0.02075249
     atom   18 type  2   force =    -0.00016228   -0.00046373   -0.02075745
     atom   19 type  1   force =     0.00000000    0.00000000    0.00000000
     atom   20 type  2   force =    -0.00009083    0.00075557   -0.02128348
     atom   21 type  1   force =     0.00000000    0.00000000    0.00000000
     atom   22 type  2   force =     0.00018796   -0.00027086    0.02077962
     atom   23 type  2   force =    -0.00068688    0.00103681   -0.02089062
     atom   24 type  1   force =     0.00000000    0.00000000    0.00000000
     atom   25 type  2   force =     0.00008512    0.00042423    0.02118764
     atom   26 type  2   force =    -0.00005023    0.00036754   -0.02088771
     atom   27 type  1   force =     0.00000000    0.00000000    0.00000000
     atom   28 type  2   force =     0.00006960   -0.00042403   -0.00980388
     atom   29 type  2   force =     0.00004862    0.00007615   -0.02116655
     atom   30 type  1   force =     0.00000000    0.00000000    0.00000000
     atom   31 type  2   force =     0.00029401    0.00011101    0.02121943
     atom   32 type  2   force =    -0.00062675    0.00085783   -0.02093569
     atom   33 type  1   force =     0.00000000    0.00000000    0.00000000
     atom   34 type  2   force =    -0.00001783    0.00031372    0.02129071
     atom   35 type  2   force =     0.00004783    0.00089846   -0.02090715
     atom   36 type  3   force =    -0.00020179    0.00062873    0.02463592
     The Hubbard contrib.    to forces
     atom    1 type  1   force =     0.00000000    0.00000000    0.00000000
     atom    2 type  2   force =     0.00000000    0.00000000    0.00000000
     atom    3 type  2   force =     0.00000000    0.00000000    0.00000000
     atom    4 type  1   force =     0.00000000    0.00000000    0.00000000
     atom    5 type  2   force =     0.00000000    0.00000000    0.00000000
     atom    6 type  2   force =     0.00000000    0.00000000    0.00000000
     atom    7 type  1   force =     0.00000000    0.00000000    0.00000000
     atom    8 type  2   force =     0.00000000    0.00000000    0.00000000
     atom    9 type  2   force =     0.00000000    0.00000000    0.00000000
     atom   10 type  1   force =     0.00000000    0.00000000    0.00000000
     atom   11 type  2   force =     0.00000000    0.00000000    0.00000000
     atom   12 type  2   force =     0.00000000    0.00000000    0.00000000
     atom   13 type  1   force =     0.00000000    0.00000000    0.00000000
     atom   14 type  2   force =     0.00000000    0.00000000    0.00000000
     atom   15 type  2   force =     0.00000000    0.00000000    0.00000000
     atom   16 type  1   force =     0.00000000    0.00000000    0.00000000
     atom   17 type  2   force =     0.00000000    0.00000000    0.00000000
     atom   18 type  2   force =     0.00000000    0.00000000    0.00000000
     atom   19 type  1   force =     0.00000000    0.00000000    0.00000000
     atom   20 type  2   force =     0.00000000    0.00000000    0.00000000
     atom   21 type  1   force =     0.00000000    0.00000000    0.00000000
     atom   22 type  2   force =     0.00000000    0.00000000    0.00000000
     atom   23 type  2   force =     0.00000000    0.00000000    0.00000000
     atom   24 type  1   force =     0.00000000    0.00000000    0.00000000
     atom   25 type  2   force =     0.00000000    0.00000000    0.00000000
     atom   26 type  2   force =     0.00000000    0.00000000    0.00000000
     atom   27 type  1   force =     0.00000000    0.00000000    0.00000000
     atom   28 type  2   force =     0.00000000    0.00000000    0.00000000
     atom   29 type  2   force =     0.00000000    0.00000000    0.00000000
     atom   30 type  1   force =     0.00000000    0.00000000    0.00000000
     atom   31 type  2   force =     0.00000000    0.00000000    0.00000000
     atom   32 type  2   force =     0.00000000    0.00000000    0.00000000
     atom   33 type  1   force =     0.00000000    0.00000000    0.00000000
     atom   34 type  2   force =     0.00000000    0.00000000    0.00000000
     atom   35 type  2   force =     0.00000000    0.00000000    0.00000000
     atom   36 type  3   force =     0.00000000    0.00000000    0.00000000
     The SCF correction term to forces
     atom    1 type  1   force =    -0.00000137   -0.00001445    0.00004779
     atom    2 type  2   force =     0.00000562   -0.00000772    0.00003167
     atom    3 type  2   force =    -0.00000110   -0.00001615    0.00001419
     atom    4 type  1   force =    -0.00002229    0.00005336    0.00002993
     atom    5 type  2   force =     0.00000758    0.00001351    0.00002853
     atom    6 type  2   force =     0.00000173    0.00002825   -0.00000315
     atom    7 type  1   force =    -0.00000608    0.00000461    0.00001160
     atom    8 type  2   force =     0.00000963   -0.00000288    0.00002462
     atom    9 type  2   force =    -0.00000227    0.00000192   -0.00000630
     atom   10 type  1   force =     0.00000186   -0.00001552    0.00002685
     atom   11 type  2   force =     0.00000283   -0.00000520    0.00001819
     atom   12 type  2   force =    -0.00000287   -0.00001853   -0.00000204
     atom   13 type  1   force =    -0.00000311    0.00000055    0.00003844
     atom   14 type  2   force =     0.00000181   -0.00000183    0.00002735
     atom   15 type  2   force =    -0.00000466   -0.00000870    0.00000084
     atom   16 type  1   force =    -0.00000148    0.00003093    0.00003484
     atom   17 type  2   force =    -0.00000691    0.00000929    0.00002165
     atom   18 type  2   force =    -0.00000493    0.00001800    0.00000394
     atom   19 type  1   force =    -0.00000109    0.00001042    0.00001279
     atom   20 type  2   force =    -0.00000076    0.00001424   -0.00000565
     atom   21 type  1   force =    -0.00000604   -0.00004984    0.00003340
     atom   22 type  2   force =    -0.00000711   -0.00000290    0.00001227
     atom   23 type  2   force =     0.00000082   -0.00001675    0.00000303
     atom   24 type  1   force =    -0.00000432   -0.00002497    0.00005794
     atom   25 type  2   force =    -0.00000320   -0.00000791    0.00003043
     atom   26 type  2   force =     0.00000644   -0.00001513    0.00000266
     atom   27 type  1   force =     0.00003614    0.00005209    0.00002424
     atom   28 type  2   force =    -0.00000520    0.00001651    0.00005218
     atom   29 type  2   force =    -0.00000383    0.00001636   -0.00001253
     atom   30 type  1   force =    -0.00001039   -0.00000678    0.00002862
     atom   31 type  2   force =    -0.00000237   -0.00000062    0.00002818
     atom   32 type  2   force =     0.00000278    0.00000068   -0.00000246
     atom   33 type  1   force =     0.00000177   -0.00004211    0.00004140
     atom   34 type  2   force =     0.00000594   -0.00000467    0.00002622
     atom   35 type  2   force =     0.00000293   -0.00001334    0.00000249
     atom   36 type  3   force =    -0.00002618    0.00003694    0.00008692

     Total force =     0.004900     Total SCF correction =     0.000228
     Energy error            =      6.5E-05 Ry
     Gradient error          =      1.3E-03 Ry/Bohr

     bfgs converged in  25 scf cycles and  24 bfgs steps
     (criteria: energy <  1.0E-04 Ry, force <  1.0E-02 Ry/Bohr)

     End of BFGS Geometry Optimization

     Final energy             =   -2246.4528300287 Ry

     File ./MoS2-V-O.bfgs deleted, as requested
Begin final coordinates

ATOMIC_POSITIONS (angstrom)
Mo            6.5857541767        1.7934062223        2.7596325303
S             8.1524059496        0.8844919166        4.3764471871
S             8.1503245122        0.8624678985        1.1701149665
Mo            8.1176113714        4.5516315355        2.6863315426
S             6.5464752255        3.7117032169        4.2994900004
S             6.5666149108        3.5872244840        1.0944713360
Mo            6.5437594356        7.2223604496        2.6615226320
S             8.1060830046        6.3394038031        4.2968306788
S             8.1642300453        6.3794931401        1.0929502108
Mo            8.1553323747        9.9716450410        2.7768797080
S             6.5467267780        8.9755386585        4.3321179009
S             6.6106185035        9.0728862399        1.1320202752
Mo            3.4499985281        1.7918357368        2.7643054603
S             5.0206622155        0.8550543302        4.3533708525
S             5.0176869967        0.8688558867        1.1764744488
Mo            5.0159462325        4.5626174820        2.6475640740
S             3.4837821003        3.7115450515        4.3007037983
S             3.4652349017        3.5844440847        1.0983025206
Mo            3.4943147367        7.2210149110        2.6715545226
S             5.0133382282        6.3511236073        1.0423537133
Mo            5.0193252641        9.9383442349        2.7431409340
S             3.4950300108        8.9770659298        4.3389132566
S             3.4267161119        9.0676826629        1.1385906457
Mo            0.2887864634        1.7407742733        2.7598507339
S             1.8807254525        0.8837440010        4.3800702369
S             1.8884159038        0.8618822049        1.1746765061
Mo            1.9129677400        4.5530606486        2.6918446385
S             0.2813249811        3.6490417208        4.2157036816
S             0.2904556554        3.5877983617        1.1580239825
Mo            0.2907446970        7.2476094939        2.7362955792
S             1.9267565184        6.3389163687        4.3054395845
S             1.8767905561        6.3809752175        1.0984690734
Mo            1.8840287405        9.9709278118        2.7812831155
S             0.2901225554        9.0555556768        4.3679559329
S             0.2938527615        9.0925703550        1.1837637358
O             0.2701544837        3.6935426416        5.7128798757
End final coordinates



     Writing all to output data dir ./MoS2-V-O.save/
 
     init_run     :      4.55s CPU      5.05s WALL (       1 calls)
     electrons    :   2563.08s CPU   2921.06s WALL (      25 calls)
     update_pot   :     77.71s CPU     83.36s WALL (      24 calls)
     forces       :     76.06s CPU     88.37s WALL (      25 calls)

     Called by init_run:
     wfcinit      :      0.48s CPU      0.53s WALL (       1 calls)
     potinit      :      2.33s CPU      2.57s WALL (       1 calls)
     hinit0       :      0.44s CPU      0.47s WALL (       1 calls)

     Called by electrons:
     c_bands      :    347.61s CPU    355.68s WALL (     239 calls)
     sum_band     :    145.74s CPU    209.37s WALL (     239 calls)
     v_of_rho     :    307.54s CPU    370.92s WALL (     255 calls)
     newd         :     93.88s CPU    144.51s WALL (     255 calls)
     PAW_pot      :     10.04s CPU     10.08s WALL (     279 calls)
     mix_rho      :   1688.88s CPU   1865.48s WALL (     239 calls)

     Called by c_bands:
     init_us_2    :      5.47s CPU      5.85s WALL (     503 calls)
     init_us_2:cp :      5.46s CPU      5.85s WALL (     503 calls)
     regterg      :    329.87s CPU    337.48s WALL (     239 calls)

     Called by *egterg:
     rdiaghg      :     22.01s CPU     22.27s WALL (    1256 calls)
     h_psi        :    214.02s CPU    215.89s WALL (    1290 calls)
     s_psi        :     19.68s CPU     19.75s WALL (    1290 calls)
     g_psi        :      1.20s CPU      1.21s WALL (    1050 calls)

     Called by h_psi:
     h_psi:calbec :     22.38s CPU     22.55s WALL (    1290 calls)
     vloc_psi     :    169.40s CPU    170.94s WALL (    1290 calls)
     add_vuspsi   :     19.56s CPU     19.68s WALL (    1290 calls)

     General routines
     calbec       :     32.32s CPU     32.57s WALL (    1653 calls)
     fft          :    204.34s CPU    227.94s WALL (   17013 calls)
     ffts         :    751.46s CPU    921.64s WALL (  410589 calls)
     fftw         :    111.79s CPU    112.72s WALL (  145448 calls)
     interpolate  :      3.16s CPU      3.62s WALL (     255 calls)
 
     Parallel routines
 
     PWSCF        :  45m33.69s CPU  51m56.38s WALL

 
   This run was terminated on:  17: 3:58   1Nov2023            

=------------------------------------------------------------------------------=
   JOB DONE.
=------------------------------------------------------------------------------=
