
     Program PWSCF v.7.2 starts on  1Nov2023 at 13:27:26 

     This program is part of the open-source Quantum ESPRESSO suite
     for quantum simulation of materials; please cite
         "P. Giannozzi et al., J. Phys.:Condens. Matter 21 395502 (2009);
         "P. Giannozzi et al., J. Phys.:Condens. Matter 29 465901 (2017);
         "P. Giannozzi et al., J. Chem. Phys. 152 154105 (2020);
          URL http://www.quantum-espresso.org", 
     in publications or presentations arising from this work. More details at
     http://www.quantum-espresso.org/quote

     Parallel version (MPI & OpenMP), running on      48 processor cores
     Number of MPI processes:                48
     Threads/MPI process:                     1

     MPI processes distributed on     1 nodes
     11973 MiB available memory on the printing compute node when the environment starts
 
     Waiting for input...
     Reading input from standard input
Warning: card &CELL ignored
Warning: card CELL_DYNAMICS = 'BFGS', ignored
Warning: card CELL_DOFREE = '2DXY' ignored
Warning: card / ignored

     Current dimensions of program PWSCF are:
     Max number of different atomic species (ntypx) = 10
     Max number of k-points (npk) =  40000
     Max angular momentum in pseudopotentials (lmaxx) =  4
     file O.pbe-n-kjpaw_psl.0.1.UPF: wavefunction(s)  2P renormalized

     IMPORTANT: XC functional enforced from input :
     Exchange-correlation= RVV10
                           (   1   4  13   4  26   0   0)
     Any further DFT definition will be discarded
     Please, verify this is what you really want


     gamma-point specific algorithms are used
     signal trapping enabled: kill the code with -SIGUSR1 to stop cleanly the simulation 
 
     R & G space division:  proc/nbgrp/npool/nimage =      48
     Subspace diagonalization in iterative solution of the eigenvalue problem:
     one sub-group per band group will be used
     scalapack distributed-memory algorithm (size of sub-group:  2*  2 procs)

 
     Parallelization info
     --------------------
     sticks:   dense  smooth     PW     G-vecs:    dense   smooth      PW
     Min         396     194     47               101632    35090    4376
     Max         398     196     50               101674    35128    4410
     Sum       19091    9389   2349              4879585  1685513  210763
 
     Using Slab Decomposition
 


     bravais-lattice index     =            0
     lattice parameter (alat)  =      17.8707  a.u.
     unit-cell volume          =   17436.2743 (a.u.)^3
     number of atoms/cell      =           36
     number of atomic types    =            3
     number of electrons       =       312.00
     number of Kohn-Sham states=          187
     kinetic-energy cutoff     =      80.0000  Ry
     charge density cutoff     =     650.0000  Ry
     scf convergence threshold =      1.0E-06
     mixing beta               =       0.7000
     number of iterations used =            8  local-TF  mixing
     energy convergence thresh.=      1.0E-04
     force convergence thresh. =      1.0E-02
     Exchange-correlation= RVV10
                           (   1   4  13   4  26   0   0)
     nstep                     =          200


     celldm(1)=  17.870686  celldm(2)=   0.000000  celldm(3)=   0.000000
     celldm(4)=   0.000000  celldm(5)=   0.000000  celldm(6)=   0.000000

     crystal axes: (cart. coord. in units of alat)
               a(1) = (   1.000000   0.000000   0.000000 )  
               a(2) = (   0.000000   1.155671   0.000000 )  
               a(3) = (   0.000000   0.000000   2.643601 )  

     reciprocal axes: (cart. coord. in units 2 pi/alat)
               b(1) = (  1.000000  0.000000  0.000000 )  
               b(2) = (  0.000000  0.865298  0.000000 )  
               b(3) = (  0.000000  0.000000  0.378272 )  


     PseudoPot. # 1 for Mo read from file:
     ../pseudo/Mo_ONCV_PBE-1.0.oncvpsp.upf
     MD5 check sum: 1b5d28e075c9ccadda658a603575cd1f
     Pseudo is Norm-conserving, Zval = 14.0
     Generated using ONCVPSP code by D. R. Hamann
     Using radial grid of 1526 points,  6 beta functions with: 
                l(1) =   0
                l(2) =   0
                l(3) =   1
                l(4) =   1
                l(5) =   2
                l(6) =   2

     PseudoPot. # 2 for S  read from file:
     ../pseudo/s_pbe_v1.4.uspp.F.UPF
     MD5 check sum: 88d86576ff6df21479756cfb9bdac1df
     Pseudo is Ultrasoft + core correction, Zval =  6.0
     Generated by new atomic code, or converted to UPF format
     Using radial grid of  907 points,  6 beta functions with: 
                l(1) =   0
                l(2) =   0
                l(3) =   1
                l(4) =   1
                l(5) =   2
                l(6) =   2
     Q(r) pseudized with  8 coefficients,  rinner =    1.300   1.300   1.300
                                                       1.300   1.300

     PseudoPot. # 3 for O  read from file:
     ../pseudo/O.pbe-n-kjpaw_psl.0.1.UPF
     MD5 check sum: 0234752ac141de4415c5fc33072bef88
     Pseudo is Projector augmented-wave + core cor, Zval =  6.0
     Generated using "atomic" code by A. Dal Corso  v.5.0.99 svn rev. 10869
     Shape of augmentation charge: BESSEL
     Using radial grid of 1095 points,  4 beta functions with: 
                l(1) =   0
                l(2) =   0
                l(3) =   1
                l(4) =   1
     Q(r) pseudized with 0 coefficients 


     atomic species   valence    mass     pseudopotential
        Mo            14.00    95.94000     Mo( 1.00)
        S              6.00    32.06500     S ( 1.00)
        O              6.00    15.99940     O ( 1.00)

     No symmetry found



   Cartesian axes

     site n.     atom                  positions (alat units)
         1           Mo  tau(   1) = (   0.6952221   0.1890506   0.2985846  )
         2           S   tau(   2) = (   0.8646417   0.0856217   0.4689279  )
         3           S   tau(   3) = (   0.8663890   0.0857843   0.1351291  )
         4           Mo  tau(   4) = (   0.8560186   0.4753274   0.2873942  )
         5           S   tau(   5) = (   0.6873294   0.3936244   0.4596353  )
         6           S   tau(   6) = (   0.6929804   0.3713468   0.1185692  )
         7           Mo  tau(   7) = (   0.6862796   0.7633098   0.2825370  )
         8           S   tau(   8) = (   0.8545980   0.6708292   0.4486168  )
         9           S   tau(   9) = (   0.8545123   0.6666874   0.1146125  )
        10           Mo  tau(  10) = (   0.8629403   1.0471007   0.3006803  )
        11           S   tau(  11) = (   0.6868280   0.9456650   0.4634891  )
        12           S   tau(  12) = (   0.6998113   0.9568511   0.1205389  )
        13           Mo  tau(  13) = (   0.3618216   0.1847309   0.2935964  )
        14           S   tau(  14) = (   0.5260962   0.0863870   0.4600448  )
        15           S   tau(  15) = (   0.5348379   0.0894875   0.1297123  )
        16           Mo  tau(  16) = (   0.5265817   0.4772436   0.2784130  )
        17           S   tau(  17) = (   0.3624753   0.3882513   0.4525556  )
        18           S   tau(  18) = (   0.3635411   0.3752055   0.1119148  )
        19           Mo  tau(  19) = (   0.3652268   0.7630864   0.2781795  )
        20           S   tau(  20) = (   0.5269494   0.6690381   0.1096838  )
        21           Mo  tau(  21) = (   0.5300192   1.0470394   0.2900995  )
        22           S   tau(  22) = (   0.3670346   0.9457522   0.4574073  )
        23           S   tau(  23) = (   0.3604225   0.9585725   0.1159032  )
        24           Mo  tau(  24) = (   0.0313099   0.1847895   0.3013130  )
        25           S   tau(  25) = (   0.1956761   0.0838230   0.4650863  )
        26           S   tau(  26) = (   0.1967693   0.0903508   0.1278874  )
        27           Mo  tau(  27) = (   0.1967578   0.4753919   0.2813011  )
        28           S   tau(  28) = (   0.0287851   0.3864324   0.4586755  )
        29           S   tau(  29) = (   0.0244514   0.3729871   0.1239344  )
        30           Mo  tau(  30) = (   0.0286728   0.7631204   0.2856894  )
        31           S   tau(  31) = (   0.2011512   0.6675435   0.4465001  )
        32           S   tau(  32) = (   0.1969214   0.6672839   0.1104564  )
        33           Mo  tau(  33) = (   0.1950294   1.0511147   0.2932237  )
        34           S   tau(  34) = (   0.0312912   0.9612169   0.4667423  )
        35           S   tau(  35) = (   0.0292670   0.9563028   0.1216485  )
        36           O   tau(  36) = (   0.3333333   0.2568157   0.5650415  )

     number of k points=     1  Gaussian smearing, width (Ry)=  0.0100
                       cart. coord. in units 2pi/alat
        k(    1) = (   0.0000000   0.0000000   0.0000000), wk =   2.0000000

     Dense  grid:  2439793 G-vectors     FFT dimensions: ( 150, 180, 384)

     Smooth grid:   842757 G-vectors     FFT dimensions: ( 108, 120, 270)

     Estimated max dynamical RAM per process >     269.22 MB

     Estimated total dynamical RAM >      12.62 GB

     Initial potential from superposition of free atoms

     starting charge     311.9873, renormalised to     312.0000

     negative rho (up, down):  2.756E-04 0.000E+00


---------------------------------------------------------------------------------
Carrying out rVV10 run using the following parameters:
Nqs =      20    Nr_points =    1024   r_max =   100.000
b_value =  6.30000    beta =  0.00901
     q_mesh =  0.00010000  0.00030000  0.00058939  0.00100810
               0.00161396  0.00249058  0.00375900  0.00559430
               0.00824984  0.01209221  0.01765183  0.02569619
               0.03733578  0.05417739  0.07854596  0.11380545
               0.16482331  0.23864234  0.34545298  0.50000000

Gradients computed in Reciprocal space

---------------------------------------------------------------------------------


     Starting wfcs are  216 randomized atomic wfcs
     Checking if some PAW data can be deallocated... 

     total cpu time spent up to now is        5.5 secs

     Self-consistent Calculation

     iteration #  1     ecut=    80.00 Ry     beta= 0.70
     Davidson diagonalization with overlap
     ethr =  1.00E-02,  avg # of iterations =  2.0

     Threshold (ethr) on eigenvalues was too large:
     Diagonalizing with lowered threshold

     Davidson diagonalization with overlap
     ethr =  4.37E-04,  avg # of iterations =  3.0

     negative rho (up, down):  3.428E-08 0.000E+00

     total cpu time spent up to now is       20.5 secs

     total energy              =   -2246.22920334 Ry
     estimated scf accuracy    <       1.61083299 Ry

     iteration #  2     ecut=    80.00 Ry     beta= 0.70
     Davidson diagonalization with overlap
     ethr =  5.16E-04,  avg # of iterations =  3.0

     total cpu time spent up to now is       25.7 secs

     total energy              =   -2246.22820957 Ry
     estimated scf accuracy    <       0.86254231 Ry

     iteration #  3     ecut=    80.00 Ry     beta= 0.70
     Davidson diagonalization with overlap
     ethr =  2.76E-04,  avg # of iterations =  5.0

     total cpu time spent up to now is       29.7 secs

     total energy              =   -2246.21750271 Ry
     estimated scf accuracy    <       0.30224025 Ry

     iteration #  4     ecut=    80.00 Ry     beta= 0.70
     Davidson diagonalization with overlap
     ethr =  9.69E-05,  avg # of iterations =  2.0

     total cpu time spent up to now is       33.7 secs

     total energy              =   -2246.25552698 Ry
     estimated scf accuracy    <       0.04489197 Ry

     iteration #  5     ecut=    80.00 Ry     beta= 0.70
     Davidson diagonalization with overlap
     ethr =  1.44E-05,  avg # of iterations = 15.0

     total cpu time spent up to now is       38.7 secs

     total energy              =   -2246.25905558 Ry
     estimated scf accuracy    <       0.01953517 Ry

     iteration #  6     ecut=    80.00 Ry     beta= 0.70
     Davidson diagonalization with overlap
     ethr =  6.26E-06,  avg # of iterations =  2.0

     total cpu time spent up to now is       42.5 secs

     total energy              =   -2246.25869571 Ry
     estimated scf accuracy    <       0.01288129 Ry

     iteration #  7     ecut=    80.00 Ry     beta= 0.70
     Davidson diagonalization with overlap
     ethr =  4.13E-06,  avg # of iterations =  2.0

     total cpu time spent up to now is       46.2 secs

     total energy              =   -2246.25778393 Ry
     estimated scf accuracy    <       0.00909079 Ry

     iteration #  8     ecut=    80.00 Ry     beta= 0.70
     Davidson diagonalization with overlap
     ethr =  2.91E-06,  avg # of iterations =  1.0

     negative rho (up, down):  1.145E-03 0.000E+00

     total cpu time spent up to now is       52.7 secs

     total energy              =   -2246.25616926 Ry
     estimated scf accuracy    <       0.00555565 Ry

     iteration #  9     ecut=    80.00 Ry     beta= 0.70
     Davidson diagonalization with overlap
     ethr =  1.78E-06,  avg # of iterations =  2.0

     negative rho (up, down):  1.621E-02 0.000E+00

     total cpu time spent up to now is       59.3 secs

     total energy              =   -2246.25602133 Ry
     estimated scf accuracy    <       0.00275446 Ry

     iteration # 10     ecut=    80.00 Ry     beta= 0.70
     Davidson diagonalization with overlap
     ethr =  8.83E-07,  avg # of iterations =  2.0

     negative rho (up, down):  2.319E-02 0.000E+00

     total cpu time spent up to now is       65.3 secs

     total energy              =   -2246.25597507 Ry
     estimated scf accuracy    <       0.00129446 Ry

     iteration # 11     ecut=    80.00 Ry     beta= 0.70
     Davidson diagonalization with overlap
     ethr =  4.15E-07,  avg # of iterations =  2.0

     negative rho (up, down):  1.926E-02 0.000E+00

     total cpu time spent up to now is       72.6 secs

     total energy              =   -2246.25602501 Ry
     estimated scf accuracy    <       0.00041147 Ry

     iteration # 12     ecut=    80.00 Ry     beta= 0.70
     Davidson diagonalization with overlap
     ethr =  1.32E-07,  avg # of iterations =  5.0

     negative rho (up, down):  6.595E-03 0.000E+00

     total cpu time spent up to now is       80.2 secs

     total energy              =   -2246.25601069 Ry
     estimated scf accuracy    <       0.00007117 Ry

     iteration # 13     ecut=    80.00 Ry     beta= 0.70
     Davidson diagonalization with overlap
     ethr =  2.28E-08,  avg # of iterations =  7.0

     negative rho (up, down):  1.916E-03 0.000E+00

     total cpu time spent up to now is       89.6 secs

     total energy              =   -2246.25606037 Ry
     estimated scf accuracy    <       0.00001467 Ry

     iteration # 14     ecut=    80.00 Ry     beta= 0.70
     Davidson diagonalization with overlap
     ethr =  4.70E-09,  avg # of iterations =  2.0

     negative rho (up, down):  6.888E-04 0.000E+00

     total cpu time spent up to now is      100.4 secs

     total energy              =   -2246.25606785 Ry
     estimated scf accuracy    <       0.00000336 Ry

     iteration # 15     ecut=    80.00 Ry     beta= 0.70
     Davidson diagonalization with overlap
     ethr =  1.08E-09,  avg # of iterations =  5.0

     negative rho (up, down):  3.063E-04 0.000E+00

     total cpu time spent up to now is      108.7 secs

     total energy              =   -2246.25607227 Ry
     estimated scf accuracy    <       0.00000142 Ry

     iteration # 16     ecut=    80.00 Ry     beta= 0.70
     Davidson diagonalization with overlap
     ethr =  4.54E-10,  avg # of iterations =  3.0

     negative rho (up, down):  1.935E-04 0.000E+00

     total cpu time spent up to now is      112.4 secs

     End of self-consistent calculation

          k = 0.0000 0.0000 0.0000 (105382 PWs)   bands (ev):

   -62.9969 -62.9839 -62.9732 -62.9546 -62.9350 -62.9201 -62.9000 -62.8831
   -62.8741 -62.8553 -62.8247 -62.7810 -37.3270 -37.2914 -37.2553 -37.2428
   -37.2210 -37.2030 -37.1938 -37.1921 -37.1766 -37.1568 -37.1492 -37.1389
   -37.1300 -37.1251 -37.1155 -37.1059 -37.0864 -37.0830 -37.0786 -37.0624
   -37.0569 -37.0376 -37.0236 -37.0084 -37.0025 -37.0006 -36.9922 -36.9829
   -36.9744 -36.9554 -36.9407 -36.9305 -36.9004 -36.8551 -36.8480 -36.7905
   -21.2552 -15.9951 -15.2948 -15.1908 -15.0108 -14.9774 -14.8127 -14.6842
   -14.5410 -14.4933 -14.4674 -14.4541 -14.4089 -14.3933 -14.3107 -14.2350
   -14.2079 -14.1817 -14.1011 -13.9647 -13.9464 -13.9239 -13.8914 -13.8681
    -8.1049  -7.7897  -7.7093  -7.5443  -7.4824  -7.3306  -7.2783  -7.2394
    -7.2012  -6.9895  -6.9098  -6.8377  -6.7968  -6.7359  -6.6707  -6.6369
    -6.5560  -6.4908  -6.4024  -6.3202  -6.1267  -6.0999  -5.9895  -5.9176
    -5.8773  -5.8347  -5.8015  -5.7575  -5.7406  -5.7178  -5.6573  -5.6143
    -5.6035  -5.4990  -5.4560  -5.2827  -5.2603  -5.1831  -5.1185  -5.0971
    -5.0403  -5.0106  -4.9649  -4.8840  -4.7990  -4.6220  -4.4551  -4.4016
    -4.3266  -4.3208  -4.1678  -4.1550  -4.0826  -3.9940  -3.9476  -3.8782
    -3.7995  -3.7344  -3.6999  -3.6641  -3.6416  -3.5889  -3.5463  -3.5146
    -3.4768  -3.4604  -3.3310  -3.3130  -3.1658  -3.0217  -2.9435  -2.9240
    -2.8718  -2.8300  -2.7619  -2.7369  -2.7190  -2.7043  -2.5754  -2.3510
    -2.1241  -1.9982  -1.9810  -1.5716  -1.2121  -0.7580  -0.6905  -0.2449
    -0.2212  -0.1758  -0.0913  -0.0286   0.0930   0.1181   0.1554   0.2012
     0.2532   0.3025   0.3718   0.4303   0.4457   0.4845   0.4985   0.5500
     0.5894   0.6535   0.6787   0.6973   0.7602   0.7834   0.8361   0.8798
     0.9238   1.0664   1.1379

     the Fermi energy is    -1.3918 ev

!    total energy              =   -2246.25607062 Ry
     estimated scf accuracy    <       0.00000045 Ry
     smearing contrib. (-TS)   =      -0.00196948 Ry
     internal energy E=F+TS    =   -2246.25410114 Ry

     The total energy is F=E-TS. E is the sum of the following terms:
     one-electron contribution =  -18457.97722945 Ry
     hartree contribution      =    9217.05816295 Ry
     xc contribution           =    -392.01673347 Ry
     ewald contribution        =    7396.54933289 Ry
     one-center paw contrib.   =      -9.86763408 Ry

     convergence has been achieved in  16 iterations

     negative rho (up, down):  1.935E-04 0.000E+00

     Forces acting on atoms (cartesian axes, Ry/au):

     atom    1 type  1   force =     0.00611003   -0.02157059    0.00352961
     atom    2 type  2   force =    -0.01541643    0.01640785    0.00097756
     atom    3 type  2   force =    -0.01213892    0.00743518   -0.00382217
     atom    4 type  1   force =     0.00857837    0.00138582    0.00551486
     atom    5 type  2   force =     0.00430286   -0.00369822   -0.00836127
     atom    6 type  2   force =     0.00059656    0.01202422   -0.00350423
     atom    7 type  1   force =     0.00092433   -0.00732717   -0.00894734
     atom    8 type  2   force =     0.00080080   -0.00362936    0.01794591
     atom    9 type  2   force =     0.01158714    0.00580076    0.01236086
     atom   10 type  1   force =    -0.01137800    0.00865025   -0.02768883
     atom   11 type  2   force =     0.00444643   -0.00001569   -0.00644938
     atom   12 type  2   force =    -0.00003491    0.00151299    0.00555421
     atom   13 type  1   force =     0.01507908   -0.02220864   -0.05736363
     atom   14 type  2   force =     0.01880394   -0.01810073    0.00295973
     atom   15 type  2   force =    -0.01792207    0.00327410   -0.00984044
     atom   16 type  1   force =     0.01554542   -0.00731400    0.01255177
     atom   17 type  2   force =    -0.02061954   -0.02529737    0.05149079
     atom   18 type  2   force =    -0.00354001   -0.00615446    0.01393497
     atom   19 type  1   force =     0.00280440   -0.01756095   -0.00653286
     atom   20 type  2   force =     0.00372483   -0.00454641   -0.00049433
     atom   21 type  1   force =     0.00488850    0.00096335    0.00069890
     atom   22 type  2   force =    -0.00384983    0.00023363   -0.00282071
     atom   23 type  2   force =     0.00030500    0.00075221    0.00876594
     atom   24 type  1   force =    -0.00299801    0.00299333   -0.01853853
     atom   25 type  2   force =    -0.00361134   -0.01569660   -0.01724506
     atom   26 type  2   force =    -0.00636276   -0.00047704   -0.00382805
     atom   27 type  1   force =    -0.01741136   -0.01098644    0.01479010
     atom   28 type  2   force =    -0.00132074    0.00012598   -0.00645047
     atom   29 type  2   force =     0.00658876   -0.00180268   -0.00403912
     atom   30 type  1   force =    -0.00342251    0.00801551   -0.00638099
     atom   31 type  2   force =    -0.00264579    0.00759919    0.01677517
     atom   32 type  2   force =    -0.00731320    0.01173125    0.00691379
     atom   33 type  1   force =     0.00010424   -0.01318278   -0.01136469
     atom   34 type  2   force =     0.00440615   -0.04019601   -0.00853586
     atom   35 type  2   force =    -0.00724662    0.00681635    0.01599916
     atom   36 type  3   force =     0.02763518    0.12404317    0.02144466
     The non-local contrib.  to forces
     atom    1 type  1   force =     0.00462003    0.02319495   -0.01066212
     atom    2 type  2   force =    -0.01186827    0.00801622   -0.26973732
     atom    3 type  2   force =    -0.01452771   -0.00049497    0.27211832
     atom    4 type  1   force =    -0.00032826    0.01059672    0.00655675
     atom    5 type  2   force =     0.00310710   -0.03297335   -0.26145178
     atom    6 type  2   force =    -0.00274776    0.02107993    0.25957876
     atom    7 type  1   force =    -0.01668089    0.00017178   -0.01785298
     atom    8 type  2   force =     0.00442636   -0.00548171   -0.25720050
     atom    9 type  2   force =     0.00677349   -0.00922139    0.27723680
     atom   10 type  1   force =     0.00600084    0.00191233   -0.00345713
     atom   11 type  2   force =     0.01277754    0.00647488   -0.26001984
     atom   12 type  2   force =    -0.01150820   -0.01703440    0.26316688
     atom   13 type  1   force =    -0.00507331    0.01137596   -0.01811565
     atom   14 type  2   force =     0.05075163   -0.02862265   -0.26451854
     atom   15 type  2   force =    -0.01872104   -0.00117301    0.26617016
     atom   16 type  1   force =    -0.00180103    0.02510181   -0.03029348
     atom   17 type  2   force =    -0.08391628   -0.39623025    0.15350639
     atom   18 type  2   force =    -0.00204510   -0.00034922    0.27084520
     atom   19 type  1   force =     0.01412356    0.01909847   -0.01495294
     atom   20 type  2   force =     0.00056888   -0.02315329    0.26670518
     atom   21 type  1   force =     0.00513740    0.03146659    0.00533563
     atom   22 type  2   force =    -0.00818108   -0.00330578   -0.25762295
     atom   23 type  2   force =     0.01058873   -0.01688723    0.26501310
     atom   24 type  1   force =    -0.00277192    0.00071458   -0.00702807
     atom   25 type  2   force =    -0.01731590    0.00961450   -0.25260235
     atom   26 type  2   force =     0.00302079   -0.00839686    0.26384526
     atom   27 type  1   force =     0.01320313    0.00784960    0.01096133
     atom   28 type  2   force =    -0.00753237   -0.01854963   -0.28290093
     atom   29 type  2   force =     0.01150036    0.01155958    0.26017657
     atom   30 type  1   force =    -0.00272532    0.02145496    0.01039562
     atom   31 type  2   force =    -0.00332526    0.00913468   -0.25196886
     atom   32 type  2   force =    -0.00226575   -0.00894178    0.27232642
     atom   33 type  1   force =    -0.00809368    0.01996073    0.01044496
     atom   34 type  2   force =     0.00262583   -0.03272538   -0.27402292
     atom   35 type  2   force =    -0.00273515   -0.01161098    0.27116359
     atom   36 type  3   force =     0.25762289    1.39467405   -1.07257091
     The ionic contribution  to forces
     atom    1 type  1   force =     1.53345675   -0.13321246    3.77372771
     atom    2 type  2   force =    -0.82191281    0.05069507   38.99857566
     atom    3 type  2   force =    -0.20327291   -0.11372488  -36.72007288
     atom    4 type  1   force =    -0.03154795    1.17741968   -0.65540074
     atom    5 type  2   force =    -0.09023516    1.98215373   38.28057313
     atom    6 type  2   force =     0.50218636   -0.39505753  -38.74887683
     atom    7 type  1   force =    -2.37751884   -2.52884948    1.59252216
     atom    8 type  2   force =    -1.01966889    0.29388432   37.17686789
     atom    9 type  2   force =     0.33053988    0.07120612  -38.50255783
     atom   10 type  1   force =    -1.19368421   -0.86761754    4.63475917
     atom   11 type  2   force =    -0.38707250   -1.84640852   38.95067379
     atom   12 type  2   force =     0.50027388    0.59996045  -38.35231137
     atom   13 type  1   force =     1.08904021   -0.61400546   -3.70619134
     atom   14 type  2   force =     1.89118146   -1.71214459   37.36996074
     atom   15 type  2   force =     0.37317496   -0.28777924  -37.70835086
     atom   16 type  1   force =     1.09893534    5.38715372   -2.00017309
     atom   17 type  2   force =     2.00016430    6.90842231   33.19856345
     atom   18 type  2   force =    -0.11419133   -0.43896282  -39.68367334
     atom   19 type  1   force =     2.78394029   -1.99422375   -0.59108568
     atom   20 type  2   force =     0.31182375   -0.03644191  -39.06533027
     atom   21 type  1   force =     0.60260666   -1.01915100   -0.34457721
     atom   22 type  2   force =     0.51415131   -2.24601971   38.13552415
     atom   23 type  2   force =    -0.07253783    0.51494594  -38.88767407
     atom   24 type  1   force =    -2.20042295    0.62082666    3.44031821
     atom   25 type  2   force =    -1.38214033   -2.35141216   37.65346967
     atom   26 type  2   force =    -0.46762809   -0.19025562  -38.32641833
     atom   27 type  1   force =    -1.00522009    2.18177444   -5.17245282
     atom   28 type  2   force =    -1.23222810    1.66592177   37.57119194
     atom   29 type  2   force =    -0.46934272   -0.30279296  -38.05303719
     atom   30 type  1   force =    -0.63049174   -0.61775299   -1.04340891
     atom   31 type  2   force =     0.96659394    0.66568921   36.95745467
     atom   32 type  2   force =    -0.54927674    0.17167407  -39.24631849
     atom   33 type  1   force =     0.29557550   -2.13353085    0.39635644
     atom   34 type  2   force =     0.00548277   -1.76557445   39.15124481
     atom   35 type  2   force =    -0.37517638    0.37392886  -38.33204639
     atom   36 type  3   force =    -0.17555776   -1.07073843   47.85817403
     The local contribution  to forces
     atom    1 type  1   force =    -1.53189700    0.08851629   -3.76028324
     atom    2 type  2   force =     0.81803953   -0.04179551  -38.74884364
     atom    3 type  2   force =     0.20501046    0.12180607   36.46470503
     atom    4 type  1   force =     0.04053984   -1.18670052    0.65356387
     atom    5 type  2   force =     0.09174824   -1.95473828  -38.04848989
     atom    6 type  2   force =    -0.49918221    0.38754882   38.50607382
     atom    7 type  1   force =     2.39509507    2.52119900   -1.58446156
     atom    8 type  2   force =     1.01621829   -0.29268535  -36.92251770
     atom    9 type  2   force =    -0.32557130   -0.05675084   38.25828499
     atom   10 type  1   force =     1.17632009    0.87443233   -4.65981019
     atom   11 type  2   force =     0.37936409    1.84048758  -38.71794650
     atom   12 type  2   force =    -0.48985113   -0.58277578   38.11506889
     atom   13 type  1   force =    -1.06894715    0.58062465    3.66624268
     atom   14 type  2   force =    -1.92032310    1.72152247  -37.12381721
     atom   15 type  2   force =    -0.37339027    0.29216817   37.45271778
     atom   16 type  1   force =    -1.08178595   -5.41954883    2.04229507
     atom   17 type  2   force =    -1.94164389   -6.56042423  -33.29853483
     atom   18 type  2   force =     0.11267916    0.43381849   39.44732738
     atom   19 type  1   force =    -2.79524652    1.95737881    0.59872100
     atom   20 type  2   force =    -0.30879536    0.05400044   38.81897559
     atom   21 type  1   force =    -0.60290302    0.98878021    0.33910598
     atom   22 type  2   force =    -0.51009648    2.24966098  -37.90143444
     atom   23 type  2   force =     0.06298793   -0.49869750   38.65171437
     atom   24 type  1   force =     2.20019889   -0.61843351   -3.45259756
     atom   25 type  2   force =     1.39413710    2.32605486  -37.43917267
     atom   26 type  2   force =     0.45869153    0.19781933   38.07923176
     atom   27 type  1   force =     0.97471361   -2.20070252    5.17556020
     atom   28 type  2   force =     1.23805261   -1.64872700  -37.31646546
     atom   29 type  2   force =     0.46529525    0.29048240   37.80884622
     atom   30 type  1   force =     0.62980678    0.60420670    1.02579052
     atom   31 type  2   force =    -0.96611285   -0.66707323  -36.70939693
     atom   32 type  2   force =     0.54439876   -0.15162304   39.00150690
     atom   33 type  1   force =    -0.28736318    2.10045389   -0.41897001
     atom   34 type  2   force =    -0.00390753    1.75709386  -38.90713688
     atom   35 type  2   force =     0.37070346   -0.35652438   38.09752969
     atom   36 type  3   force =    -0.05143713   -0.18373828  -46.77582511
     The core correction contribution to forces
     atom    1 type  1   force =     0.00000000    0.00000000    0.00000000
     atom    2 type  2   force =     0.00032712   -0.00044852    0.02075073
     atom    3 type  2   force =     0.00065684   -0.00011913   -0.02096986
     atom    4 type  1   force =     0.00000000    0.00000000    0.00000000
     atom    5 type  2   force =    -0.00036097    0.00181926    0.02082809
     atom    6 type  2   force =     0.00032307   -0.00157530   -0.02069535
     atom    7 type  1   force =     0.00000000    0.00000000    0.00000000
     atom    8 type  2   force =    -0.00014385    0.00063755    0.02056009
     atom    9 type  2   force =    -0.00012173    0.00057307   -0.02101886
     atom   10 type  1   force =     0.00000000    0.00000000    0.00000000
     atom   11 type  2   force =    -0.00060315   -0.00056353    0.02065812
     atom   12 type  2   force =     0.00107487    0.00136695   -0.02083482
     atom   13 type  1   force =     0.00000000    0.00000000    0.00000000
     atom   14 type  2   force =    -0.00282033    0.00121432    0.02114643
     atom   15 type  2   force =     0.00101016    0.00010167   -0.02080374
     atom   16 type  1   force =     0.00000000    0.00000000    0.00000000
     atom   17 type  2   force =     0.00474882    0.02291699   -0.00223954
     atom   18 type  2   force =    -0.00000865   -0.00067529   -0.02093218
     atom   19 type  1   force =     0.00000000    0.00000000    0.00000000
     atom   20 type  2   force =     0.00012382    0.00100795   -0.02125591
     atom   21 type  1   force =     0.00000000    0.00000000    0.00000000
     atom   22 type  2   force =     0.00024789   -0.00010634    0.02053284
     atom   23 type  2   force =    -0.00074718    0.00139767   -0.02074829
     atom   24 type  1   force =     0.00000000    0.00000000    0.00000000
     atom   25 type  2   force =     0.00172303    0.00011747    0.02086893
     atom   26 type  2   force =    -0.00045590    0.00040695   -0.02089840
     atom   27 type  1   force =     0.00000000    0.00000000    0.00000000
     atom   28 type  2   force =     0.00043504    0.00145612    0.02148818
     atom   29 type  2   force =    -0.00083115   -0.00107546   -0.02040870
     atom   30 type  1   force =     0.00000000    0.00000000    0.00000000
     atom   31 type  2   force =     0.00021066   -0.00022628    0.02045465
     atom   32 type  2   force =    -0.00019739    0.00058472   -0.02099063
     atom   33 type  1   force =     0.00000000    0.00000000    0.00000000
     atom   34 type  2   force =     0.00021718    0.00099084    0.02117088
     atom   35 type  2   force =    -0.00004594    0.00099618   -0.02108816
     atom   36 type  3   force =    -0.00293714   -0.01592172    0.01125538
     The Hubbard contrib.    to forces
     atom    1 type  1   force =     0.00000000    0.00000000    0.00000000
     atom    2 type  2   force =     0.00000000    0.00000000    0.00000000
     atom    3 type  2   force =     0.00000000    0.00000000    0.00000000
     atom    4 type  1   force =     0.00000000    0.00000000    0.00000000
     atom    5 type  2   force =     0.00000000    0.00000000    0.00000000
     atom    6 type  2   force =     0.00000000    0.00000000    0.00000000
     atom    7 type  1   force =     0.00000000    0.00000000    0.00000000
     atom    8 type  2   force =     0.00000000    0.00000000    0.00000000
     atom    9 type  2   force =     0.00000000    0.00000000    0.00000000
     atom   10 type  1   force =     0.00000000    0.00000000    0.00000000
     atom   11 type  2   force =     0.00000000    0.00000000    0.00000000
     atom   12 type  2   force =     0.00000000    0.00000000    0.00000000
     atom   13 type  1   force =     0.00000000    0.00000000    0.00000000
     atom   14 type  2   force =     0.00000000    0.00000000    0.00000000
     atom   15 type  2   force =     0.00000000    0.00000000    0.00000000
     atom   16 type  1   force =     0.00000000    0.00000000    0.00000000
     atom   17 type  2   force =     0.00000000    0.00000000    0.00000000
     atom   18 type  2   force =     0.00000000    0.00000000    0.00000000
     atom   19 type  1   force =     0.00000000    0.00000000    0.00000000
     atom   20 type  2   force =     0.00000000    0.00000000    0.00000000
     atom   21 type  1   force =     0.00000000    0.00000000    0.00000000
     atom   22 type  2   force =     0.00000000    0.00000000    0.00000000
     atom   23 type  2   force =     0.00000000    0.00000000    0.00000000
     atom   24 type  1   force =     0.00000000    0.00000000    0.00000000
     atom   25 type  2   force =     0.00000000    0.00000000    0.00000000
     atom   26 type  2   force =     0.00000000    0.00000000    0.00000000
     atom   27 type  1   force =     0.00000000    0.00000000    0.00000000
     atom   28 type  2   force =     0.00000000    0.00000000    0.00000000
     atom   29 type  2   force =     0.00000000    0.00000000    0.00000000
     atom   30 type  1   force =     0.00000000    0.00000000    0.00000000
     atom   31 type  2   force =     0.00000000    0.00000000    0.00000000
     atom   32 type  2   force =     0.00000000    0.00000000    0.00000000
     atom   33 type  1   force =     0.00000000    0.00000000    0.00000000
     atom   34 type  2   force =     0.00000000    0.00000000    0.00000000
     atom   35 type  2   force =     0.00000000    0.00000000    0.00000000
     atom   36 type  3   force =     0.00000000    0.00000000    0.00000000
     The SCF correction term to forces
     atom    1 type  1   force =    -0.00007064   -0.00006961    0.00072423
     atom    2 type  2   force =    -0.00000289   -0.00005964    0.00020911
     atom    3 type  2   force =    -0.00000648   -0.00003215    0.00037420
     atom    4 type  1   force =    -0.00008615    0.00006971    0.00077196
     atom    5 type  2   force =     0.00004276    0.00004018    0.00015616
     atom    6 type  2   force =     0.00001622    0.00002806    0.00039233
     atom    7 type  1   force =     0.00002810    0.00015130    0.00082200
     atom    8 type  2   force =    -0.00003201    0.00001559    0.00021310
     atom    9 type  2   force =    -0.00003408   -0.00000643    0.00039273
     atom   10 type  1   force =    -0.00001561   -0.00007710    0.00079629
     atom   11 type  2   force =    -0.00002043   -0.00000634    0.00016201
     atom   12 type  2   force =    -0.00002522   -0.00000447    0.00044160
     atom   13 type  1   force =     0.00005844   -0.00020403    0.00067765
     atom   14 type  2   force =     0.00001339   -0.00007051    0.00016528
     atom   15 type  2   force =     0.00000323   -0.00004372    0.00040318
     atom   16 type  1   force =     0.00019617   -0.00002093    0.00070024
     atom   17 type  2   force =     0.00002662    0.00001759    0.00017230
     atom   18 type  2   force =     0.00002503    0.00001414    0.00034487
     atom   19 type  1   force =    -0.00001382    0.00018529    0.00076173
     atom   20 type  2   force =     0.00000285    0.00004017    0.00038805
     atom   21 type  1   force =     0.00004657   -0.00013268    0.00081147
     atom   22 type  2   force =     0.00002764    0.00000424    0.00015668
     atom   23 type  2   force =     0.00001246   -0.00000689    0.00043780
     atom   24 type  1   force =    -0.00000291   -0.00011464    0.00074586
     atom   25 type  2   force =    -0.00001613   -0.00007151    0.00016833
     atom   26 type  2   force =     0.00000802   -0.00005107    0.00038864
     atom   27 type  1   force =    -0.00010890    0.00009181    0.00069837
     atom   28 type  2   force =    -0.00004881    0.00002448    0.00021277
     atom   29 type  2   force =    -0.00003386    0.00002353    0.00036095
     atom   30 type  1   force =    -0.00001311    0.00010661    0.00081875
     atom   31 type  2   force =    -0.00001317    0.00007458    0.00020862
     atom   32 type  2   force =     0.00002703    0.00003704    0.00036655
     atom   33 type  1   force =    -0.00001528   -0.00006679    0.00078090
     atom   34 type  2   force =    -0.00001298    0.00001889    0.00018522
     atom   35 type  2   force =     0.00000649    0.00002644    0.00041741
     atom   36 type  3   force =    -0.00005656   -0.00023269    0.00038825

     Total force =     0.186884     Total SCF correction =     0.003109

     BFGS Geometry Optimization
     Energy error            =      0.0E+00 Ry
     Gradient error          =      1.2E-01 Ry/Bohr

     number of scf cycles    =   1
     number of bfgs steps    =   0

     energy             new  =   -2246.2560706219 Ry

     new trust radius        =       0.1288808905 bohr
     new conv_thr            =       0.0000010000 Ry


ATOMIC_POSITIONS (angstrom)
Mo            6.5777816982        1.7763915637        2.8255108191
S             8.1685513166        0.8183866848        4.4350556570
S             8.1868094479        0.8151762745        1.2758608191
Mo            8.0997020445        4.4957902877        2.7207367329
S             6.5021862324        3.7204544721        4.3422360560
S             6.5536654856        3.5181004974        1.1194258668
Mo            6.4904708323        7.2145599144        2.6671497536
S             8.0821514907        6.3419504179        4.2519581320
S             8.0870492993        6.3077719488        1.0904040853
Mo            8.1545980687        9.9067579266        2.8288094626
S             6.4975205479        8.9429185119        4.3796926666
S             6.6179287268        9.0495118522        1.1428464641
Mo            3.4296391668        1.7352035430        2.7461156360
S             4.9851161052        0.8073627164        4.3520993157
S             5.0483498022        0.8479946855        1.2214511221
Mo            4.9879829616        4.5093076028        2.6395266607
S             3.4169302726        3.6582128963        4.3069573305
S             3.4360472893        3.5449718955        1.0657257487
Mo            3.4553457652        7.2070316858        2.6272198217
S             4.9852052860        6.3245264272        1.0369921418
Mo            5.0148508016        9.9021098366        2.7437708010
S             3.4689208730        8.9438748995        4.3240986590
S             3.4085905665        9.0653880387        1.1007070332
Mo            0.2945040082        1.7490935315        2.8396345431
S             1.8485511750        0.7843877258        4.3890837440
S             1.8574330077        0.8541734774        1.2073751365
Mo            1.8514776137        4.4898529862        2.6680239663
S             0.2715149412        3.6544654901        4.3341706578
S             0.2347178270        3.5262952895        1.1698804729
Mo            0.2693410391        7.2208877187        2.6983197527
S             1.9008381583        6.3168201545        4.2313211566
S             1.8583682374        6.3165517234        1.0482179009
Mo            1.8444018267        9.9331631291        2.7669323158
S             0.2982445358        9.0687270139        4.4093524813
S             0.2729366514        9.0471327741        1.1588671723
O             3.1668772428        2.4942852613        5.3548097859



     Writing config-only to output data dir ./MoS2-V-O.save/
     NEW-OLD atomic charge density approx. for the potential

     negative rho (up, down):  1.831E-04 0.000E+00

     total cpu time spent up to now is      119.8 secs

     Self-consistent Calculation

     iteration #  1     ecut=    80.00 Ry     beta= 0.70
     Davidson diagonalization with overlap
     ethr =  1.00E-06,  avg # of iterations = 14.0

     negative rho (up, down):  1.686E-04 0.000E+00

     total cpu time spent up to now is      134.6 secs

     total energy              =   -2246.28295474 Ry
     estimated scf accuracy    <       0.01545501 Ry

     iteration #  2     ecut=    80.00 Ry     beta= 0.70
     Davidson diagonalization with overlap
     ethr =  4.95E-06,  avg # of iterations =  4.0

     negative rho (up, down):  1.806E-04 0.000E+00

     total cpu time spent up to now is      148.9 secs

     total energy              =   -2246.28532425 Ry
     estimated scf accuracy    <       0.00713714 Ry

     iteration #  3     ecut=    80.00 Ry     beta= 0.70
     Davidson diagonalization with overlap
     ethr =  2.29E-06,  avg # of iterations =  3.0

     negative rho (up, down):  1.779E-04 0.000E+00

     total cpu time spent up to now is      163.0 secs

     total energy              =   -2246.28602178 Ry
     estimated scf accuracy    <       0.00031070 Ry

     iteration #  4     ecut=    80.00 Ry     beta= 0.70
     Davidson diagonalization with overlap
     ethr =  9.96E-08,  avg # of iterations =  4.0

     negative rho (up, down):  1.796E-04 0.000E+00

     total cpu time spent up to now is      174.4 secs

     total energy              =   -2246.28607743 Ry
     estimated scf accuracy    <       0.00004706 Ry

     iteration #  5     ecut=    80.00 Ry     beta= 0.70
     Davidson diagonalization with overlap
     ethr =  1.51E-08,  avg # of iterations =  4.0

     negative rho (up, down):  1.829E-04 0.000E+00

     total cpu time spent up to now is      187.9 secs

     total energy              =   -2246.28608467 Ry
     estimated scf accuracy    <       0.00000708 Ry

     iteration #  6     ecut=    80.00 Ry     beta= 0.70
     Davidson diagonalization with overlap
     ethr =  2.27E-09,  avg # of iterations =  5.0

     negative rho (up, down):  1.861E-04 0.000E+00

     total cpu time spent up to now is      198.7 secs

     total energy              =   -2246.28608671 Ry
     estimated scf accuracy    <       0.00000113 Ry

     iteration #  7     ecut=    80.00 Ry     beta= 0.70
     Davidson diagonalization with overlap
     ethr =  3.63E-10,  avg # of iterations =  2.0

     negative rho (up, down):  1.979E-04 0.000E+00

     total cpu time spent up to now is      202.3 secs

     End of self-consistent calculation

          k = 0.0000 0.0000 0.0000 (105382 PWs)   bands (ev):

   -62.9890 -62.9742 -62.9466 -62.9424 -62.9254 -62.9187 -62.9184 -62.8896
   -62.8758 -62.8582 -62.8426 -62.7970 -37.3219 -37.2878 -37.2546 -37.2388
   -37.2026 -37.1935 -37.1834 -37.1753 -37.1617 -37.1541 -37.1363 -37.1342
   -37.1270 -37.1180 -37.1026 -37.0960 -37.0878 -37.0836 -37.0777 -37.0679
   -37.0594 -37.0510 -37.0236 -37.0153 -37.0100 -37.0065 -37.0031 -36.9933
   -36.9834 -36.9625 -36.9380 -36.9218 -36.9140 -36.8676 -36.8592 -36.8068
   -21.8630 -16.0011 -15.2665 -15.1970 -15.0106 -14.9688 -14.8199 -14.6135
   -14.5394 -14.4999 -14.4691 -14.4473 -14.4073 -14.3930 -14.3153 -14.2200
   -14.2104 -14.1913 -14.0989 -13.9472 -13.9401 -13.9157 -13.8930 -13.7987
    -8.1118  -7.8371  -7.7357  -7.5427  -7.4969  -7.3447  -7.2818  -7.2576
    -7.2097  -7.0170  -6.9280  -6.8494  -6.8087  -6.7317  -6.6902  -6.6404
    -6.5608  -6.5011  -6.4096  -6.3200  -6.1343  -6.1123  -5.9935  -5.9143
    -5.8753  -5.8270  -5.8028  -5.7623  -5.7475  -5.7227  -5.6630  -5.6308
    -5.6000  -5.4930  -5.4492  -5.2904  -5.2536  -5.1815  -5.1220  -5.0882
    -5.0384  -5.0181  -4.9781  -4.9014  -4.8051  -4.6324  -4.4830  -4.3968
    -4.3242  -4.3182  -4.1830  -4.1600  -4.0986  -4.0107  -3.9548  -3.8723
    -3.7985  -3.7381  -3.7017  -3.6747  -3.6615  -3.5724  -3.5521  -3.5149
    -3.4662  -3.4510  -3.3441  -3.3173  -3.1756  -3.0079  -2.9296  -2.9093
    -2.8687  -2.8328  -2.7715  -2.7399  -2.7277  -2.7125  -2.6044  -2.3509
    -2.1369  -2.0280  -1.9917  -1.6310  -1.1804  -0.7778  -0.6574  -0.2319
    -0.2123  -0.1613  -0.0840  -0.0133   0.0970   0.1167   0.1635   0.2166
     0.2618   0.3116   0.3698   0.4482   0.4560   0.4988   0.5019   0.5565
     0.5839   0.6513   0.6784   0.6979   0.7621   0.7855   0.8575   0.8713
     0.9396   1.0716   1.1232

     the Fermi energy is    -1.4057 ev

!    total energy              =   -2246.28608682 Ry
     estimated scf accuracy    <       0.00000014 Ry
     smearing contrib. (-TS)   =      -0.00072724 Ry
     internal energy E=F+TS    =   -2246.28535958 Ry

     The total energy is F=E-TS. E is the sum of the following terms:
     one-electron contribution =  -18456.69626202 Ry
     hartree contribution      =    9216.37888342 Ry
     xc contribution           =    -392.06542522 Ry
     ewald contribution        =    7395.96092829 Ry
     one-center paw contrib.   =      -9.86348404 Ry

     convergence has been achieved in   7 iterations

     negative rho (up, down):  1.979E-04 0.000E+00

     Forces acting on atoms (cartesian axes, Ry/au):

     atom    1 type  1   force =    -0.00042598   -0.01161645   -0.00160581
     atom    2 type  2   force =    -0.00961712    0.01122621   -0.00174776
     atom    3 type  2   force =    -0.01026296    0.00732368   -0.00887958
     atom    4 type  1   force =     0.00638603    0.00078954    0.00397377
     atom    5 type  2   force =     0.00492060   -0.00588696   -0.00548330
     atom    6 type  2   force =     0.00145359    0.00798390   -0.00109007
     atom    7 type  1   force =     0.00438090   -0.00842637   -0.00134443
     atom    8 type  2   force =     0.00050475   -0.00213226    0.01280104
     atom    9 type  2   force =     0.00998617    0.00497077    0.00822801
     atom   10 type  1   force =    -0.00414908    0.00630420   -0.00956715
     atom   11 type  2   force =     0.00493837   -0.00099613   -0.00776509
     atom   12 type  2   force =    -0.00189664    0.00066916    0.00027213
     atom   13 type  1   force =     0.01079980   -0.00800607   -0.03674664
     atom   14 type  2   force =     0.01049631   -0.01107380    0.00210939
     atom   15 type  2   force =    -0.00754528   -0.00179101   -0.01380451
     atom   16 type  1   force =     0.00591939   -0.00324589    0.01457393
     atom   17 type  2   force =    -0.01206888   -0.01762608    0.00706759
     atom   18 type  2   force =    -0.00228264   -0.00316505    0.01171645
     atom   19 type  1   force =     0.00135683   -0.01328975   -0.00017610
     atom   20 type  2   force =     0.00329955   -0.00718209   -0.00231375
     atom   21 type  1   force =     0.00111795    0.00084291    0.00057380
     atom   22 type  2   force =    -0.00258943   -0.00160858   -0.00490585
     atom   23 type  2   force =     0.00112402   -0.00147121    0.00592397
     atom   24 type  1   force =    -0.00476273    0.00043934   -0.01095508
     atom   25 type  2   force =     0.00127266   -0.00945122   -0.01699460
     atom   26 type  2   force =    -0.00842418   -0.00465025   -0.01041411
     atom   27 type  1   force =    -0.00766127   -0.00604665    0.01568193
     atom   28 type  2   force =    -0.00192202   -0.00243530   -0.00346039
     atom   29 type  2   force =     0.00433142   -0.00008258   -0.00567776
     atom   30 type  1   force =    -0.00310932    0.00249668    0.00167929
     atom   31 type  2   force =    -0.00240819    0.00521863    0.01068219
     atom   32 type  2   force =    -0.00679441    0.00763421    0.00626993
     atom   33 type  1   force =     0.00004166   -0.00916900   -0.00496377
     atom   34 type  2   force =    -0.00066321   -0.03084135   -0.01267164
     atom   35 type  2   force =    -0.00714836    0.00650321    0.00689350
     atom   36 type  3   force =     0.02140170    0.09779159    0.05212045
     The non-local contrib.  to forces
     atom    1 type  1   force =     0.00387464    0.02051494   -0.01102084
     atom    2 type  2   force =    -0.00781147    0.00394540   -0.27117912
     atom    3 type  2   force =    -0.01189247   -0.00184570    0.26860811
     atom    4 type  1   force =     0.00089705    0.01144430    0.00624539
     atom    5 type  2   force =     0.00323667   -0.03414753   -0.25931199
     atom    6 type  2   force =    -0.00038465    0.01750692    0.26141432
     atom    7 type  1   force =    -0.01609080    0.00256329   -0.01986361
     atom    8 type  2   force =     0.00395798   -0.00430430   -0.26050222
     atom    9 type  2   force =     0.00519677   -0.01028769    0.27492194
     atom   10 type  1   force =     0.00463159    0.00381187   -0.00369493
     atom   11 type  2   force =     0.01237443    0.00472892   -0.26018833
     atom   12 type  2   force =    -0.01195043   -0.01806182    0.26077538
     atom   13 type  1   force =    -0.00371712    0.01608100   -0.00958524
     atom   14 type  2   force =     0.04217454   -0.02628498   -0.26449243
     atom   15 type  2   force =    -0.00955727   -0.00478897    0.26162743
     atom   16 type  1   force =    -0.00256732    0.02435045   -0.03035973
     atom   17 type  2   force =    -0.07633188   -0.37116620    0.15041170
     atom   18 type  2   force =    -0.00268036   -0.00085373    0.27200762
     atom   19 type  1   force =     0.01360977    0.01967380   -0.01592180
     atom   20 type  2   force =     0.00069797   -0.02405857    0.26618404
     atom   21 type  1   force =     0.00462924    0.03178295    0.00454889
     atom   22 type  2   force =    -0.00623961   -0.00447043   -0.25995230
     atom   23 type  2   force =     0.01138951   -0.01919246    0.26385887
     atom   24 type  1   force =    -0.00154678    0.00414586   -0.00694740
     atom   25 type  2   force =    -0.02355051   -0.00123491   -0.26050207
     atom   26 type  2   force =     0.00082726   -0.01102896    0.26008089
     atom   27 type  1   force =     0.01361901    0.00488050    0.01096190
     atom   28 type  2   force =    -0.00790499   -0.01811807   -0.28059326
     atom   29 type  2   force =     0.00887663    0.01154966    0.25943713
     atom   30 type  1   force =    -0.00179402    0.02311789    0.00972264
     atom   31 type  2   force =    -0.00346843    0.00463017   -0.25629139
     atom   32 type  2   force =    -0.00114604   -0.01072510    0.27184795
     atom   33 type  1   force =    -0.00835950    0.01806761    0.00671507
     atom   34 type  2   force =    -0.00210804   -0.02624328   -0.27701690
     atom   35 type  2   force =    -0.00367855   -0.01195729    0.26626242
     atom   36 type  3   force =     0.29157639    1.55754388   -1.19718738
     The ionic contribution  to forces
     atom    1 type  1   force =     1.37079050    0.16801916    3.89040225
     atom    2 type  2   force =    -0.62145384   -0.05431577   39.06931958
     atom    3 type  2   force =    -0.16895627   -0.05706761  -36.80734948
     atom    4 type  1   force =    -0.14025053    1.15753970   -0.52969830
     atom    5 type  2   force =    -0.10085676    1.92360458   38.23574325
     atom    6 type  2   force =     0.49502142   -0.40918693  -38.70866136
     atom    7 type  1   force =    -2.43115435   -2.50701204    1.48795517
     atom    8 type  2   force =    -1.04843825    0.34306555   37.28393036
     atom    9 type  2   force =     0.30948635    0.01530307  -38.46536793
     atom   10 type  1   force =    -0.94126982   -0.85972734    4.31514853
     atom   11 type  2   force =    -0.35066332   -1.87562972   38.94409230
     atom   12 type  2   force =     0.42351840    0.52435614  -38.36903091
     atom   13 type  1   force =     0.89912413   -0.37772728   -4.38393618
     atom   14 type  2   force =     1.57521306   -1.57105781   37.48332080
     atom   15 type  2   force =     0.52449848   -0.31381355  -37.83584797
     atom   16 type  1   force =     0.71160418    5.30845924   -1.56376953
     atom   17 type  2   force =     2.09041209    7.18441613   32.69232454
     atom   18 type  2   force =    -0.11146236   -0.21357815  -39.51092560
     atom   19 type  1   force =     2.79887425   -2.02813989   -0.65877336
     atom   20 type  2   force =     0.26298114   -0.10621460  -39.06710803
     atom   21 type  1   force =     0.43028590   -1.18470831   -0.14237042
     atom   22 type  2   force =     0.51596955   -2.22082549   38.11190626
     atom   23 type  2   force =    -0.03641553    0.44292278  -38.81443598
     atom   24 type  1   force =    -1.98700892    0.45478200    3.28442752
     atom   25 type  2   force =    -1.17395207   -2.14831143   37.60636652
     atom   26 type  2   force =    -0.55761590   -0.23614818  -38.32489509
     atom   27 type  1   force =    -0.58210195    2.27068767   -4.75378663
     atom   28 type  2   force =    -1.22874783    1.52753093   37.61120995
     atom   29 type  2   force =    -0.47409505   -0.23637667  -38.12735644
     atom   30 type  1   force =    -0.56557820   -0.75702119   -1.10718183
     atom   31 type  2   force =     1.00776954    0.67155418   36.98715977
     atom   32 type  2   force =    -0.49662289    0.06305942  -39.17407653
     atom   33 type  1   force =     0.29272658   -1.95999507    0.43125076
     atom   34 type  2   force =    -0.06142193   -1.56053167   39.11017458
     atom   35 type  2   force =    -0.34158999    0.36100239  -38.29760781
     atom   36 type  3   force =    -0.28861982   -1.73891424   48.09744726
     The local contribution  to forces
     atom    1 type  1   force =    -1.37483187   -0.20027658   -3.88108391
     atom    2 type  2   force =     0.61940077    0.06188568  -38.82075236
     atom    3 type  2   force =     0.17002778    0.06626073   36.55070566
     atom    4 type  1   force =     0.14560587   -1.16841020    0.52733570
     atom    5 type  2   force =     0.10291706   -1.89726979  -38.00271640
     atom    6 type  2   force =    -0.49336058    0.40097398   38.46690722
     atom    7 type  1   force =     2.45160878    2.49621689   -1.46927876
     atom    8 type  2   force =     1.04507051   -0.34140901  -37.03133977
     atom    9 type  2   force =    -0.30467096   -0.00061270   38.21971608
     atom   10 type  1   force =     0.93252521    0.86247146   -4.32086672
     atom   11 type  2   force =     0.34381610    1.87044685  -38.71240612
     atom   12 type  2   force =    -0.41449874   -0.50690726   38.12936114
     atom   13 type  1   force =    -0.88448417    0.35359799    4.35668956
     atom   14 type  2   force =    -1.60427597    1.58507562  -37.23782058
     atom   15 type  2   force =    -0.52312347    0.31658272   37.58103937
     atom   16 type  1   force =    -0.70306490   -5.33618195    1.60870640
     atom   17 type  2   force =    -2.03043908   -6.85231436  -32.83330019
     atom   18 type  2   force =     0.11185594    0.21167143   39.27164583
     atom   19 type  1   force =    -2.81099231    1.99530740    0.67465811
     atom   20 type  2   force =    -0.26046442    0.12213494   38.81993318
     atom   21 type  1   force =    -0.43368017    1.15374321    0.13842398
     atom   22 type  2   force =    -0.51243830    2.22377873  -37.87751231
     atom   23 type  2   force =     0.02694660   -0.42663986   38.57724475
     atom   24 type  1   force =     1.98345014   -0.45879070   -3.28853010
     atom   25 type  2   force =     1.19660987    2.13935376  -37.38402093
     atom   26 type  2   force =     0.54868467    0.24204924   38.07505360
     atom   27 type  1   force =     0.56090548   -2.28169942    4.75841448
     atom   28 type  2   force =     1.23424119   -1.51330670  -37.35556281
     atom   29 type  2   force =     0.47020508    0.22564689   37.88261151
     atom   30 type  1   force =     0.56415945    0.73658637    1.09925570
     atom   31 type  2   force =    -1.00691737   -0.67091717  -36.74084781
     atom   32 type  2   force =     0.49122920   -0.04528520   38.92951921
     atom   33 type  1   force =    -0.28450247    1.93281646   -0.44284509
     atom   34 type  2   force =     0.06240253    1.55524177  -38.86711692
     atom   35 type  2   force =     0.33804597   -0.34342445   38.05920297
     atom   36 type  3   force =     0.02185311    0.29686144  -46.86060753
     The core correction contribution to forces
     atom    1 type  1   force =     0.00000000    0.00000000    0.00000000
     atom    2 type  2   force =     0.00025706   -0.00032543    0.02082943
     atom    3 type  2   force =     0.00054485    0.00000767   -0.02089366
     atom    4 type  1   force =     0.00000000    0.00000000    0.00000000
     atom    5 type  2   force =    -0.00032403    0.00180272    0.02075246
     atom    6 type  2   force =     0.00023990   -0.00146080   -0.02072792
     atom    7 type  1   force =     0.00000000    0.00000000    0.00000000
     atom    8 type  2   force =    -0.00012137    0.00061654    0.02066273
     atom    9 type  2   force =    -0.00004137    0.00057033   -0.02097228
     atom   10 type  1   force =     0.00000000    0.00000000    0.00000000
     atom   11 type  2   force =    -0.00051947   -0.00049262    0.02065933
     atom   12 type  2   force =     0.00103538    0.00138367   -0.02079218
     atom   13 type  1   force =     0.00000000    0.00000000    0.00000000
     atom   14 type  2   force =    -0.00252809    0.00115738    0.02109450
     atom   15 type  2   force =     0.00074389    0.00022882   -0.02068701
     atom   16 type  1   force =     0.00000000    0.00000000    0.00000000
     atom   17 type  2   force =     0.00434071    0.02139682   -0.00246104
     atom   18 type  2   force =     0.00000258   -0.00046024   -0.02099640
     atom   19 type  1   force =     0.00000000    0.00000000    0.00000000
     atom   20 type  2   force =     0.00010575    0.00098452   -0.02125431
     atom   21 type  1   force =     0.00000000    0.00000000    0.00000000
     atom   22 type  2   force =     0.00015298   -0.00005872    0.02059797
     atom   23 type  2   force =    -0.00073168    0.00149495   -0.02070646
     atom   24 type  1   force =     0.00000000    0.00000000    0.00000000
     atom   25 type  2   force =     0.00204424    0.00065868    0.02115114
     atom   26 type  2   force =    -0.00043201    0.00049112   -0.02074144
     atom   27 type  1   force =     0.00000000    0.00000000    0.00000000
     atom   28 type  2   force =     0.00040071    0.00133690    0.02146617
     atom   29 type  2   force =    -0.00071943   -0.00103485   -0.02043517
     atom   30 type  1   force =     0.00000000    0.00000000    0.00000000
     atom   31 type  2   force =     0.00020040    0.00002925    0.02057015
     atom   32 type  2   force =    -0.00026299    0.00056902   -0.02096308
     atom   33 type  1   force =     0.00000000    0.00000000    0.00000000
     atom   34 type  2   force =     0.00035307    0.00079088    0.02128038
     atom   35 type  2   force =     0.00000653    0.00101420   -0.02096101
     atom   36 type  3   force =    -0.00325619   -0.01747288    0.01248196
     The Hubbard contrib.    to forces
     atom    1 type  1   force =     0.00000000    0.00000000    0.00000000
     atom    2 type  2   force =     0.00000000    0.00000000    0.00000000
     atom    3 type  2   force =     0.00000000    0.00000000    0.00000000
     atom    4 type  1   force =     0.00000000    0.00000000    0.00000000
     atom    5 type  2   force =     0.00000000    0.00000000    0.00000000
     atom    6 type  2   force =     0.00000000    0.00000000    0.00000000
     atom    7 type  1   force =     0.00000000    0.00000000    0.00000000
     atom    8 type  2   force =     0.00000000    0.00000000    0.00000000
     atom    9 type  2   force =     0.00000000    0.00000000    0.00000000
     atom   10 type  1   force =     0.00000000    0.00000000    0.00000000
     atom   11 type  2   force =     0.00000000    0.00000000    0.00000000
     atom   12 type  2   force =     0.00000000    0.00000000    0.00000000
     atom   13 type  1   force =     0.00000000    0.00000000    0.00000000
     atom   14 type  2   force =     0.00000000    0.00000000    0.00000000
     atom   15 type  2   force =     0.00000000    0.00000000    0.00000000
     atom   16 type  1   force =     0.00000000    0.00000000    0.00000000
     atom   17 type  2   force =     0.00000000    0.00000000    0.00000000
     atom   18 type  2   force =     0.00000000    0.00000000    0.00000000
     atom   19 type  1   force =     0.00000000    0.00000000    0.00000000
     atom   20 type  2   force =     0.00000000    0.00000000    0.00000000
     atom   21 type  1   force =     0.00000000    0.00000000    0.00000000
     atom   22 type  2   force =     0.00000000    0.00000000    0.00000000
     atom   23 type  2   force =     0.00000000    0.00000000    0.00000000
     atom   24 type  1   force =     0.00000000    0.00000000    0.00000000
     atom   25 type  2   force =     0.00000000    0.00000000    0.00000000
     atom   26 type  2   force =     0.00000000    0.00000000    0.00000000
     atom   27 type  1   force =     0.00000000    0.00000000    0.00000000
     atom   28 type  2   force =     0.00000000    0.00000000    0.00000000
     atom   29 type  2   force =     0.00000000    0.00000000    0.00000000
     atom   30 type  1   force =     0.00000000    0.00000000    0.00000000
     atom   31 type  2   force =     0.00000000    0.00000000    0.00000000
     atom   32 type  2   force =     0.00000000    0.00000000    0.00000000
     atom   33 type  1   force =     0.00000000    0.00000000    0.00000000
     atom   34 type  2   force =     0.00000000    0.00000000    0.00000000
     atom   35 type  2   force =     0.00000000    0.00000000    0.00000000
     atom   36 type  3   force =     0.00000000    0.00000000    0.00000000
     The SCF correction term to forces
     atom    1 type  1   force =    -0.00026047    0.00012710    0.00009642
     atom    2 type  2   force =    -0.00001088    0.00003740    0.00003444
     atom    3 type  2   force =     0.00001193   -0.00003034    0.00004953
     atom    4 type  1   force =     0.00013241    0.00021681    0.00009071
     atom    5 type  2   force =    -0.00005357    0.00012413    0.00004911
     atom    6 type  2   force =    -0.00006373    0.00015181   -0.00002260
     atom    7 type  1   force =     0.00001604   -0.00019344   -0.00015750
     atom    8 type  2   force =     0.00003465   -0.00009997    0.00004968
     atom    9 type  2   force =     0.00001416   -0.00000117   -0.00007008
     atom   10 type  1   force =    -0.00003729   -0.00025072   -0.00015430
     atom   11 type  2   force =    -0.00007061   -0.00004849    0.00007747
     atom   12 type  2   force =    -0.00000248   -0.00010050   -0.00004156
     atom   13 type  1   force =    -0.00012427    0.00004330    0.00008496
     atom   14 type  2   force =    -0.00008846    0.00003707    0.00000683
     atom   15 type  2   force =    -0.00010813    0.00000105    0.00006341
     atom   16 type  1   force =    -0.00005380    0.00012745   -0.00000347
     atom   17 type  2   force =    -0.00005195    0.00004260    0.00009231
     atom   18 type  2   force =     0.00000033    0.00005672   -0.00001526
     atom   19 type  1   force =    -0.00013611   -0.00012998   -0.00013932
     atom   20 type  2   force =    -0.00002214   -0.00002731   -0.00006889
     atom   21 type  1   force =    -0.00011824    0.00002613   -0.00002891
     atom   22 type  2   force =    -0.00003528   -0.00003160    0.00005427
     atom   23 type  2   force =    -0.00006611   -0.00005555   -0.00003747
     atom   24 type  1   force =     0.00034161    0.00030325    0.00009464
     atom   25 type  2   force =     0.00011991    0.00008376    0.00001047
     atom   26 type  2   force =     0.00011057   -0.00001239    0.00008765
     atom   27 type  1   force =    -0.00008504    0.00008568    0.00009192
     atom   28 type  2   force =     0.00008767    0.00012272    0.00001929
     atom   29 type  2   force =     0.00006296    0.00013347    0.00006494
     atom   30 type  1   force =     0.00010223   -0.00018532   -0.00011748
     atom   31 type  2   force =     0.00000645   -0.00007673    0.00009120
     atom   32 type  2   force =     0.00000708    0.00001716   -0.00005788
     atom   33 type  1   force =     0.00017581   -0.00005693   -0.00008477
     atom   34 type  2   force =     0.00010994   -0.00009798    0.00000696
     atom   35 type  2   force =     0.00006644   -0.00013057   -0.00000335
     atom   36 type  3   force =    -0.00015302   -0.00022552   -0.00001412

     Total force =     0.142493     Total SCF correction =     0.001076
     Energy error            =      3.0E-02 Ry
     Gradient error          =      9.8E-02 Ry/Bohr

     number of scf cycles    =   2
     number of bfgs steps    =   1

     energy             old  =   -2246.2560706219 Ry
     energy             new  =   -2246.2860868194 Ry

     CASE: energy            _new < energy            _old

     new trust radius        =       0.1417689796 bohr
     new conv_thr            =       0.0000000978 Ry


ATOMIC_POSITIONS (angstrom)
Mo            6.5785221666        1.7673036875        2.8252676527
S             8.1614074578        0.8264787439        4.4343453829
S             8.1798568668        0.8199467221        1.2708848113
Mo            8.1041877084        4.4963954768        2.7235555004
S             6.5052836083        3.7169743507        4.3382295946
S             6.5544755295        3.5239107104        1.1183427900
Mo            6.4927762505        7.2092621884        2.6650942857
S             8.0825251360        6.3403336425        4.2610665444
S             8.0937794597        6.3111271359        1.0963871218
Mo            8.1507805606        9.9112143984        2.8197808150
S             6.5006490294        8.9424245662        4.3748578010
S             6.6169874623        9.0500774299        1.1438449105
Mo            3.4373140864        1.7277978146        2.7190591462
S             4.9932208261        0.7990824653        4.3536006198
S             5.0418383744        0.8476203868        1.2131087011
Mo            4.9933223713        4.5065680578        2.6486705772
S             3.4077671354        3.6455799335        4.3184559654
S             3.4343702125        3.5424526474        1.0736749484
Mo            3.4564515786        7.1977420355        2.6261164928
S             4.9874128733        6.3202753005        1.0357735903
Mo            5.0161630098        9.9026756291        2.7441626652
S             3.4670442185        8.9431175487        4.3212391645
S             3.4091926287        9.0647791576        1.1049938935
Mo            0.2916875468        1.7497760348        2.8313447557
S             1.8486172440        0.7772821371        4.3780152104
S             1.8522864149        0.8518047496        1.2016410508
Mo            1.8449884169        4.4851601106        2.6780628464
S             0.2703610938        3.6532834770        4.3314596298
S             0.2378801545        3.5259740658        1.1664505388
Mo            0.2672743495        7.2233667391        2.6981555307
S             1.8992382658        6.3205774556        4.2392019403
S             1.8538779223        6.3221438122        1.0523872899
Mo            1.8444386010        9.9265879140        2.7627149004
S             0.2986028446        9.0472553708        4.4017720163
S             0.2682820468        9.0514021061        1.1647578183
O             3.1817368935        2.5618368527        5.3838633692



     Writing config-only to output data dir ./MoS2-V-O.save/
     NEW-OLD atomic charge density approx. for the potential

     negative rho (up, down):  1.550E-04 0.000E+00

     total cpu time spent up to now is      209.6 secs

     Self-consistent Calculation

     iteration #  1     ecut=    80.00 Ry     beta= 0.70
     Davidson diagonalization with overlap
     ethr =  1.00E-06,  avg # of iterations = 10.0

     negative rho (up, down):  1.644E-04 0.000E+00

     total cpu time spent up to now is      223.8 secs

     total energy              =   -2246.30662410 Ry
     estimated scf accuracy    <       0.01061106 Ry

     iteration #  2     ecut=    80.00 Ry     beta= 0.70
     Davidson diagonalization with overlap
     ethr =  3.40E-06,  avg # of iterations =  4.0

     negative rho (up, down):  2.112E-04 0.000E+00

     total cpu time spent up to now is      234.6 secs

     total energy              =   -2246.30845059 Ry
     estimated scf accuracy    <       0.00332185 Ry

     iteration #  3     ecut=    80.00 Ry     beta= 0.70
     Davidson diagonalization with overlap
     ethr =  1.06E-06,  avg # of iterations =  3.0

     negative rho (up, down):  2.417E-04 0.000E+00

     total cpu time spent up to now is      247.8 secs

     total energy              =   -2246.30872515 Ry
     estimated scf accuracy    <       0.00026415 Ry

     iteration #  4     ecut=    80.00 Ry     beta= 0.70
     Davidson diagonalization with overlap
     ethr =  8.47E-08,  avg # of iterations =  4.0

     negative rho (up, down):  2.521E-04 0.000E+00

     total cpu time spent up to now is      259.6 secs

     total energy              =   -2246.30876451 Ry
     estimated scf accuracy    <       0.00003203 Ry

     iteration #  5     ecut=    80.00 Ry     beta= 0.70
     Davidson diagonalization with overlap
     ethr =  1.03E-08,  avg # of iterations =  5.0

     negative rho (up, down):  2.561E-04 0.000E+00

     total cpu time spent up to now is      274.8 secs

     total energy              =   -2246.30876929 Ry
     estimated scf accuracy    <       0.00000762 Ry

     iteration #  6     ecut=    80.00 Ry     beta= 0.70
     Davidson diagonalization with overlap
     ethr =  2.44E-09,  avg # of iterations =  4.0

     negative rho (up, down):  2.585E-04 0.000E+00

     total cpu time spent up to now is      287.2 secs

     total energy              =   -2246.30877024 Ry
     estimated scf accuracy    <       0.00000097 Ry

     iteration #  7     ecut=    80.00 Ry     beta= 0.70
     Davidson diagonalization with overlap
     ethr =  3.09E-10,  avg # of iterations =  5.0

     negative rho (up, down):  2.543E-04 0.000E+00

     total cpu time spent up to now is      302.0 secs

     total energy              =   -2246.30877061 Ry
     estimated scf accuracy    <       0.00000015 Ry

     iteration #  8     ecut=    80.00 Ry     beta= 0.70
     Davidson diagonalization with overlap
     ethr =  4.96E-11,  avg # of iterations =  4.0

     negative rho (up, down):  2.001E-04 0.000E+00

     total cpu time spent up to now is      305.7 secs

     End of self-consistent calculation

          k = 0.0000 0.0000 0.0000 (105382 PWs)   bands (ev):

   -63.0008 -62.9679 -62.9553 -62.9324 -62.9279 -62.9131 -62.8981 -62.8801
   -62.8673 -62.8631 -62.8475 -62.8146 -37.3236 -37.2946 -37.2568 -37.2366
   -37.2023 -37.1884 -37.1805 -37.1698 -37.1578 -37.1480 -37.1356 -37.1281
   -37.1189 -37.1114 -37.0984 -37.0923 -37.0827 -37.0725 -37.0674 -37.0637
   -37.0627 -37.0322 -37.0309 -37.0233 -37.0207 -37.0114 -37.0073 -37.0006
   -36.9841 -36.9679 -36.9446 -36.9263 -36.8983 -36.8742 -36.8637 -36.8230
   -22.3352 -16.0072 -15.2579 -15.2002 -15.0110 -14.9651 -14.8275 -14.5788
   -14.5367 -14.5081 -14.4756 -14.4444 -14.4032 -14.3896 -14.3212 -14.2259
   -14.2015 -14.1892 -14.0984 -13.9470 -13.9348 -13.9263 -13.8965 -13.7241
    -8.1041  -7.8834  -7.7607  -7.5383  -7.5118  -7.3562  -7.2842  -7.2745
    -7.2209  -7.0396  -6.9451  -6.8602  -6.8199  -6.7390  -6.6992  -6.6447
    -6.5652  -6.5130  -6.4189  -6.3208  -6.1414  -6.1233  -5.9998  -5.9208
    -5.8715  -5.8243  -5.8043  -5.7663  -5.7504  -5.7288  -5.6754  -5.6404
    -5.5961  -5.4944  -5.4486  -5.3051  -5.2502  -5.1817  -5.1284  -5.0910
    -5.0356  -5.0263  -4.9833  -4.9193  -4.8087  -4.6405  -4.5074  -4.3982
    -4.3286  -4.3108  -4.1945  -4.1618  -4.1127  -4.0326  -3.9494  -3.8684
    -3.7972  -3.7415  -3.7058  -3.6949  -3.6651  -3.5740  -3.5558  -3.5095
    -3.4674  -3.4337  -3.3593  -3.3175  -3.1863  -3.0026  -2.9219  -2.9106
    -2.8709  -2.8305  -2.7871  -2.7484  -2.7257  -2.7157  -2.6288  -2.3544
    -2.1582  -2.0480  -1.9996  -1.7125  -1.1572  -0.8017  -0.6084  -0.2230
    -0.2069  -0.1495  -0.0812  -0.0027   0.0977   0.1136   0.1676   0.2288
     0.2631   0.3151   0.3588   0.4532   0.4646   0.5037   0.5133   0.5644
     0.5755   0.6428   0.6846   0.6987   0.7632   0.7908   0.8619   0.8710
     0.9517   1.0762   1.1084

     the Fermi energy is    -1.4348 ev

!    total energy              =   -2246.30877074 Ry
     estimated scf accuracy    <       0.00000004 Ry
     smearing contrib. (-TS)   =      -0.00017536 Ry
     internal energy E=F+TS    =   -2246.30859538 Ry

     The total energy is F=E-TS. E is the sum of the following terms:
     one-electron contribution =  -18453.41951212 Ry
     hartree contribution      =    9214.68186608 Ry
     xc contribution           =    -392.10624790 Ry
     ewald contribution        =    7394.39561909 Ry
     one-center paw contrib.   =      -9.86032053 Ry

     convergence has been achieved in   8 iterations

     negative rho (up, down):  2.001E-04 0.000E+00

     Forces acting on atoms (cartesian axes, Ry/au):

     atom    1 type  1   force =    -0.00285490   -0.00494002   -0.00552819
     atom    2 type  2   force =    -0.00507997    0.00715206   -0.00314777
     atom    3 type  2   force =    -0.00835479    0.00640947   -0.01116007
     atom    4 type  1   force =     0.00360514    0.00003971    0.00199638
     atom    5 type  2   force =     0.00498384   -0.00733526   -0.00214108
     atom    6 type  2   force =     0.00143863    0.00474810    0.00155174
     atom    7 type  1   force =     0.00592443   -0.00887928    0.00235277
     atom    8 type  2   force =     0.00038308   -0.00185758    0.00935275
     atom    9 type  2   force =     0.00834461    0.00411323    0.00487474
     atom   10 type  1   force =    -0.00037943    0.00487363    0.00013533
     atom   11 type  2   force =     0.00479953   -0.00172667   -0.00790199
     atom   12 type  2   force =    -0.00289253   -0.00051327   -0.00180242
     atom   13 type  1   force =     0.00374076   -0.00150078   -0.01690557
     atom   14 type  2   force =     0.00301665   -0.00401509    0.00067048
     atom   15 type  2   force =     0.00167566   -0.00558770   -0.01610242
     atom   16 type  1   force =     0.00058228    0.00389705    0.01255992
     atom   17 type  2   force =    -0.00326353   -0.00886059   -0.03473904
     atom   18 type  2   force =    -0.00123997    0.00028824    0.00909432
     atom   19 type  1   force =     0.00116973   -0.00857118    0.00299157
     atom   20 type  2   force =     0.00283059   -0.00862281   -0.00179084
     atom   21 type  1   force =    -0.00148705    0.00102785   -0.00077990
     atom   22 type  2   force =    -0.00121780   -0.00317893   -0.00515345
     atom   23 type  2   force =     0.00151332   -0.00374958    0.00383840
     atom   24 type  1   force =    -0.00632742   -0.00202575   -0.00700912
     atom   25 type  2   force =     0.00629634   -0.00122334   -0.01414283
     atom   26 type  2   force =    -0.00998488   -0.00711691   -0.01324635
     atom   27 type  1   force =    -0.00107759   -0.00107585    0.01306620
     atom   28 type  2   force =    -0.00229615   -0.00466864   -0.00027851
     atom   29 type  2   force =     0.00285121    0.00123291   -0.00540606
     atom   30 type  1   force =    -0.00259401   -0.00136783    0.00507803
     atom   31 type  2   force =    -0.00180227    0.00279167    0.00758260
     atom   32 type  2   force =    -0.00591484    0.00394535    0.00611644
     atom   33 type  1   force =     0.00038370   -0.00528016   -0.00252029
     atom   34 type  2   force =    -0.00358282   -0.02193178   -0.01268768
     atom   35 type  2   force =    -0.00670790    0.00521644    0.00075136
     atom   36 type  3   force =     0.01351834    0.06829329    0.08043057
     The non-local contrib.  to forces
     atom    1 type  1   force =     0.00253459    0.01887159   -0.01103003
     atom    2 type  2   force =    -0.00449289   -0.00014685   -0.27216809
     atom    3 type  2   force =    -0.00945659   -0.00344050    0.26654079
     atom    4 type  1   force =     0.00169818    0.01231226    0.00639039
     atom    5 type  2   force =     0.00278372   -0.03366394   -0.25703660
     atom    6 type  2   force =     0.00127235    0.01409485    0.26297107
     atom    7 type  1   force =    -0.01544189    0.00559746   -0.02116366
     atom    8 type  2   force =     0.00389568   -0.00386554   -0.26256223
     atom    9 type  2   force =     0.00340205   -0.01176502    0.27301246
     atom   10 type  1   force =     0.00382523    0.00548057   -0.00357235
     atom   11 type  2   force =     0.01188684    0.00307303   -0.26006336
     atom   12 type  2   force =    -0.01189597   -0.01940890    0.26013384
     atom   13 type  1   force =    -0.00144994    0.02337268    0.00213938
     atom   14 type  2   force =     0.03265741   -0.02294144   -0.26564727
     atom   15 type  2   force =    -0.00161992   -0.00805971    0.25709877
     atom   16 type  1   force =    -0.00348228    0.02065526   -0.02957775
     atom   17 type  2   force =    -0.06545915   -0.32532790    0.15162146
     atom   18 type  2   force =    -0.00318827   -0.00104162    0.27246803
     atom   19 type  1   force =     0.01238762    0.01892392   -0.01634401
     atom   20 type  2   force =     0.00082969   -0.02374462    0.26660329
     atom   21 type  1   force =     0.00393433    0.03203023    0.00432362
     atom   22 type  2   force =    -0.00442047   -0.00511243   -0.26125184
     atom   23 type  2   force =     0.01176094   -0.02121780    0.26340801
     atom   24 type  1   force =    -0.00025553    0.00753892   -0.00668731
     atom   25 type  2   force =    -0.02364176   -0.00624262   -0.26518611
     atom   26 type  2   force =    -0.00048345   -0.01263574    0.25854337
     atom   27 type  1   force =     0.01453831    0.00113015    0.01133196
     atom   28 type  2   force =    -0.00778399   -0.01748308   -0.27824110
     atom   29 type  2   force =     0.00673265    0.01083273    0.25961693
     atom   30 type  1   force =    -0.00137439    0.02427890    0.00993421
     atom   31 type  2   force =    -0.00384781   -0.00046302   -0.25888914
     atom   32 type  2   force =     0.00017536   -0.01207717    0.27195402
     atom   33 type  1   force =    -0.00891290    0.01632451    0.00394000
     atom   34 type  2   force =    -0.00493325   -0.02013101   -0.27772371
     atom   35 type  2   force =    -0.00389966   -0.01341602    0.26339375
     atom   36 type  3   force =     0.30219433    1.62160917   -1.32645741
     The ionic contribution  to forces
     atom    1 type  1   force =     1.23981870    0.37412123    3.89612803
     atom    2 type  2   force =    -0.46164330   -0.12999000   39.11807952
     atom    3 type  2   force =    -0.13548090   -0.03336688  -36.90290817
     atom    4 type  1   force =    -0.23061241    1.11453006   -0.44616702
     atom    5 type  2   force =    -0.09783916    1.85529260   38.19301452
[...]
     atom   28 type  2   force =    -0.00199592   -0.00496618   -0.27920516
     atom   29 type  2   force =    -0.00070032   -0.00970174    0.26444901
     atom   30 type  1   force =    -0.00098871    0.02032385    0.00701340
     atom   31 type  2   force =    -0.00716042   -0.00071120   -0.26996921
     atom   32 type  2   force =     0.00659044   -0.01420564    0.26995582
     atom   33 type  1   force =    -0.00708879    0.00462656   -0.00017399
     atom   34 type  2   force =     0.00153688   -0.00977851   -0.27485170
     atom   35 type  2   force =     0.00051441   -0.01360426    0.26688315
     atom   36 type  3   force =     0.00965956   -0.01464720   -2.31895036
     The ionic contribution  to forces
     atom    1 type  1   force =     0.48034711    0.09523051    1.15343873
     atom    2 type  2   force =    -0.18907795   -0.23630155   38.55619449
     atom    3 type  2   force =     0.01906945   -0.15550334  -37.95209798
     atom    4 type  1   force =     0.00498856    0.55304545   -0.40210798
     atom    5 type  2   force =     0.25221035    1.06830930   37.70130618
     atom    6 type  2   force =     0.26206299   -0.42569342  -38.80826463
     atom    7 type  1   force =    -2.39040890   -1.11850744    1.24527291
     atom    8 type  2   force =    -1.12387642    0.48081449   38.04438593
     atom    9 type  2   force =     0.38888410    0.07577920  -38.40142332
     atom   10 type  1   force =    -0.47274130   -0.51266454    2.23450610
     atom   11 type  2   force =    -0.38015456   -1.39455402   38.32237487
     atom   12 type  2   force =     0.19951105    0.32393546  -38.29109931
     atom   13 type  1   force =     0.14424277   -0.51286351   -1.90278761
     atom   14 type  2   force =     0.56085466   -1.02819925   37.99219299
     atom   15 type  2   force =     0.13253547   -0.21815213  -38.31171046
     atom   16 type  1   force =     0.56272958    3.78532240   -2.07265651
     atom   17 type  2   force =     0.92129616    1.04042801   28.12813982
     atom   18 type  2   force =    -0.14994868   -0.33820642  -38.63084349
     atom   19 type  1   force =     2.68819452   -0.97978014    1.28305266
     atom   20 type  2   force =    -0.02717672    0.17641658  -39.48446178
     atom   21 type  1   force =     0.25272346   -0.79935655    0.30361482
     atom   22 type  2   force =     0.46737446   -1.34466029   38.23838356
     atom   23 type  2   force =    -0.19147434    0.30346301  -38.29307284
     atom   24 type  1   force =    -0.60517078   -0.10482938    0.72930602
     atom   25 type  2   force =    -0.39563240   -0.89985818   38.23572830
     atom   26 type  2   force =    -0.16507604   -0.15807271  -38.35506083
     atom   27 type  1   force =    -0.82588852    0.92959902   -3.42585782
     atom   28 type  2   force =    -0.97693016    0.41078538   37.46445200
     atom   29 type  2   force =    -0.06356323   -0.14019303  -38.36436796
     atom   30 type  1   force =    -0.30642562   -0.14535703    1.31642177
     atom   31 type  2   force =     0.63743212    1.23685353   37.61617169
     atom   32 type  2   force =    -0.33830218    0.16401741  -38.62520090
     atom   33 type  1   force =     0.30155043   -0.91072478    1.93279623
     atom   34 type  2   force =    -0.13731415   -0.42916528   38.75869204
     atom   35 type  2   force =    -0.05105887    0.14511049  -37.92405175
     atom   36 type  3   force =     0.51421360    1.06353273   49.98863408
     The local contribution  to forces
     atom    1 type  1   force =    -0.47896073   -0.11744699   -1.14730612
     atom    2 type  2   force =     0.18894289    0.24544346  -38.30769077
     atom    3 type  2   force =    -0.01623162    0.16452822   37.70469362
     atom    4 type  1   force =    -0.00816850   -0.56231771    0.38981736
     atom    5 type  2   force =    -0.25157868   -1.05361033  -37.46161489
     atom    6 type  2   force =    -0.26309295    0.42786064   38.56726509
     atom    7 type  1   force =     2.40788039    1.10675891   -1.22547453
     atom    8 type  2   force =     1.11567209   -0.48069829  -37.79548735
     atom    9 type  2   force =    -0.38136534   -0.06006459   38.15281409
     atom   10 type  1   force =     0.46993015    0.50675753   -2.23590414
     atom   11 type  2   force =     0.37531823    1.39531776  -38.08204950
     atom   12 type  2   force =    -0.19220567   -0.30945474   38.04861407
     atom   13 type  1   force =    -0.14370448    0.48161785    1.89599428
     atom   14 type  2   force =    -0.56031660    1.03715814  -37.74030110
     atom   15 type  2   force =    -0.13115922    0.22768339   38.07078426
     atom   16 type  1   force =    -0.55506918   -3.80885540    2.09297898
     atom   17 type  2   force =    -0.90833417   -1.04082978  -28.41826334
     atom   18 type  2   force =     0.14983306    0.34235665   38.37535378
     atom   19 type  1   force =    -2.69989895    0.97969697   -1.25911944
     atom   20 type  2   force =     0.02663890   -0.16424533   39.24333370
     atom   21 type  1   force =    -0.25330346    0.77419620   -0.30735008
     atom   22 type  2   force =    -0.46229307    1.34493989  -37.99779431
     atom   23 type  2   force =     0.18231090   -0.29018338   38.04790283
     atom   24 type  1   force =     0.60389867    0.08976406   -0.72820899
     atom   25 type  2   force =     0.39477983    0.90883497  -37.98563455
     atom   26 type  2   force =     0.16163044    0.16735617   38.10928099
     atom   27 type  1   force =     0.81746976   -0.92580626    3.40201908
     atom   28 type  2   force =     0.97823642   -0.40520909  -37.20680064
     atom   29 type  2   force =     0.06436344    0.14850724   38.11944418
     atom   30 type  1   force =     0.30780159    0.12398741   -1.32343989
     atom   31 type  2   force =    -0.63071005   -1.23688881  -37.36728905
     atom   32 type  2   force =     0.33232445   -0.15094276   38.37552470
     atom   33 type  1   force =    -0.29478504    0.90673557   -1.93293958
     atom   34 type  2   force =     0.13578703    0.43836888  -38.50437985
     atom   35 type  2   force =     0.05099756   -0.13165770   37.67839701
     atom   36 type  3   force =    -0.52344275   -1.04862638  -47.69518484
     The core correction contribution to forces
     atom    1 type  1   force =     0.00000000    0.00000000    0.00000000
     atom    2 type  2   force =    -0.00005103    0.00037145    0.02094094
     atom    3 type  2   force =     0.00013347    0.00032948   -0.02094312
     atom    4 type  1   force =     0.00000000    0.00000000    0.00000000
     atom    5 type  2   force =    -0.00020096    0.00056876    0.02086690
     atom    6 type  2   force =     0.00018209   -0.00042423   -0.02076681
     atom    7 type  1   force =     0.00000000    0.00000000    0.00000000
     atom    8 type  2   force =    -0.00044512    0.00032162    0.02111550
     atom    9 type  2   force =     0.00079075    0.00080085   -0.02100041
     atom   10 type  1   force =     0.00000000    0.00000000    0.00000000
     atom   11 type  2   force =    -0.00008794   -0.00024971    0.02074576
     atom   12 type  2   force =     0.00060769    0.00102450   -0.02080604
     atom   13 type  1   force =     0.00000000    0.00000000    0.00000000
     atom   14 type  2   force =     0.00000039    0.00024542    0.02132741
     atom   15 type  2   force =     0.00014277    0.00048004   -0.02066304
     atom   16 type  1   force =     0.00000000    0.00000000    0.00000000
     atom   17 type  2   force =     0.00088647   -0.00011181   -0.00995399
     atom   18 type  2   force =    -0.00013000   -0.00022116   -0.02130203
     atom   19 type  1   force =     0.00000000    0.00000000    0.00000000
     atom   20 type  2   force =    -0.00010404    0.00071507   -0.02116262
     atom   21 type  1   force =     0.00000000    0.00000000    0.00000000
     atom   22 type  2   force =     0.00005330   -0.00019149    0.02070942
     atom   23 type  2   force =    -0.00072777    0.00098198   -0.02090247
     atom   24 type  1   force =     0.00000000    0.00000000    0.00000000
     atom   25 type  2   force =    -0.00005822    0.00048836    0.02124690
     atom   26 type  2   force =    -0.00026653    0.00041625   -0.02089684
     atom   27 type  1   force =     0.00000000    0.00000000    0.00000000
     atom   28 type  2   force =     0.00014796    0.00041717    0.02154971
     atom   29 type  2   force =     0.00004110    0.00025322   -0.02067497
     atom   30 type  1   force =     0.00000000    0.00000000    0.00000000
     atom   31 type  2   force =     0.00041351    0.00028956    0.02121325
     atom   32 type  2   force =    -0.00057648    0.00078690   -0.02101986
     atom   33 type  1   force =     0.00000000    0.00000000    0.00000000
     atom   34 type  2   force =    -0.00009783    0.00039704    0.02132100
     atom   35 type  2   force =    -0.00003642    0.00077860   -0.02096836
     atom   36 type  3   force =    -0.00009361    0.00012965    0.02460920
     The Hubbard contrib.    to forces
     atom    1 type  1   force =     0.00000000    0.00000000    0.00000000
     atom    2 type  2   force =     0.00000000    0.00000000    0.00000000
     atom    3 type  2   force =     0.00000000    0.00000000    0.00000000
     atom    4 type  1   force =     0.00000000    0.00000000    0.00000000
     atom    5 type  2   force =     0.00000000    0.00000000    0.00000000
     atom    6 type  2   force =     0.00000000    0.00000000    0.00000000
     atom    7 type  1   force =     0.00000000    0.00000000    0.00000000
     atom    8 type  2   force =     0.00000000    0.00000000    0.00000000
     atom    9 type  2   force =     0.00000000    0.00000000    0.00000000
     atom   10 type  1   force =     0.00000000    0.00000000    0.00000000
     atom   11 type  2   force =     0.00000000    0.00000000    0.00000000
     atom   12 type  2   force =     0.00000000    0.00000000    0.00000000
     atom   13 type  1   force =     0.00000000    0.00000000    0.00000000
     atom   14 type  2   force =     0.00000000    0.00000000    0.00000000
     atom   15 type  2   force =     0.00000000    0.00000000    0.00000000
     atom   16 type  1   force =     0.00000000    0.00000000    0.00000000
     atom   17 type  2   force =     0.00000000    0.00000000    0.00000000
     atom   18 type  2   force =     0.00000000    0.00000000    0.00000000
     atom   19 type  1   force =     0.00000000    0.00000000    0.00000000
     atom   20 type  2   force =     0.00000000    0.00000000    0.00000000
     atom   21 type  1   force =     0.00000000    0.00000000    0.00000000
     atom   22 type  2   force =     0.00000000    0.00000000    0.00000000
     atom   23 type  2   force =     0.00000000    0.00000000    0.00000000
     atom   24 type  1   force =     0.00000000    0.00000000    0.00000000
     atom   25 type  2   force =     0.00000000    0.00000000    0.00000000
     atom   26 type  2   force =     0.00000000    0.00000000    0.00000000
     atom   27 type  1   force =     0.00000000    0.00000000    0.00000000
     atom   28 type  2   force =     0.00000000    0.00000000    0.00000000
     atom   29 type  2   force =     0.00000000    0.00000000    0.00000000
     atom   30 type  1   force =     0.00000000    0.00000000    0.00000000
     atom   31 type  2   force =     0.00000000    0.00000000    0.00000000
     atom   32 type  2   force =     0.00000000    0.00000000    0.00000000
     atom   33 type  1   force =     0.00000000    0.00000000    0.00000000
     atom   34 type  2   force =     0.00000000    0.00000000    0.00000000
     atom   35 type  2   force =     0.00000000    0.00000000    0.00000000
     atom   36 type  3   force =     0.00000000    0.00000000    0.00000000
     The SCF correction term to forces
     atom    1 type  1   force =    -0.00000114   -0.00001789   -0.00001884
     atom    2 type  2   force =     0.00000093    0.00000629   -0.00001402
     atom    3 type  2   force =    -0.00000637   -0.00001874   -0.00000529
     atom    4 type  1   force =     0.00000888   -0.00001292    0.00003791
     atom    5 type  2   force =    -0.00000379    0.00000855   -0.00000754
     atom    6 type  2   force =     0.00000208   -0.00001173    0.00001968
     atom    7 type  1   force =    -0.00001148   -0.00000120   -0.00000075
     atom    8 type  2   force =    -0.00000246   -0.00001699    0.00000249
     atom    9 type  2   force =    -0.00000112    0.00001188    0.00001170
     atom   10 type  1   force =    -0.00001881    0.00000949   -0.00004993
     atom   11 type  2   force =     0.00001337   -0.00000194   -0.00002354
     atom   12 type  2   force =     0.00001540    0.00001982   -0.00000343
     atom   13 type  1   force =    -0.00001939   -0.00000221   -0.00001510
     atom   14 type  2   force =    -0.00000446    0.00001469   -0.00001111
     atom   15 type  2   force =    -0.00000814   -0.00000576    0.00000189
     atom   16 type  1   force =    -0.00000520   -0.00001448    0.00004880
     atom   17 type  2   force =    -0.00001110   -0.00001651   -0.00001427
     atom   18 type  2   force =    -0.00000771   -0.00002014    0.00002512
     atom   19 type  1   force =     0.00000174   -0.00001224   -0.00001337
     atom   20 type  2   force =    -0.00000126    0.00000824    0.00002174
     atom   21 type  1   force =     0.00000004    0.00002948   -0.00003834
     atom   22 type  2   force =    -0.00000346    0.00000085   -0.00001175
     atom   23 type  2   force =    -0.00000221    0.00001476   -0.00001125
     atom   24 type  1   force =     0.00001985   -0.00000490    0.00000662
     atom   25 type  2   force =     0.00000298    0.00001801    0.00000319
     atom   26 type  2   force =     0.00001241    0.00000115   -0.00000798
     atom   27 type  1   force =     0.00002222   -0.00002475    0.00004450
     atom   28 type  2   force =     0.00000540    0.00000792    0.00000454
     atom   29 type  2   force =    -0.00000118   -0.00001357    0.00001563
     atom   30 type  1   force =    -0.00002613    0.00000882   -0.00000202
     atom   31 type  2   force =    -0.00000069   -0.00001948   -0.00000257
     atom   32 type  2   force =     0.00000980    0.00000934    0.00000705
     atom   33 type  1   force =     0.00000266    0.00002506   -0.00003903
     atom   34 type  2   force =    -0.00000546    0.00000113   -0.00000716
     atom   35 type  2   force =    -0.00000941    0.00002279   -0.00001495
     atom   36 type  3   force =    -0.00003995   -0.00006223   -0.00000892

     Total force =     0.006271     Total SCF correction =     0.000180
     Energy error            =      9.6E-05 Ry
     Gradient error          =      1.9E-03 Ry/Bohr

     bfgs converged in  23 scf cycles and  22 bfgs steps
     (criteria: energy <  1.0E-04 Ry, force <  1.0E-02 Ry/Bohr)

     End of BFGS Geometry Optimization

     Final energy             =   -2246.4443066491 Ry

     File ./MoS2-V-O.bfgs deleted, as requested
Begin final coordinates

ATOMIC_POSITIONS (angstrom)
Mo            6.5476026397        1.7288119963        2.7603568289
S             8.1193945224        0.8185993550        4.3659608398
S             8.1273439031        0.8055517478        1.1754270734
Mo            8.1101312876        4.4572823946        2.7193196441
S             6.4997361248        3.6464917995        4.3173926201
S             6.5559163716        3.5263667779        1.1054344060
Mo            6.5246972778        7.1473346150        2.6632461350
S             8.0813378420        6.2720750125        4.3096916254
S             8.1483559821        6.2933596134        1.1160054374
Mo            8.1306396494        9.9025089629        2.7703846492
S             6.5180711782        8.9103856573        4.3233882571
S             6.5868842271        9.0003197445        1.1313155484
Mo            3.4112319443        1.6877429823        2.7382344942
S             4.9807640854        0.7869870974        4.3466551742
S             4.9965264732        0.8009067449        1.1576411212
Mo            5.0138912255        4.5313189576        2.6437017780
S             3.4518050677        3.6073695399        4.2163900256
S             3.4226637117        3.5324391287        1.1219192337
Mo            3.4739747575        7.1513596180        2.6719021050
S             4.9964719380        6.3031640182        1.0307915094
Mo            4.9926589798        9.8787194698        2.7336259604
S             3.4629791390        8.9173390626        4.3247905785
S             3.3953095744        9.0019355684        1.1311511369
Mo            0.2540904804        1.7100101561        2.7641078249
S             1.8425562449        0.8136747080        4.3669481157
S             1.8177345386        0.7949366594        1.1614485673
Mo            1.8360386275        4.4785478732        2.7018247624
S             0.2612727621        3.5747135809        4.3161568177
S             0.2447328864        3.5247545132        1.1422678876
Mo            0.2677260495        7.1857799194        2.7440301500
S             1.9092150436        6.2710064308        4.3136780016
S             1.8478097606        6.3129305170        1.1088376089
Mo            1.8388557541        9.9025881914        2.7694631659
S             0.2583827284        8.9944662283        4.3657001836
S             0.2555502453        9.0144744686        1.1752889749
O             3.4422473215        3.6233377440        5.7158616290
End final coordinates



     Writing all to output data dir ./MoS2-V-O.save/
 
     init_run     :      4.64s CPU      5.18s WALL (       1 calls)
     electrons    :   2048.49s CPU   2307.95s WALL (      23 calls)
     update_pot   :     68.07s CPU     72.40s WALL (      22 calls)
     forces       :     64.55s CPU     73.34s WALL (      23 calls)

     Called by init_run:
     wfcinit      :      0.49s CPU      0.54s WALL (       1 calls)
     potinit      :      2.38s CPU      2.64s WALL (       1 calls)
     hinit0       :      0.44s CPU      0.46s WALL (       1 calls)

     Called by electrons:
     c_bands      :    307.84s CPU    314.69s WALL (     210 calls)
     sum_band     :    129.10s CPU    163.45s WALL (     210 calls)
     v_of_rho     :    207.57s CPU    249.79s WALL (     224 calls)
     newd         :     73.48s CPU    105.11s WALL (     224 calls)
     PAW_pot      :      8.89s CPU      8.93s WALL (     246 calls)
     mix_rho      :   1345.77s CPU   1492.28s WALL (     210 calls)

     Called by c_bands:
     init_us_2    :      4.82s CPU      5.19s WALL (     443 calls)
     init_us_2:cp :      4.82s CPU      5.19s WALL (     443 calls)
     regterg      :    292.19s CPU    298.66s WALL (     210 calls)

     Called by *egterg:
     rdiaghg      :     19.74s CPU     19.92s WALL (    1100 calls)
     h_psi        :    191.62s CPU    193.21s WALL (    1132 calls)
     s_psi        :     17.57s CPU     17.63s WALL (    1132 calls)
     g_psi        :      0.92s CPU      0.93s WALL (     921 calls)

     Called by h_psi:
     h_psi:calbec :     19.63s CPU     19.76s WALL (    1132 calls)
     vloc_psi     :    152.40s CPU    153.75s WALL (    1132 calls)
     add_vuspsi   :     17.23s CPU     17.32s WALL (    1132 calls)

     General routines
     calbec       :     28.46s CPU     28.63s WALL (    1456 calls)
     fft          :    156.82s CPU    177.99s WALL (   15006 calls)
     ffts         :    601.50s CPU    742.86s WALL (  328586 calls)
     fftw         :     99.49s CPU    100.29s WALL (  129904 calls)
     interpolate  :      2.76s CPU      3.20s WALL (     224 calls)
 
     Parallel routines
 
     PWSCF        :  36m36.04s CPU  41m14.04s WALL

 
   This run was terminated on:  14: 8:40   1Nov2023            

=------------------------------------------------------------------------------=
   JOB DONE.
=------------------------------------------------------------------------------=
