
     Program PWSCF v.7.2 starts on  1Nov2023 at 13:36:38 

     This program is part of the open-source Quantum ESPRESSO suite
     for quantum simulation of materials; please cite
         "P. Giannozzi et al., J. Phys.:Condens. Matter 21 395502 (2009);
         "P. Giannozzi et al., J. Phys.:Condens. Matter 29 465901 (2017);
         "P. Giannozzi et al., J. Chem. Phys. 152 154105 (2020);
          URL http://www.quantum-espresso.org", 
     in publications or presentations arising from this work. More details at
     http://www.quantum-espresso.org/quote

     Parallel version (MPI & OpenMP), running on      48 processor cores
     Number of MPI processes:                48
     Threads/MPI process:                     1

     MPI processes distributed on     1 nodes
     48146 MiB available memory on the printing compute node when the environment starts
 
     Waiting for input...
     Reading input from standard input
Warning: card &CELL ignored
Warning: card CELL_DYNAMICS = 'BFGS', ignored
Warning: card CELL_DOFREE = '2DXY' ignored
Warning: card / ignored

     Current dimensions of program PWSCF are:
     Max number of different atomic species (ntypx) = 10
     Max number of k-points (npk) =  40000
     Max angular momentum in pseudopotentials (lmaxx) =  4
     file O.pbe-n-kjpaw_psl.0.1.UPF: wavefunction(s)  2P renormalized

     IMPORTANT: XC functional enforced from input :
     Exchange-correlation= RVV10
                           (   1   4  13   4  26   0   0)
     Any further DFT definition will be discarded
     Please, verify this is what you really want


     gamma-point specific algorithms are used
     signal trapping enabled: kill the code with -SIGUSR1 to stop cleanly the simulation 
 
     R & G space division:  proc/nbgrp/npool/nimage =      48
     Subspace diagonalization in iterative solution of the eigenvalue problem:
     one sub-group per band group will be used
     scalapack distributed-memory algorithm (size of sub-group:  2*  2 procs)

 
     Parallelization info
     --------------------
     sticks:   dense  smooth     PW     G-vecs:    dense   smooth      PW
     Min         396     194     47               101632    35090    4376
     Max         398     196     50               101674    35128    4410
     Sum       19091    9389   2349              4879585  1685513  210763
 
     Using Slab Decomposition
 


     bravais-lattice index     =            0
     lattice parameter (alat)  =      17.8707  a.u.
     unit-cell volume          =   17436.2743 (a.u.)^3
     number of atoms/cell      =           36
     number of atomic types    =            3
     number of electrons       =       312.00
     number of Kohn-Sham states=          187
     kinetic-energy cutoff     =      80.0000  Ry
     charge density cutoff     =     650.0000  Ry
     scf convergence threshold =      1.0E-06
     mixing beta               =       0.7000
     number of iterations used =            8  local-TF  mixing
     energy convergence thresh.=      1.0E-04
     force convergence thresh. =      1.0E-02
     Exchange-correlation= RVV10
                           (   1   4  13   4  26   0   0)
     nstep                     =          200


     celldm(1)=  17.870686  celldm(2)=   0.000000  celldm(3)=   0.000000
     celldm(4)=   0.000000  celldm(5)=   0.000000  celldm(6)=   0.000000

     crystal axes: (cart. coord. in units of alat)
               a(1) = (   1.000000   0.000000   0.000000 )  
               a(2) = (   0.000000   1.155671   0.000000 )  
               a(3) = (   0.000000   0.000000   2.643601 )  

     reciprocal axes: (cart. coord. in units 2 pi/alat)
               b(1) = (  1.000000  0.000000  0.000000 )  
               b(2) = (  0.000000  0.865298  0.000000 )  
               b(3) = (  0.000000  0.000000  0.378272 )  


     PseudoPot. # 1 for Mo read from file:
     ../pseudo/Mo_ONCV_PBE-1.0.oncvpsp.upf
     MD5 check sum: 1b5d28e075c9ccadda658a603575cd1f
     Pseudo is Norm-conserving, Zval = 14.0
     Generated using ONCVPSP code by D. R. Hamann
     Using radial grid of 1526 points,  6 beta functions with: 
                l(1) =   0
                l(2) =   0
                l(3) =   1
                l(4) =   1
                l(5) =   2
                l(6) =   2

     PseudoPot. # 2 for S  read from file:
     ../pseudo/s_pbe_v1.4.uspp.F.UPF
     MD5 check sum: 88d86576ff6df21479756cfb9bdac1df
     Pseudo is Ultrasoft + core correction, Zval =  6.0
     Generated by new atomic code, or converted to UPF format
     Using radial grid of  907 points,  6 beta functions with: 
                l(1) =   0
                l(2) =   0
                l(3) =   1
                l(4) =   1
                l(5) =   2
                l(6) =   2
     Q(r) pseudized with  8 coefficients,  rinner =    1.300   1.300   1.300
                                                       1.300   1.300

     PseudoPot. # 3 for O  read from file:
     ../pseudo/O.pbe-n-kjpaw_psl.0.1.UPF
     MD5 check sum: 0234752ac141de4415c5fc33072bef88
     Pseudo is Projector augmented-wave + core cor, Zval =  6.0
     Generated using "atomic" code by A. Dal Corso  v.5.0.99 svn rev. 10869
     Shape of augmentation charge: BESSEL
     Using radial grid of 1095 points,  4 beta functions with: 
                l(1) =   0
                l(2) =   0
                l(3) =   1
                l(4) =   1
     Q(r) pseudized with 0 coefficients 


     atomic species   valence    mass     pseudopotential
        Mo            14.00    95.94000     Mo( 1.00)
        S              6.00    32.06500     S ( 1.00)
        O              6.00    15.99940     O ( 1.00)

     No symmetry found



   Cartesian axes

     site n.     atom                  positions (alat units)
         1           Mo  tau(   1) = (   0.6952221   0.1890506   0.2985846  )
         2           S   tau(   2) = (   0.8646417   0.0856217   0.4689279  )
         3           S   tau(   3) = (   0.8663890   0.0857843   0.1351291  )
         4           Mo  tau(   4) = (   0.8560186   0.4753274   0.2873942  )
         5           S   tau(   5) = (   0.6873294   0.3936244   0.4596353  )
         6           S   tau(   6) = (   0.6929804   0.3713468   0.1185692  )
         7           Mo  tau(   7) = (   0.6862796   0.7633098   0.2825370  )
         8           S   tau(   8) = (   0.8545980   0.6708292   0.4486168  )
         9           S   tau(   9) = (   0.8545123   0.6666874   0.1146125  )
        10           Mo  tau(  10) = (   0.8629403   1.0471007   0.3006803  )
        11           S   tau(  11) = (   0.6868280   0.9456650   0.4634891  )
        12           S   tau(  12) = (   0.6998113   0.9568511   0.1205389  )
        13           Mo  tau(  13) = (   0.3618216   0.1847309   0.2935964  )
        14           S   tau(  14) = (   0.5260962   0.0863870   0.4600448  )
        15           S   tau(  15) = (   0.5348379   0.0894875   0.1297123  )
        16           Mo  tau(  16) = (   0.5265817   0.4772436   0.2784130  )
        17           S   tau(  17) = (   0.3624753   0.3882513   0.4525556  )
        18           S   tau(  18) = (   0.3635411   0.3752055   0.1119148  )
        19           Mo  tau(  19) = (   0.3652268   0.7630864   0.2781795  )
        20           S   tau(  20) = (   0.5269494   0.6690381   0.1096838  )
        21           Mo  tau(  21) = (   0.5300192   1.0470394   0.2900995  )
        22           S   tau(  22) = (   0.3670346   0.9457522   0.4574073  )
        23           S   tau(  23) = (   0.3604225   0.9585725   0.1159032  )
        24           Mo  tau(  24) = (   0.0313099   0.1847895   0.3013130  )
        25           S   tau(  25) = (   0.1956761   0.0838230   0.4650863  )
        26           S   tau(  26) = (   0.1967693   0.0903508   0.1278874  )
        27           Mo  tau(  27) = (   0.1967578   0.4753919   0.2813011  )
        28           S   tau(  28) = (   0.0287851   0.3864324   0.4586755  )
        29           S   tau(  29) = (   0.0244514   0.3729871   0.1239344  )
        30           Mo  tau(  30) = (   0.0286728   0.7631204   0.2856894  )
        31           S   tau(  31) = (   0.2011512   0.6675435   0.4465001  )
        32           S   tau(  32) = (   0.1969214   0.6672839   0.1104564  )
        33           Mo  tau(  33) = (   0.1950294   1.0511147   0.2932237  )
        34           S   tau(  34) = (   0.0312912   0.9612169   0.4667423  )
        35           S   tau(  35) = (   0.0292670   0.9563028   0.1216485  )
        36           O   tau(  36) = (   0.4444444   0.2568157   0.5650415  )

     number of k points=     1  Gaussian smearing, width (Ry)=  0.0100
                       cart. coord. in units 2pi/alat
        k(    1) = (   0.0000000   0.0000000   0.0000000), wk =   2.0000000

     Dense  grid:  2439793 G-vectors     FFT dimensions: ( 150, 180, 384)

     Smooth grid:   842757 G-vectors     FFT dimensions: ( 108, 120, 270)

     Estimated max dynamical RAM per process >     269.22 MB

     Estimated total dynamical RAM >      12.62 GB

     Initial potential from superposition of free atoms

     starting charge     311.9873, renormalised to     312.0000

     negative rho (up, down):  2.743E-04 0.000E+00


---------------------------------------------------------------------------------
Carrying out rVV10 run using the following parameters:
Nqs =      20    Nr_points =    1024   r_max =   100.000
b_value =  6.30000    beta =  0.00901
     q_mesh =  0.00010000  0.00030000  0.00058939  0.00100810
               0.00161396  0.00249058  0.00375900  0.00559430
               0.00824984  0.01209221  0.01765183  0.02569619
               0.03733578  0.05417739  0.07854596  0.11380545
               0.16482331  0.23864234  0.34545298  0.50000000

Gradients computed in Reciprocal space

---------------------------------------------------------------------------------


     Starting wfcs are  216 randomized atomic wfcs
     Checking if some PAW data can be deallocated... 

     total cpu time spent up to now is        5.4 secs

     Self-consistent Calculation

     iteration #  1     ecut=    80.00 Ry     beta= 0.70
     Davidson diagonalization with overlap
     ethr =  1.00E-02,  avg # of iterations =  2.0

     Threshold (ethr) on eigenvalues was too large:
     Diagonalizing with lowered threshold

     Davidson diagonalization with overlap
     ethr =  4.13E-04,  avg # of iterations =  4.0

     negative rho (up, down):  4.412E-08 0.000E+00

     total cpu time spent up to now is       20.3 secs

     total energy              =   -2246.21527951 Ry
     estimated scf accuracy    <       1.54207266 Ry

     iteration #  2     ecut=    80.00 Ry     beta= 0.70
     Davidson diagonalization with overlap
     ethr =  4.94E-04,  avg # of iterations =  3.0

     total cpu time spent up to now is       25.4 secs

     total energy              =   -2246.19858997 Ry
     estimated scf accuracy    <       0.70145917 Ry

     iteration #  3     ecut=    80.00 Ry     beta= 0.70
     Davidson diagonalization with overlap
     ethr =  2.25E-04,  avg # of iterations =  2.0

     total cpu time spent up to now is       29.2 secs

     total energy              =   -2246.18456682 Ry
     estimated scf accuracy    <       0.23077548 Ry

     iteration #  4     ecut=    80.00 Ry     beta= 0.70
     Davidson diagonalization with overlap
     ethr =  7.40E-05,  avg # of iterations =  8.0

     total cpu time spent up to now is       33.4 secs

     total energy              =   -2246.22442330 Ry
     estimated scf accuracy    <       0.03242037 Ry

     iteration #  5     ecut=    80.00 Ry     beta= 0.70
     Davidson diagonalization with overlap
     ethr =  1.04E-05,  avg # of iterations = 20.0

     total cpu time spent up to now is       38.4 secs

     total energy              =   -2246.22628335 Ry
     estimated scf accuracy    <       0.01668743 Ry

     iteration #  6     ecut=    80.00 Ry     beta= 0.70
     Davidson diagonalization with overlap
     ethr =  5.35E-06,  avg # of iterations =  2.0

     total cpu time spent up to now is       42.1 secs

     total energy              =   -2246.22589171 Ry
     estimated scf accuracy    <       0.01225040 Ry

     iteration #  7     ecut=    80.00 Ry     beta= 0.70
     Davidson diagonalization with overlap
     ethr =  3.93E-06,  avg # of iterations =  1.0

     total cpu time spent up to now is       45.6 secs

     total energy              =   -2246.22493217 Ry
     estimated scf accuracy    <       0.00785442 Ry

     iteration #  8     ecut=    80.00 Ry     beta= 0.70
     Davidson diagonalization with overlap
     ethr =  2.52E-06,  avg # of iterations =  1.0

     negative rho (up, down):  3.235E-03 0.000E+00

     total cpu time spent up to now is       51.8 secs

     total energy              =   -2246.22363099 Ry
     estimated scf accuracy    <       0.00462441 Ry

     iteration #  9     ecut=    80.00 Ry     beta= 0.70
     Davidson diagonalization with overlap
     ethr =  1.48E-06,  avg # of iterations =  2.0

     negative rho (up, down):  1.577E-02 0.000E+00

     total cpu time spent up to now is       58.3 secs

     total energy              =   -2246.22356490 Ry
     estimated scf accuracy    <       0.00237025 Ry

     iteration # 10     ecut=    80.00 Ry     beta= 0.70
     Davidson diagonalization with overlap
     ethr =  7.60E-07,  avg # of iterations =  2.0

     negative rho (up, down):  2.209E-02 0.000E+00

     total cpu time spent up to now is       64.6 secs

     total energy              =   -2246.22350386 Ry
     estimated scf accuracy    <       0.00120563 Ry

     iteration # 11     ecut=    80.00 Ry     beta= 0.70
     Davidson diagonalization with overlap
     ethr =  3.86E-07,  avg # of iterations =  2.0

     negative rho (up, down):  1.769E-02 0.000E+00

     total cpu time spent up to now is       72.1 secs

     total energy              =   -2246.22355228 Ry
     estimated scf accuracy    <       0.00037675 Ry

     iteration # 12     ecut=    80.00 Ry     beta= 0.70
     Davidson diagonalization with overlap
     ethr =  1.21E-07,  avg # of iterations =  2.0

     negative rho (up, down):  6.741E-03 0.000E+00

     total cpu time spent up to now is       79.2 secs

     total energy              =   -2246.22356139 Ry
     estimated scf accuracy    <       0.00006433 Ry

     iteration # 13     ecut=    80.00 Ry     beta= 0.70
     Davidson diagonalization with overlap
     ethr =  2.06E-08,  avg # of iterations =  5.0

     negative rho (up, down):  2.055E-03 0.000E+00

     total cpu time spent up to now is       88.9 secs

     total energy              =   -2246.22360850 Ry
     estimated scf accuracy    <       0.00001479 Ry

     iteration # 14     ecut=    80.00 Ry     beta= 0.70
     Davidson diagonalization with overlap
     ethr =  4.74E-09,  avg # of iterations =  2.0

     negative rho (up, down):  6.753E-04 0.000E+00

     total cpu time spent up to now is       97.7 secs

     total energy              =   -2246.22361029 Ry
     estimated scf accuracy    <       0.00000466 Ry

     iteration # 15     ecut=    80.00 Ry     beta= 0.70
     Davidson diagonalization with overlap
     ethr =  1.49E-09,  avg # of iterations =  4.0

     negative rho (up, down):  3.397E-04 0.000E+00

     total cpu time spent up to now is      106.2 secs

     total energy              =   -2246.22361368 Ry
     estimated scf accuracy    <       0.00000157 Ry

     iteration # 16     ecut=    80.00 Ry     beta= 0.70
     Davidson diagonalization with overlap
     ethr =  5.03E-10,  avg # of iterations =  3.0

     negative rho (up, down):  1.968E-04 0.000E+00

     total cpu time spent up to now is      109.8 secs

     End of self-consistent calculation

          k = 0.0000 0.0000 0.0000 (105382 PWs)   bands (ev):

   -63.0191 -62.9677 -62.9467 -62.9321 -62.9186 -62.9111 -62.8905 -62.8827
   -62.8716 -62.8669 -62.8596 -62.8461 -37.3294 -37.2748 -37.2549 -37.2484
   -37.2186 -37.2050 -37.1903 -37.1731 -37.1621 -37.1533 -37.1440 -37.1355
   -37.1266 -37.1156 -37.1082 -37.0947 -37.0937 -37.0847 -37.0778 -37.0615
   -37.0599 -37.0387 -37.0317 -37.0280 -37.0177 -37.0087 -37.0028 -36.9969
   -36.9788 -36.9657 -36.9603 -36.9406 -36.9228 -36.8882 -36.8450 -36.8098
   -20.3158 -16.0076 -15.4317 -15.1986 -15.0753 -14.9739 -14.8962 -14.7592
   -14.5529 -14.5370 -14.4881 -14.4633 -14.4321 -14.4008 -14.3004 -14.2625
   -14.2115 -14.1764 -14.1690 -14.0598 -13.9466 -13.9370 -13.8966 -13.8593
    -8.1180  -7.7473  -7.5875  -7.4868  -7.4471  -7.3471  -7.3138  -7.2685
    -7.2202  -6.9565  -6.9347  -6.8632  -6.8422  -6.7399  -6.7226  -6.5760
    -6.5547  -6.4989  -6.3915  -6.3423  -6.1638  -6.0837  -6.0105  -5.9453
    -5.8790  -5.8528  -5.8141  -5.7685  -5.7415  -5.7259  -5.6951  -5.6158
    -5.5988  -5.5295  -5.4675  -5.3150  -5.2378  -5.1931  -5.1262  -5.1031
    -5.0777  -5.0642  -4.9355  -4.8132  -4.7045  -4.6154  -4.4347  -4.4086
    -4.3301  -4.3088  -4.1589  -4.1084  -4.0958  -4.0145  -3.9170  -3.8799
    -3.7899  -3.7772  -3.6894  -3.6556  -3.6408  -3.5900  -3.5802  -3.5553
    -3.5102  -3.4779  -3.3062  -3.2723  -3.0462  -2.9801  -2.9609  -2.9300
    -2.8551  -2.8361  -2.7892  -2.7687  -2.7414  -2.7126  -2.6263  -2.3434
    -2.1532  -2.0871  -1.9818  -1.6561  -1.3850  -0.8085  -0.7410  -0.2528
    -0.2206  -0.1654  -0.1318  -0.0483   0.0705   0.0910   0.1546   0.1893
     0.2538   0.3064   0.3612   0.4024   0.4477   0.4709   0.5202   0.5374
     0.5882   0.6418   0.6507   0.6887   0.7627   0.7808   0.8075   0.8670
     0.9039   1.0715   1.0860

     the Fermi energy is    -1.5206 ev

!    total energy              =   -2246.22361367 Ry
     estimated scf accuracy    <       0.00000066 Ry
     smearing contrib. (-TS)   =      -0.00418418 Ry
     internal energy E=F+TS    =   -2246.21942950 Ry

     The total energy is F=E-TS. E is the sum of the following terms:
     one-electron contribution =  -18455.61074699 Ry
     hartree contribution      =    9215.81622907 Ry
     xc contribution           =    -391.94919227 Ry
     ewald contribution        =    7395.39737023 Ry
     one-center paw contrib.   =      -9.87308954 Ry

     convergence has been achieved in  16 iterations

     negative rho (up, down):  1.968E-04 0.000E+00

     Forces acting on atoms (cartesian axes, Ry/au):

     atom    1 type  1   force =     0.00835915   -0.01779456    0.01060667
     atom    2 type  2   force =    -0.01597741    0.01472859    0.00122845
     atom    3 type  2   force =    -0.00836816    0.00725153   -0.00470088
     atom    4 type  1   force =     0.00143635    0.00543404    0.00167833
     atom    5 type  2   force =     0.00167179   -0.00381806   -0.01394980
     atom    6 type  2   force =     0.00115112    0.00983534   -0.00053738
     atom    7 type  1   force =     0.00562627   -0.01679866   -0.00897310
     atom    8 type  2   force =     0.00067364   -0.00449354    0.01818636
     atom    9 type  2   force =     0.01259649    0.00637647    0.01203352
     atom   10 type  1   force =    -0.00819188    0.00958170   -0.02538746
     atom   11 type  2   force =     0.00438297    0.00021400   -0.00903333
     atom   12 type  2   force =    -0.00124621    0.00359260    0.00604239
     atom   13 type  1   force =    -0.01894047   -0.02239415   -0.05816220
     atom   14 type  2   force =     0.01553830    0.01755138    0.00748565
     atom   15 type  2   force =    -0.01256026    0.00199050   -0.00708999
     atom   16 type  1   force =     0.00984238    0.00691033    0.01090487
     atom   17 type  2   force =     0.07831312   -0.03525028    0.04642274
     atom   18 type  2   force =    -0.00546759   -0.00578046    0.01453732
     atom   19 type  1   force =     0.00212967   -0.01976706   -0.00913736
     atom   20 type  2   force =     0.00199797    0.00180378   -0.00004871
     atom   21 type  1   force =     0.00269000   -0.01302813   -0.00828455
     atom   22 type  2   force =    -0.00475750   -0.00215260   -0.00081823
     atom   23 type  2   force =    -0.00005883    0.00013297    0.00915725
     atom   24 type  1   force =    -0.01058231   -0.00406410   -0.02510306
     atom   25 type  2   force =     0.01538184    0.01498447    0.00625014
     atom   26 type  2   force =    -0.00437108    0.00185870   -0.00314816
     atom   27 type  1   force =    -0.02022643    0.00866992    0.00229385
     atom   28 type  2   force =    -0.00404111    0.00133591   -0.00644287
     atom   29 type  2   force =     0.00516458   -0.00348073   -0.00578523
     atom   30 type  1   force =    -0.00387717    0.01150294   -0.00617358
     atom   31 type  2   force =     0.00000127    0.00496825    0.01821075
     atom   32 type  2   force =    -0.01015616    0.00408909    0.00741781
     atom   33 type  1   force =     0.00987400   -0.00530125   -0.00850914
     atom   34 type  2   force =     0.00361272   -0.04340480   -0.00881110
     atom   35 type  2   force =    -0.00868560    0.00643293    0.01549940
     atom   36 type  3   force =    -0.04293542    0.05828293    0.02214063
     The non-local contrib.  to forces
     atom    1 type  1   force =     0.00599726    0.01418184   -0.00753313
     atom    2 type  2   force =    -0.00926460    0.00420687   -0.27194246
     atom    3 type  2   force =    -0.01421094   -0.00135834    0.27117056
     atom    4 type  1   force =    -0.00467563    0.00886594    0.00692292
     atom    5 type  2   force =     0.01631214   -0.01981919   -0.25687003
     atom    6 type  2   force =     0.00155236    0.01588543    0.25555696
     atom    7 type  1   force =    -0.01752782    0.00218110   -0.01749248
     atom    8 type  2   force =     0.00161172   -0.00519446   -0.25768374
     atom    9 type  2   force =     0.00815817   -0.00916438    0.27608180
     atom   10 type  1   force =     0.00669880    0.00108515   -0.00166615
     atom   11 type  2   force =     0.01472667    0.00511570   -0.25859419
     atom   12 type  2   force =    -0.01651758   -0.01948110    0.26526976
     atom   13 type  1   force =     0.00367317    0.01659910   -0.00656776
     atom   14 type  2   force =    -0.03572777    0.13303262   -0.12337525
     atom   15 type  2   force =    -0.01275911   -0.00405710    0.26103586
     atom   16 type  1   force =    -0.01357701    0.03169342   -0.02154404
     atom   17 type  2   force =     0.16840221   -0.30774589    0.06362755
     atom   18 type  2   force =    -0.00310420   -0.00062122    0.27249357
     atom   19 type  1   force =     0.01290932    0.01509575   -0.01365698
     atom   20 type  2   force =    -0.00039130   -0.01862395    0.26352538
     atom   21 type  1   force =     0.01462316    0.03783693    0.00468837
     atom   22 type  2   force =    -0.00833049   -0.00182457   -0.25729295
     atom   23 type  2   force =     0.00502479   -0.01441685    0.26657608
     atom   24 type  1   force =     0.00424240    0.01507910   -0.00531280
     atom   25 type  2   force =    -0.00552883    0.00103462   -0.26729818
     atom   26 type  2   force =     0.00366814   -0.01023992    0.26614415
     atom   27 type  1   force =    -0.00287220   -0.00616278    0.00250085
     atom   28 type  2   force =    -0.00990588   -0.02144244   -0.27676950
     atom   29 type  2   force =     0.00928041    0.00271188    0.26386461
     atom   30 type  1   force =    -0.00276535    0.02277754    0.01133553
     atom   31 type  2   force =    -0.00268869    0.00492945   -0.25266472
     atom   32 type  2   force =    -0.00424428   -0.01185884    0.27660624
     atom   33 type  1   force =    -0.00648078    0.01114782    0.00650008
     atom   34 type  2   force =     0.00015630   -0.03541455   -0.27468144
     atom   35 type  2   force =    -0.00406548   -0.01041051    0.27108823
     atom   36 type  3   force =    -0.27377621    0.57002176   -0.77572376
     The ionic contribution  to forces
     atom    1 type  1   force =     2.38868158   -0.40954080    2.67770316
     atom    2 type  2   force =    -0.25192104    0.00232025   38.97104082
     atom    3 type  2   force =    -0.07201434   -0.12034951  -36.73751928
     atom    4 type  1   force =     0.56726768    1.24588147   -0.74543850
     atom    5 type  2   force =     0.83970848    2.60522178   37.79817657
     atom    6 type  2   force =     0.56927000   -0.35884500  -38.89468586
     atom    7 type  1   force =    -2.30532955   -2.45097053    1.49110057
     atom    8 type  2   force =    -0.84347239    0.32248225   37.16692650
     atom    9 type  2   force =     0.38744802    0.07718896  -38.51196090
     atom   10 type  1   force =    -0.84490073   -0.90688806    4.60190251
     atom   11 type  2   force =    -0.32427669   -1.95046877   38.91736180
     atom   12 type  2   force =     0.52230264    0.57854623  -38.38867457
     atom   13 type  1   force =    -1.08213086   -0.44229266   -3.05783367
     atom   14 type  2   force =     1.80384967   -3.70789918   36.13835735
     atom   15 type  2   force =     0.29031669   -0.34269923  -37.85569144
     atom   16 type  1   force =     0.68031848    5.94162809   -2.73291030
     atom   17 type  2   force =    -1.74163780    5.64664057   34.27885759
     atom   18 type  2   force =    -0.27922102   -0.44747096  -39.65032243
     atom   19 type  1   force =     2.56500580   -2.00922900   -0.57289204
     atom   20 type  2   force =     0.27411502   -0.01133594  -39.10349591
     atom   21 type  1   force =     0.37288363   -1.30981541   -0.58569245
     atom   22 type  2   force =     0.33470303   -2.22429150   38.14228264
     atom   23 type  2   force =    -0.12761341    0.51969971  -38.87994433
     atom   24 type  1   force =    -1.27545927    0.82000639    4.17750461
     atom   25 type  2   force =    -0.80922299   -0.84648119   38.52547414
     atom   26 type  2   force =    -0.50280611   -0.13127620  -38.16631219
     atom   27 type  1   force =    -1.08405471    1.58610476   -4.38497490
     atom   28 type  2   force =    -0.43669686    1.34562850   37.83589899
     atom   29 type  2   force =    -0.36308876   -0.33072438  -37.94325235
     atom   30 type  1   force =    -0.49174709   -0.67761276   -0.96473841
     atom   31 type  2   force =     0.91473451    0.45843179   37.02597389
     atom   32 type  2   force =    -0.56822840    0.14158327  -39.20037510
     atom   33 type  1   force =     0.20706159   -1.79694950    0.67585190
     atom   34 type  2   force =     0.11930370   -1.67537218   39.17844776
     atom   35 type  2   force =    -0.33989871    0.39124140  -38.30237482
     atom   36 type  3   force =     0.90675024    0.46790730   47.07622866
     The local contribution  to forces
     atom    1 type  1   force =    -2.38620260    0.37766043   -2.66050199
     atom    2 type  2   force =     0.24499522    0.00847486  -38.71881051
     atom    3 type  2   force =     0.07723764    0.12902535   36.48196276
     atom    4 type  1   force =    -0.56105867   -1.24937407    0.73928327
     atom    5 type  2   force =    -0.85285753   -2.59016901  -37.57628835
     atom    6 type  2   force =    -0.56979961    0.35410367   38.65850005
     atom    7 type  1   force =     2.32835449    2.43182674   -1.48349126
     atom    8 type  2   force =     0.84254771   -0.32240840  -36.91179875
     atom    9 type  2   force =    -0.38280458   -0.06221460   38.26828913
     atom   10 type  1   force =     0.83000541    0.91541858   -4.62652180
     atom   11 type  2   force =     0.31459376    1.94609182  -38.68850625
     atom   12 type  2   force =    -0.50833231   -0.55695140   38.14976346
     atom   13 type  1   force =     1.05941093    0.40339976    3.00518589
     atom   14 type  2   force =    -1.75416077    3.59909366  -36.02156362
     atom   15 type  2   force =    -0.29082539    0.34850669   37.60751654
     atom   16 type  1   force =    -0.65696453   -5.96622885    2.76435449
     atom   17 type  2   force =     1.66087716   -5.39132640  -34.29939029
     atom   18 type  2   force =     0.27680016    0.44298190   39.41280194
     atom   19 type  1   force =    -2.57573339    1.97419313    0.57651499
     atom   20 type  2   force =    -0.27191584    0.03101986   38.86045754
     atom   21 type  1   force =    -0.38485994    1.25897728    0.57175746
     atom   22 type  2   force =    -0.33136413    2.22414594  -37.90643237
     atom   23 type  2   force =     0.12295136   -0.50642228   38.64272445
     atom   24 type  1   force =     1.26063570   -0.83900537   -4.19812703
     atom   25 type  2   force =     0.82933436    0.86063630  -38.27326081
     atom   26 type  2   force =     0.49523568    0.14289344   37.91740535
     atom   27 type  1   force =     1.06669208   -1.57125774    4.38383791
     atom   28 type  2   force =     0.44215158   -1.32448006  -37.58684229
     atom   29 type  2   force =     0.35968727    0.32517953   37.69359868
     atom   30 type  1   force =     0.49070702    0.66616639    0.94627286
     atom   31 type  2   force =    -0.91220290   -0.45845899  -36.77574954
     atom   32 type  2   force =     0.56238942   -0.12639470   38.95180676
     atom   33 type  1   force =    -0.19065161    1.78052421   -0.69178126
     atom   34 type  2   force =    -0.11616685    1.66624279  -38.93389485
     atom   35 type  2   force =     0.33528183   -0.37534787   38.06724309
     atom   36 type  3   force =    -0.67899392   -0.97288143  -46.28650734
     The core correction contribution to forces
     atom    1 type  1   force =     0.00000000    0.00000000    0.00000000
     atom    2 type  2   force =     0.00023046   -0.00022806    0.02084294
     atom    3 type  2   force =     0.00062392   -0.00003315   -0.02092785
     atom    4 type  1   force =     0.00000000    0.00000000    0.00000000
     atom    5 type  2   force =    -0.00142480    0.00098768    0.02090924
     atom    6 type  2   force =     0.00012662   -0.00131239   -0.02051952
     atom    7 type  1   force =     0.00000000    0.00000000    0.00000000
     atom    8 type  2   force =    -0.00001596    0.00059108    0.02059655
     atom    9 type  2   force =    -0.00018695    0.00054286   -0.02097342
     atom   10 type  1   force =     0.00000000    0.00000000    0.00000000
     atom   11 type  2   force =    -0.00065996   -0.00054946    0.02060971
     atom   12 type  2   force =     0.00130859    0.00146973   -0.02095341
     atom   13 type  1   force =     0.00000000    0.00000000    0.00000000
     atom   14 type  2   force =     0.00162722   -0.00676902    0.01396837
     atom   15 type  2   force =     0.00070273    0.00027280   -0.02060763
     atom   16 type  1   force =     0.00000000    0.00000000    0.00000000
     atom   17 type  2   force =    -0.00945835    0.01732951    0.00313932
     atom   18 type  2   force =     0.00004002   -0.00066014   -0.02102879
     atom   19 type  1   force =     0.00000000    0.00000000    0.00000000
     atom   20 type  2   force =     0.00016251    0.00072013   -0.02109688
     atom   21 type  1   force =     0.00000000    0.00000000    0.00000000
     atom   22 type  2   force =     0.00022119   -0.00023999    0.02050426
     atom   23 type  2   force =    -0.00043338    0.00124582   -0.02081349
     atom   24 type  1   force =     0.00000000    0.00000000    0.00000000
     atom   25 type  2   force =     0.00075228   -0.00018400    0.02123098
     atom   26 type  2   force =    -0.00046976    0.00051877   -0.02099539
     atom   27 type  1   force =     0.00000000    0.00000000    0.00000000
     atom   28 type  2   force =     0.00043178    0.00163744    0.02113282
     atom   29 type  2   force =    -0.00070557   -0.00063244   -0.02056888
     atom   30 type  1   force =     0.00000000    0.00000000    0.00000000
     atom   31 type  2   force =     0.00019770    0.00001507    0.02048010
     atom   32 type  2   force =    -0.00006291    0.00072741   -0.02117005
     atom   33 type  1   force =     0.00000000    0.00000000    0.00000000
     atom   34 type  2   force =     0.00033451    0.00112435    0.02121888
     atom   35 type  2   force =    -0.00000191    0.00093493   -0.02109158
     atom   36 type  3   force =     0.00300505   -0.00669288    0.00793887
     The Hubbard contrib.    to forces
     atom    1 type  1   force =     0.00000000    0.00000000    0.00000000
     atom    2 type  2   force =     0.00000000    0.00000000    0.00000000
     atom    3 type  2   force =     0.00000000    0.00000000    0.00000000
     atom    4 type  1   force =     0.00000000    0.00000000    0.00000000
     atom    5 type  2   force =     0.00000000    0.00000000    0.00000000
     atom    6 type  2   force =     0.00000000    0.00000000    0.00000000
     atom    7 type  1   force =     0.00000000    0.00000000    0.00000000
     atom    8 type  2   force =     0.00000000    0.00000000    0.00000000
     atom    9 type  2   force =     0.00000000    0.00000000    0.00000000
     atom   10 type  1   force =     0.00000000    0.00000000    0.00000000
     atom   11 type  2   force =     0.00000000    0.00000000    0.00000000
     atom   12 type  2   force =     0.00000000    0.00000000    0.00000000
     atom   13 type  1   force =     0.00000000    0.00000000    0.00000000
     atom   14 type  2   force =     0.00000000    0.00000000    0.00000000
     atom   15 type  2   force =     0.00000000    0.00000000    0.00000000
     atom   16 type  1   force =     0.00000000    0.00000000    0.00000000
     atom   17 type  2   force =     0.00000000    0.00000000    0.00000000
     atom   18 type  2   force =     0.00000000    0.00000000    0.00000000
     atom   19 type  1   force =     0.00000000    0.00000000    0.00000000
     atom   20 type  2   force =     0.00000000    0.00000000    0.00000000
     atom   21 type  1   force =     0.00000000    0.00000000    0.00000000
     atom   22 type  2   force =     0.00000000    0.00000000    0.00000000
     atom   23 type  2   force =     0.00000000    0.00000000    0.00000000
     atom   24 type  1   force =     0.00000000    0.00000000    0.00000000
     atom   25 type  2   force =     0.00000000    0.00000000    0.00000000
     atom   26 type  2   force =     0.00000000    0.00000000    0.00000000
     atom   27 type  1   force =     0.00000000    0.00000000    0.00000000
     atom   28 type  2   force =     0.00000000    0.00000000    0.00000000
     atom   29 type  2   force =     0.00000000    0.00000000    0.00000000
     atom   30 type  1   force =     0.00000000    0.00000000    0.00000000
     atom   31 type  2   force =     0.00000000    0.00000000    0.00000000
     atom   32 type  2   force =     0.00000000    0.00000000    0.00000000
     atom   33 type  1   force =     0.00000000    0.00000000    0.00000000
     atom   34 type  2   force =     0.00000000    0.00000000    0.00000000
     atom   35 type  2   force =     0.00000000    0.00000000    0.00000000
     atom   36 type  3   force =     0.00000000    0.00000000    0.00000000
     The SCF correction term to forces
     atom    1 type  1   force =    -0.00011775   -0.00009492    0.00091239
     atom    2 type  2   force =    -0.00001811   -0.00004423    0.00007143
     atom    3 type  2   force =    -0.00000509   -0.00003172    0.00058670
     atom    4 type  1   force =    -0.00009769    0.00006181    0.00088441
     atom    5 type  2   force =    -0.00006714   -0.00003822    0.00009653
     atom    6 type  2   force =     0.00000109    0.00000473    0.00058477
     atom    7 type  1   force =     0.00012849    0.00016513    0.00088384
     atom    8 type  2   force =     0.00000190    0.00003710    0.00011957
     atom    9 type  2   force =    -0.00001883    0.00002474    0.00057068
     atom   10 type  1   force =     0.00000398   -0.00003286    0.00087174
     atom   11 type  2   force =    -0.00000147    0.00002581    0.00006937
     atom   12 type  2   force =    -0.00000822    0.00001025    0.00061093
     atom   13 type  1   force =     0.00010562   -0.00009924    0.00102710
     atom   14 type  2   force =    -0.00005070    0.00009441    0.00007256
     atom   15 type  2   force =     0.00000415   -0.00003155    0.00063044
     atom   16 type  1   force =     0.00006478   -0.00018122    0.00097849
     atom   17 type  2   force =     0.00012925   -0.00014697    0.00016234
     atom   18 type  2   force =     0.00001679   -0.00000893    0.00056679
     atom   19 type  1   force =    -0.00005272    0.00017417    0.00087043
     atom   20 type  2   force =     0.00002693    0.00002478    0.00053492
     atom   21 type  1   force =     0.00004250   -0.00002583    0.00093584
     atom   22 type  2   force =     0.00001224    0.00005863    0.00009396
     atom   23 type  2   force =     0.00001115    0.00002766    0.00058831
     atom   24 type  1   force =    -0.00000179   -0.00014312    0.00080593
     atom   25 type  2   force =     0.00004636   -0.00002016    0.00007777
     atom   26 type  2   force =     0.00000031   -0.00003628    0.00058369
     atom   27 type  1   force =     0.00000774   -0.00001320    0.00090377
     atom   28 type  2   force =    -0.00002239   -0.00000642    0.00011087
     atom   29 type  2   force =    -0.00000942   -0.00001421    0.00054649
     atom   30 type  1   force =    -0.00007241    0.00017289    0.00093021
     atom   31 type  2   force =    -0.00004001    0.00005203    0.00014479
     atom   32 type  2   force =    -0.00001065    0.00003306    0.00052375
     atom   33 type  1   force =    -0.00005585   -0.00002267    0.00089390
     atom   34 type  2   force =    -0.00001560    0.00001590    0.00007233
     atom   35 type  2   force =    -0.00000198    0.00001608    0.00060825
     atom   36 type  3   force =     0.00007877   -0.00007070    0.00017798

     Total force =     0.174269     Total SCF correction =     0.003798

     BFGS Geometry Optimization
     Energy error            =      0.0E+00 Ry
     Gradient error          =      7.8E-02 Ry/Bohr

     number of scf cycles    =   1
     number of bfgs steps    =   0

     energy             new  =   -2246.2236136728 Ry

     new trust radius        =       0.0976247842 bohr
     new conv_thr            =       0.0000010000 Ry


ATOMIC_POSITIONS (angstrom)
Mo            6.5789718780        1.7783897523        2.8292558386
S             8.1682544574        0.8174980581        4.4351884224
S             8.1888048474        0.8150790878        1.2753958258
Mo            8.0959226479        4.4979325162        2.7187065300
S             6.5007939307        3.7203910587        4.3392787327
S             6.5539589427        3.5169421911        1.1209958599
Mo            6.4929589918        7.2095478158        2.6671361250
S             8.0820842052        6.3414931139        4.2520853693
S             8.0875834242        6.3080766004        1.0902308616
Mo            8.1562840928        9.9072508328        2.8300272938
S             6.4974869613        8.9430400603        4.3783253026
S             6.6172877315        9.0506123335        1.1431047984
Mo            3.4116367954        1.7351053790        2.7456930529
S             4.9833880048        0.8262290005        4.3544943263
S             5.0511871491        0.8473154337        1.2229066003
Mo            4.9849650437        4.5168347944        2.6386551602
S             3.4692831821        3.6529460401        4.3042754360
S             3.4350272587        3.5451698124        1.0660444998
Mo            3.4549887119        7.2058642612        2.6258415793
S             4.9842914719        6.3278868030        1.0372279536
Mo            5.0136874064        9.8947058611        2.7390169640
S             3.4684405549        8.9426121635        4.3251583216
S             3.4083980320        9.0650603474        1.1009141067
Mo            0.2904905695        1.7453589026        2.8361607433
S             1.8586019297        0.8006234458        4.4015168694
S             1.8584869561        0.8554095013        1.2077349184
Mo            1.8499879426        4.5002546871        2.6614112353
S             0.2700753847        3.6551057588        4.3341746775
S             0.2339641872        3.5254073049        1.1689564730
Mo            0.2691004396        7.2227331904        2.6984295097
S             1.9022389193        6.3154279203        4.2320808334
S             1.8568638053        6.3125076635        1.0484846209
Mo            1.8495717607        9.9373338515        2.7684434064
S             0.2978246658        9.0670289950        4.4092068347
S             0.2721751772        9.0469298720        1.1586027098
O             4.1802839967        2.4594864446        5.3551780794



     Writing config-only to output data dir ./MoS2-V-O.save/
     NEW-OLD atomic charge density approx. for the potential

     negative rho (up, down):  2.021E-04 0.000E+00

     total cpu time spent up to now is      117.0 secs

     Self-consistent Calculation

     iteration #  1     ecut=    80.00 Ry     beta= 0.70
     Davidson diagonalization with overlap
     ethr =  1.00E-06,  avg # of iterations = 12.0

     negative rho (up, down):  1.638E-04 0.000E+00

     total cpu time spent up to now is      131.9 secs

     total energy              =   -2246.24974098 Ry
     estimated scf accuracy    <       0.00791316 Ry

     iteration #  2     ecut=    80.00 Ry     beta= 0.70
     Davidson diagonalization with overlap
     ethr =  2.54E-06,  avg # of iterations =  5.0

     negative rho (up, down):  1.600E-04 0.000E+00

     total cpu time spent up to now is      143.3 secs

     total energy              =   -2246.25051377 Ry
     estimated scf accuracy    <       0.00260673 Ry

     iteration #  3     ecut=    80.00 Ry     beta= 0.70
     Davidson diagonalization with overlap
     ethr =  8.35E-07,  avg # of iterations =  4.0

     negative rho (up, down):  1.474E-04 0.000E+00

     total cpu time spent up to now is      154.4 secs

     total energy              =   -2246.25073335 Ry
     estimated scf accuracy    <       0.00029082 Ry

     iteration #  4     ecut=    80.00 Ry     beta= 0.70
     Davidson diagonalization with overlap
     ethr =  9.32E-08,  avg # of iterations =  5.0

     negative rho (up, down):  1.479E-04 0.000E+00

     total cpu time spent up to now is      170.6 secs

     total energy              =   -2246.25077741 Ry
     estimated scf accuracy    <       0.00002116 Ry

     iteration #  5     ecut=    80.00 Ry     beta= 0.70
     Davidson diagonalization with overlap
     ethr =  6.78E-09,  avg # of iterations =  5.0

     negative rho (up, down):  1.517E-04 0.000E+00

     total cpu time spent up to now is      185.8 secs

     total energy              =   -2246.25078456 Ry
     estimated scf accuracy    <       0.00000701 Ry

     iteration #  6     ecut=    80.00 Ry     beta= 0.70
     Davidson diagonalization with overlap
     ethr =  2.25E-09,  avg # of iterations =  3.0

     negative rho (up, down):  1.555E-04 0.000E+00

     total cpu time spent up to now is      199.1 secs

     total energy              =   -2246.25078535 Ry
     estimated scf accuracy    <       0.00000146 Ry

     iteration #  7     ecut=    80.00 Ry     beta= 0.70
     Davidson diagonalization with overlap
     ethr =  4.69E-10,  avg # of iterations =  5.0

     negative rho (up, down):  1.987E-04 0.000E+00

     total cpu time spent up to now is      202.8 secs

     End of self-consistent calculation

          k = 0.0000 0.0000 0.0000 (105382 PWs)   bands (ev):

   -63.0461 -62.9793 -62.9388 -62.9185 -62.9079 -62.9013 -62.8869 -62.8765
   -62.8668 -62.8652 -62.8588 -62.8531 -37.3327 -37.2860 -37.2629 -37.2524
   -37.2282 -37.2010 -37.1873 -37.1730 -37.1565 -37.1475 -37.1472 -37.1321
   -37.1257 -37.1038 -37.1030 -37.0911 -37.0857 -37.0768 -37.0680 -37.0571
   -37.0545 -37.0430 -37.0340 -37.0287 -37.0173 -37.0110 -37.0015 -36.9968
   -36.9837 -36.9570 -36.9531 -36.9388 -36.9179 -36.8791 -36.8503 -36.8131
   -20.6943 -16.0071 -15.3692 -15.2058 -15.0634 -14.9644 -14.8826 -14.7349
   -14.5542 -14.5218 -14.4948 -14.4670 -14.4332 -14.3980 -14.3096 -14.2545
   -14.2189 -14.1795 -14.1727 -14.0321 -13.9599 -13.9271 -13.9080 -13.8125
    -8.1775  -7.7539  -7.5832  -7.5095  -7.4571  -7.3602  -7.3035  -7.2665
    -7.2282  -6.9670  -6.9241  -6.8708  -6.8383  -6.7503  -6.7174  -6.5866
    -6.5525  -6.5056  -6.4051  -6.3375  -6.1675  -6.0853  -5.9930  -5.9433
    -5.8734  -5.8523  -5.8119  -5.7623  -5.7405  -5.7145  -5.6959  -5.6304
    -5.5990  -5.5134  -5.4604  -5.2970  -5.2299  -5.2011  -5.1202  -5.0883
    -5.0775  -5.0659  -4.9506  -4.8116  -4.7401  -4.6134  -4.4376  -4.4043
    -4.3284  -4.3198  -4.1715  -4.1248  -4.0865  -4.0131  -3.9274  -3.9015
    -3.7881  -3.7736  -3.7022  -3.6580  -3.6466  -3.5811  -3.5717  -3.5479
    -3.5073  -3.4792  -3.3106  -3.2760  -3.0907  -2.9797  -2.9505  -2.9091
    -2.8501  -2.8265  -2.7973  -2.7778  -2.7460  -2.7179  -2.6357  -2.3374
    -2.1701  -2.0906  -2.0068  -1.6767  -1.3494  -0.7912  -0.7312  -0.2454
    -0.2309  -0.1488  -0.1151  -0.0275   0.0685   0.0953   0.1614   0.2049
     0.2840   0.3251   0.3637   0.4021   0.4532   0.4827   0.5218   0.5370
     0.5855   0.6303   0.6780   0.6900   0.7508   0.7950   0.8143   0.8771
     0.9081   1.0557   1.0904

     the Fermi energy is    -1.5131 ev

!    total energy              =   -2246.25078535 Ry
     estimated scf accuracy    <       0.00000026 Ry
     smearing contrib. (-TS)   =      -0.00265367 Ry
     internal energy E=F+TS    =   -2246.24813167 Ry

     The total energy is F=E-TS. E is the sum of the following terms:
     one-electron contribution =  -18453.28258197 Ry
     hartree contribution      =    9214.65813126 Ry
     xc contribution           =    -391.97319152 Ry
     ewald contribution        =    7394.22029680 Ry
     one-center paw contrib.   =      -9.87078624 Ry

     convergence has been achieved in   7 iterations

     negative rho (up, down):  1.987E-04 0.000E+00

     Forces acting on atoms (cartesian axes, Ry/au):

     atom    1 type  1   force =     0.00171066   -0.00770934    0.00119827
     atom    2 type  2   force =    -0.01065187    0.00966564   -0.00091098
     atom    3 type  2   force =    -0.00918361    0.00614213   -0.01039069
     atom    4 type  1   force =     0.00299169    0.00232462    0.00204240
     atom    5 type  2   force =     0.00507188   -0.00368307   -0.00962374
     atom    6 type  2   force =     0.00062373    0.00633647    0.00104775
     atom    7 type  1   force =     0.00558302   -0.01147269   -0.00229372
     atom    8 type  2   force =     0.00074914   -0.00317780    0.01349545
     atom    9 type  2   force =     0.01125512    0.00552118    0.00677858
     atom   10 type  1   force =    -0.00245201    0.00627939   -0.00916419
     atom   11 type  2   force =     0.00437150   -0.00091822   -0.01067484
     atom   12 type  2   force =    -0.00109465    0.00098014    0.00111102
     atom   13 type  1   force =    -0.00555553   -0.00991593   -0.03067183
     atom   14 type  2   force =     0.00878959    0.00042368   -0.00601106
     atom   15 type  2   force =    -0.00601633   -0.00166627   -0.00965793
     atom   16 type  1   force =     0.00930262    0.00589202    0.00581241
     atom   17 type  2   force =     0.06368460   -0.04453239    0.03387925
     atom   18 type  2   force =    -0.00515881   -0.00192173    0.01208764
     atom   19 type  1   force =    -0.00071311   -0.01312874   -0.00047118
     atom   20 type  2   force =     0.00270693   -0.00126941   -0.00366153
     atom   21 type  1   force =     0.00062889   -0.00257298   -0.00065659
     atom   22 type  2   force =    -0.00197521   -0.00320916   -0.00338948
     atom   23 type  2   force =     0.00056466   -0.00307570    0.00459902
     atom   24 type  1   force =    -0.00504589   -0.00245261   -0.01028126
     atom   25 type  2   force =     0.01027990    0.01184725   -0.00303026
     atom   26 type  2   force =    -0.01027805   -0.00461739   -0.01321896
     atom   27 type  1   force =    -0.00628044   -0.00167890    0.01638895
     atom   28 type  2   force =    -0.00332495   -0.00024253   -0.00745685
     atom   29 type  2   force =     0.00321289    0.00013627   -0.00726914
     atom   30 type  1   force =    -0.00222965    0.00308594    0.00296713
     atom   31 type  2   force =    -0.00086423    0.00321560    0.01176873
     atom   32 type  2   force =    -0.01006821    0.00329569    0.00343386
     atom   33 type  1   force =     0.00296009   -0.00165297    0.00152849
     atom   34 type  2   force =     0.00079815   -0.03166298   -0.01327198
     atom   35 type  2   force =    -0.00650822    0.00743752    0.00770549
     atom   36 type  3   force =    -0.04788430    0.07797727    0.02626179
     The non-local contrib.  to forces
     atom    1 type  1   force =     0.00713115    0.01138308   -0.00840333
     atom    2 type  2   force =    -0.00540464    0.00125606   -0.27166190
     atom    3 type  2   force =    -0.01321335   -0.00335922    0.26689239
     atom    4 type  1   force =    -0.00430352    0.01110513    0.00620580
     atom    5 type  2   force =     0.01701886   -0.01963724   -0.25639185
     atom    6 type  2   force =     0.00166945    0.01398378    0.25708113
     atom    7 type  1   force =    -0.01807743    0.00262982   -0.01855216
     atom    8 type  2   force =     0.00223391   -0.00438823   -0.26000700
     atom    9 type  2   force =     0.00672928   -0.01050297    0.27292703
     atom   10 type  1   force =     0.00510839    0.00266954   -0.00242899
     atom   11 type  2   force =     0.01400785    0.00304073   -0.26025801
     atom   12 type  2   force =    -0.01483760   -0.02230980    0.26267495
     atom   13 type  1   force =     0.00264469    0.01546061   -0.00082232
     atom   14 type  2   force =    -0.03023937    0.10649431   -0.15889476
     atom   15 type  2   force =    -0.00947407   -0.00706487    0.26025481
     atom   16 type  1   force =    -0.01409554    0.03066053   -0.02460537
     atom   17 type  2   force =     0.16681046   -0.33671768    0.09465007
     atom   18 type  2   force =    -0.00400085    0.00006135    0.27383398
     atom   19 type  1   force =     0.01482695    0.01612971   -0.01495960
     atom   20 type  2   force =     0.00018547   -0.01982845    0.26092456
     atom   21 type  1   force =     0.01564839    0.03690254    0.00507577
     atom   22 type  2   force =    -0.00632262   -0.00388759   -0.25990697
     atom   23 type  2   force =     0.00503246   -0.01730362    0.26380849
     atom   24 type  1   force =     0.00290148    0.01491288   -0.00511063
     atom   25 type  2   force =    -0.01032676   -0.00355374   -0.27121232
     atom   26 type  2   force =    -0.00207879   -0.01449174    0.25869617
     atom   27 type  1   force =    -0.00826789   -0.00298196   -0.00249600
     atom   28 type  2   force =    -0.00911925   -0.02115475   -0.27778638
     atom   29 type  2   force =     0.00764276    0.00516225    0.26441469
     atom   30 type  1   force =    -0.00306235    0.02470558    0.01014362
     atom   31 type  2   force =    -0.00280326    0.00381444   -0.25573231
     atom   32 type  2   force =    -0.00398676   -0.01228617    0.27490482
     atom   33 type  1   force =    -0.00488219    0.01054820    0.00367487
     atom   34 type  2   force =    -0.00171203   -0.02645024   -0.27835898
     atom   35 type  2   force =    -0.00284217   -0.00984824    0.26671619
     atom   36 type  3   force =    -0.37817870    0.80146567   -0.90397211
     The ionic contribution  to forces
     atom    1 type  1   force =     2.06448621   -0.23806188    2.95448469
     atom    2 type  2   force =    -0.06666359   -0.11388985   39.05822910
     atom    3 type  2   force =    -0.11426470   -0.08269960  -36.83755491
     atom    4 type  1   force =     0.59277352    1.12386802   -0.66702193
     atom    5 type  2   force =     0.86320428    2.52099934   37.73170322
     atom    6 type  2   force =     0.51367161   -0.42372953  -38.82852776
     atom    7 type  1   force =    -2.34761300   -2.24632585    1.42102487
     atom    8 type  2   force =    -0.82770844    0.36848217   37.31717851
     atom    9 type  2   force =     0.38827327    0.03735540  -38.50737857
     atom   10 type  1   force =    -0.66914526   -0.89599420    4.35984946
     atom   11 type  2   force =    -0.30975255   -1.93120883   38.88077414
     atom   12 type  2   force =     0.48127667    0.51710389  -38.37889047
     atom   13 type  1   force =    -0.84592645   -0.15572813   -3.97498669
     atom   14 type  2   force =     1.57327412   -3.59890635   36.19137534
     atom   15 type  2   force =     0.43132286   -0.31649742  -37.84157790
     atom   16 type  1   force =     0.34344154    5.70989276   -2.47975324
     atom   17 type  2   force =    -2.11038410    5.91809933   33.90739082
     atom   18 type  2   force =    -0.23037792   -0.27401072  -39.44690959
     atom   19 type  1   force =     2.51711155   -1.93833245   -0.64465442
     atom   20 type  2   force =     0.24078853   -0.06587164  -39.15866167
     atom   21 type  1   force =     0.28417957   -1.19120529   -0.45459939
     atom   22 type  2   force =     0.36399339   -2.18903084   38.14110533
     atom   23 type  2   force =    -0.12574961    0.45655743  -38.82698053
     atom   24 type  1   force =    -1.07874620    0.77103835    3.92442336
     atom   25 type  2   force =    -0.85900371   -0.84004001   38.51120747
     atom   26 type  2   force =    -0.61942985   -0.21447478  -38.23685066
     atom   27 type  1   force =    -0.62216278    1.35034630   -3.89890180
     atom   28 type  2   force =    -0.34003475    1.22310945   37.81891785
     atom   29 type  2   force =    -0.37312374   -0.27803371  -37.97767674
     atom   30 type  1   force =    -0.40230246   -0.76526205   -0.96773712
     atom   31 type  2   force =     0.94961779    0.41525602   37.11830993
     atom   32 type  2   force =    -0.53071578    0.10877385  -39.17315220
     atom   33 type  1   force =     0.09876857   -1.68567645    0.86773652
     atom   34 type  2   force =     0.07346731   -1.45400991   39.12335076
     atom   35 type  2   force =    -0.28434629    0.39899911  -38.24298349
     atom   36 type  3   force =     0.97780040   -0.02089190   47.21773773
     The local contribution  to forces
     atom    1 type  1   force =    -2.06971932    0.21850480   -2.94530998
     atom    2 type  2   force =     0.06129303    0.12227936  -38.80855430
     atom    3 type  2   force =     0.11779242    0.09196710   36.58104379
     atom    4 type  1   force =    -0.58531035   -1.13253746    0.66252148
     atom    5 type  2   force =    -0.87363820   -2.50599315  -37.50607026
     atom    6 type  2   force =    -0.51478695    0.41730027   38.59288581
     atom    7 type  1   force =     2.37141099    2.23257967   -1.40495032
     atom    8 type  2   force =     0.82629296   -0.36767590  -37.06452249
     atom    9 type  2   force =    -0.38362321   -0.02177860   38.26210037
     atom   10 type  1   force =     0.66177169    0.89954071   -4.36678998
     atom   11 type  2   force =     0.30078764    1.92774423  -38.65198492
     atom   12 type  2   force =    -0.46863552   -0.49530956   38.13813965
     atom   13 type  1   force =     0.83760894    0.12989731    3.94468401
     atom   14 type  2   force =    -1.53524950    3.49780976  -36.05436748
     atom   15 type  2   force =    -0.42856160    0.32142661   37.59207905
     atom   16 type  1   force =    -0.31997830   -5.73447579    2.50965523
     atom   17 type  2   force =     2.01701132   -5.64518483  -33.96907588
     atom   18 type  2   force =     0.22905797    0.27249177   39.20613995
     atom   19 type  1   force =    -2.53278669    1.90942128    0.65897149
     atom   20 type  2   force =    -0.23840818    0.08378585   38.91505476
     atom   21 type  1   force =    -0.29915400    1.15171086    0.44871634
     atom   22 type  2   force =    -0.35986681    2.18988606  -37.90532770
     atom   23 type  2   force =     0.12162777   -0.44365690   38.58843744
     atom   24 type  1   force =     1.07075116   -0.78882327   -3.92989660
     atom   25 type  2   force =     0.87853749    0.85514706  -38.26456864
     atom   26 type  2   force =     0.61153457    0.22361052   37.98566874
     atom   27 type  1   force =     0.62389452   -1.34892743    3.91735464
     atom   28 type  2   force =     0.34541174   -1.20371949  -37.57002043
     atom   29 type  2   force =     0.36935308    0.27368936   37.72655663
     atom   30 type  1   force =     0.40313306    0.74403073    0.96041827
     atom   31 type  2   force =    -0.94794769   -0.41577027  -36.87160014
     atom   32 type  2   force =     0.52469208   -0.09383015   38.92280742
     atom   33 type  1   force =    -0.09115100    1.67337622   -0.87005921
     atom   34 type  2   force =    -0.07132948    1.44801417  -38.87978894
     atom   35 type  2   force =     0.28068455   -0.38257248   38.00492001
     atom   36 type  3   force =    -0.65172399   -0.69355474  -46.29713266
     The core correction contribution to forces
     atom    1 type  1   force =     0.00000000    0.00000000    0.00000000
     atom    2 type  2   force =     0.00017426   -0.00017606    0.02086763
     atom    3 type  2   force =     0.00052534    0.00009146   -0.02083868
     atom    4 type  1   force =     0.00000000    0.00000000    0.00000000
     atom    5 type  2   force =    -0.00137724    0.00095537    0.02090078
     atom    6 type  2   force =     0.00010252   -0.00129197   -0.02052385
     atom    7 type  1   force =     0.00000000    0.00000000    0.00000000
     atom    8 type  2   force =    -0.00001675    0.00059236    0.02067438
     atom    9 type  2   force =    -0.00009492    0.00057660   -0.02091751
     atom   10 type  1   force =     0.00000000    0.00000000    0.00000000
     atom   11 type  2   force =    -0.00058243   -0.00045358    0.02066112
     atom   12 type  2   force =     0.00119852    0.00155404   -0.02088481
     atom   13 type  1   force =     0.00000000    0.00000000    0.00000000
     atom   14 type  2   force =     0.00105126   -0.00522641    0.01569983
     atom   15 type  2   force =     0.00070619    0.00040186   -0.02055511
     atom   16 type  1   force =     0.00000000    0.00000000    0.00000000
     atom   17 type  2   force =    -0.00983531    0.01925639    0.00064121
     atom   18 type  2   force =     0.00011845   -0.00052929   -0.02109049
     atom   19 type  1   force =     0.00000000    0.00000000    0.00000000
     atom   20 type  2   force =     0.00013937    0.00075731   -0.02103853
     atom   21 type  1   force =     0.00000000    0.00000000    0.00000000
     atom   22 type  2   force =     0.00013801   -0.00015609    0.02059052
     atom   23 type  2   force =    -0.00042413    0.00135767   -0.02072569
     atom   24 type  1   force =     0.00000000    0.00000000    0.00000000
     atom   25 type  2   force =     0.00097195    0.00007748    0.02131684
     atom   26 type  2   force =    -0.00033978    0.00061690   -0.02077837
     atom   27 type  1   force =     0.00000000    0.00000000    0.00000000
     atom   28 type  2   force =     0.00039734    0.00150570    0.02121206
     atom   29 type  2   force =    -0.00065566   -0.00072484   -0.02062304
     atom   30 type  1   force =     0.00000000    0.00000000    0.00000000
     atom   31 type  2   force =     0.00018988    0.00012648    0.02057762
     atom   32 type  2   force =    -0.00008995    0.00074837   -0.02115119
     atom   33 type  1   force =     0.00000000    0.00000000    0.00000000
     atom   34 type  2   force =     0.00035732    0.00080959    0.02134648
     atom   35 type  2   force =    -0.00002773    0.00092858   -0.02096029
     atom   36 type  3   force =     0.00419750   -0.00929131    0.00939471
     The Hubbard contrib.    to forces
     atom    1 type  1   force =     0.00000000    0.00000000    0.00000000
     atom    2 type  2   force =     0.00000000    0.00000000    0.00000000
     atom    3 type  2   force =     0.00000000    0.00000000    0.00000000
     atom    4 type  1   force =     0.00000000    0.00000000    0.00000000
     atom    5 type  2   force =     0.00000000    0.00000000    0.00000000
     atom    6 type  2   force =     0.00000000    0.00000000    0.00000000
     atom    7 type  1   force =     0.00000000    0.00000000    0.00000000
     atom    8 type  2   force =     0.00000000    0.00000000    0.00000000
     atom    9 type  2   force =     0.00000000    0.00000000    0.00000000
     atom   10 type  1   force =     0.00000000    0.00000000    0.00000000
     atom   11 type  2   force =     0.00000000    0.00000000    0.00000000
     atom   12 type  2   force =     0.00000000    0.00000000    0.00000000
     atom   13 type  1   force =     0.00000000    0.00000000    0.00000000
     atom   14 type  2   force =     0.00000000    0.00000000    0.00000000
     atom   15 type  2   force =     0.00000000    0.00000000    0.00000000
     atom   16 type  1   force =     0.00000000    0.00000000    0.00000000
     atom   17 type  2   force =     0.00000000    0.00000000    0.00000000
     atom   18 type  2   force =     0.00000000    0.00000000    0.00000000
     atom   19 type  1   force =     0.00000000    0.00000000    0.00000000
     atom   20 type  2   force =     0.00000000    0.00000000    0.00000000
     atom   21 type  1   force =     0.00000000    0.00000000    0.00000000
     atom   22 type  2   force =     0.00000000    0.00000000    0.00000000
     atom   23 type  2   force =     0.00000000    0.00000000    0.00000000
     atom   24 type  1   force =     0.00000000    0.00000000    0.00000000
     atom   25 type  2   force =     0.00000000    0.00000000    0.00000000
     atom   26 type  2   force =     0.00000000    0.00000000    0.00000000
     atom   27 type  1   force =     0.00000000    0.00000000    0.00000000
     atom   28 type  2   force =     0.00000000    0.00000000    0.00000000
     atom   29 type  2   force =     0.00000000    0.00000000    0.00000000
     atom   30 type  1   force =     0.00000000    0.00000000    0.00000000
     atom   31 type  2   force =     0.00000000    0.00000000    0.00000000
     atom   32 type  2   force =     0.00000000    0.00000000    0.00000000
     atom   33 type  1   force =     0.00000000    0.00000000    0.00000000
     atom   34 type  2   force =     0.00000000    0.00000000    0.00000000
     atom   35 type  2   force =     0.00000000    0.00000000    0.00000000
     atom   36 type  3   force =     0.00000000    0.00000000    0.00000000
     The SCF correction term to forces
     atom    1 type  1   force =    -0.00018856    0.00046456    0.00041842
     atom    2 type  2   force =    -0.00005210    0.00019600    0.00020002
     atom    3 type  2   force =    -0.00002449    0.00014227    0.00005826
     atom    4 type  1   force =    -0.00016912   -0.00011118    0.00032856
     atom    5 type  2   force =    -0.00013699   -0.00000750    0.00022589
     atom    6 type  2   force =    -0.00003407    0.00007381    0.00012396
     atom    7 type  1   force =    -0.00013871   -0.00035645    0.00017542
     atom    8 type  2   force =    -0.00005373   -0.00018832    0.00016358
     atom    9 type  2   force =    -0.00003047   -0.00012937    0.00003879
     atom   10 type  1   force =    -0.00018800    0.00006322    0.00019685
     atom   11 type  2   force =    -0.00009019   -0.00004089    0.00012436
     atom   12 type  2   force =    -0.00009789   -0.00005854    0.00006323
     atom   13 type  1   force =     0.00011612    0.00045416    0.00044469
     atom   14 type  2   force =    -0.00004810    0.00025226    0.00016754
     atom   15 type  2   force =    -0.00001088    0.00006742    0.00013275
     atom   16 type  1   force =    -0.00006625   -0.00018560    0.00050732
     atom   17 type  2   force =     0.00008106    0.00001428    0.00026454
     atom   18 type  2   force =     0.00004238    0.00006506    0.00010531
     atom   19 type  1   force =     0.00013391   -0.00034739    0.00016287
     atom   20 type  2   force =     0.00000056   -0.00011259    0.00005088
     atom   21 type  1   force =    -0.00004624    0.00001880    0.00014222
     atom   22 type  2   force =     0.00008165   -0.00002081    0.00014088
     atom   23 type  2   force =     0.00007701   -0.00003039    0.00005084
     atom   24 type  1   force =     0.00004650    0.00041932    0.00029414
     atom   25 type  2   force =     0.00009976    0.00021635    0.00021792
     atom   26 type  2   force =     0.00003463    0.00012159    0.00003667
     atom   27 type  1   force =     0.00025454   -0.00011593    0.00042364
     atom   28 type  2   force =     0.00001879    0.00001644    0.00021159
     atom   29 type  2   force =    -0.00000473    0.00004310    0.00005085
     atom   30 type  1   force =     0.00000094   -0.00038844    0.00013389
     atom   31 type  2   force =     0.00007787   -0.00021119    0.00020516
     atom   32 type  2   force =     0.00003102   -0.00011033    0.00001652
     atom   33 type  1   force =     0.00022354    0.00009895    0.00016784
     atom   34 type  2   force =     0.00001387   -0.00002671    0.00017023
     atom   35 type  2   force =     0.00002225   -0.00006956    0.00000460
     atom   36 type  3   force =     0.00001931    0.00024943    0.00022565

     Total force =     0.149876     Total SCF correction =     0.001877
     Energy error            =      2.7E-02 Ry
     Gradient error          =      7.8E-02 Ry/Bohr

     number of scf cycles    =   2
     number of bfgs steps    =   1

     energy             old  =   -2246.2236136728 Ry
     energy             new  =   -2246.2507853451 Ry

     CASE: energy            _new < energy            _old

     new trust radius        =       0.1073872626 bohr
     new conv_thr            =       0.0000000780 Ry


ATOMIC_POSITIONS (angstrom)
Mo            6.5816516720        1.7710670619        2.8322693760
S             8.1601959182        0.8248656067        4.4351198746
S             8.1831503231        0.8192567037        1.2701382884
Mo            8.0974562213        4.5001569084        2.7199203724
S             6.5032112702        3.7180128172        4.3321141233
S             6.5544823710        3.5218151060        1.1212841021
Mo            6.4965254812        7.2009663446        2.6640775551
S             8.0825433172        6.3391542931        4.2618033552
S             8.0950732801        6.3117979203        1.0958053955
Mo            8.1533494123        9.9120403787        2.8203098313
S             6.5002741587        8.9427259975        4.3719185060
S             6.6165542340        9.0518614853        1.1449919527
Mo            3.4048967638        1.7258048297        2.7195812972
S             4.9906007448        0.8305954570        4.3538936735
S             5.0457898348        0.8471287119        1.2173691155
Mo            4.9910195115        4.5208313163        2.6435754265
S             3.5133463592        3.6268009160        4.3288551955
S             3.4316674673        3.5430228283        1.0743297158
Mo            3.4552144260        7.1959140723        2.6234686867
S             4.9858461008        6.3278132851        1.0357598275
Mo            5.0145809558        9.8905663305        2.7367742928
S             3.4665169631        8.9408207751        4.3236143586
S             3.4086085703        9.0638687057        1.1049337160
Mo            0.2859523606        1.7434112612        2.8260669603
S             1.8663700585        0.8089199910        4.4018064034
S             1.8533531065        0.8540173683        1.2017237357
Mo            1.8426519821        4.5016605241        2.6684790355
S             0.2677862430        3.6553288073        4.3296675089
S             0.2364774634        3.5246289937        1.1646812650
Mo            0.2672861939        7.2267119724        2.6981331750
S             1.9018954501        6.3178953155        4.2411178032
S             1.8504297549        6.3147966403        1.0516247183
Mo            1.8531108756        9.9354083886        2.7670161967
S             0.2990062402        9.0440526430        4.4018201069
S             0.2675089384        9.0514269749        1.1653749153
O             4.1509674324        2.5044441232        5.3709200093



     Writing config-only to output data dir ./MoS2-V-O.save/
     NEW-OLD atomic charge density approx. for the potential

     negative rho (up, down):  1.983E-04 0.000E+00

     total cpu time spent up to now is      210.1 secs

     Self-consistent Calculation

     iteration #  1     ecut=    80.00 Ry     beta= 0.70
     Davidson diagonalization with overlap
     ethr =  1.00E-06,  avg # of iterations = 11.0

     negative rho (up, down):  1.377E-04 0.000E+00

     total cpu time spent up to now is      225.7 secs

     total energy              =   -2246.27436734 Ry
     estimated scf accuracy    <       0.00936657 Ry

     iteration #  2     ecut=    80.00 Ry     beta= 0.70
     Davidson diagonalization with overlap
     ethr =  3.00E-06,  avg # of iterations =  6.0

     negative rho (up, down):  1.350E-04 0.000E+00

     total cpu time spent up to now is      236.6 secs

     total energy              =   -2246.27565504 Ry
     estimated scf accuracy    <       0.00389755 Ry

     iteration #  3     ecut=    80.00 Ry     beta= 0.70
     Davidson diagonalization with overlap
     ethr =  1.25E-06,  avg # of iterations =  4.0

     negative rho (up, down):  1.132E-04 0.000E+00

     total cpu time spent up to now is      247.8 secs

     total energy              =   -2246.27601564 Ry
     estimated scf accuracy    <       0.00030163 Ry

     iteration #  4     ecut=    80.00 Ry     beta= 0.70
     Davidson diagonalization with overlap
     ethr =  9.67E-08,  avg # of iterations =  4.0

     negative rho (up, down):  1.111E-04 0.000E+00

     total cpu time spent up to now is      263.2 secs

     total energy              =   -2246.27605428 Ry
     estimated scf accuracy    <       0.00002228 Ry

     iteration #  5     ecut=    80.00 Ry     beta= 0.70
     Davidson diagonalization with overlap
     ethr =  7.14E-09,  avg # of iterations =  5.0

     negative rho (up, down):  1.138E-04 0.000E+00

     total cpu time spent up to now is      276.7 secs

     total energy              =   -2246.27606140 Ry
     estimated scf accuracy    <       0.00000699 Ry

     iteration #  6     ecut=    80.00 Ry     beta= 0.70
     Davidson diagonalization with overlap
     ethr =  2.24E-09,  avg # of iterations =  2.0

     negative rho (up, down):  1.188E-04 0.000E+00

     total cpu time spent up to now is      285.5 secs

     total energy              =   -2246.27606215 Ry
     estimated scf accuracy    <       0.00000173 Ry

     iteration #  7     ecut=    80.00 Ry     beta= 0.70
     Davidson diagonalization with overlap
     ethr =  5.56E-10,  avg # of iterations =  5.0

     negative rho (up, down):  1.263E-04 0.000E+00

     total cpu time spent up to now is      299.0 secs

     total energy              =   -2246.27606235 Ry
     estimated scf accuracy    <       0.00000046 Ry

     iteration #  8     ecut=    80.00 Ry     beta= 0.70
     Davidson diagonalization with overlap
     ethr =  1.48E-10,  avg # of iterations =  5.0

     negative rho (up, down):  1.385E-04 0.000E+00

     total cpu time spent up to now is      308.4 secs

     total energy              =   -2246.27606245 Ry
     estimated scf accuracy    <       0.00000013 Ry

     iteration #  9     ecut=    80.00 Ry     beta= 0.70
     Davidson diagonalization with overlap
     ethr =  4.32E-11,  avg # of iterations =  4.0

     negative rho (up, down):  1.994E-04 0.000E+00

     total cpu time spent up to now is      311.9 secs

     End of self-consistent calculation

          k = 0.0000 0.0000 0.0000 (105382 PWs)   bands (ev):

   -63.0630 -62.9897 -62.9287 -62.9101 -62.8969 -62.8844 -62.8757 -62.8713
   -62.8663 -62.8600 -62.8564 -62.8498 -37.3334 -37.2957 -37.2670 -37.2558
   -37.2328 -37.1917 -37.1826 -37.1699 -37.1590 -37.1451 -37.1370 -37.1245
   -37.1173 -37.0959 -37.0919 -37.0849 -37.0785 -37.0655 -37.0621 -37.0486
   -37.0461 -37.0360 -37.0322 -37.0272 -37.0141 -37.0131 -37.0015 -36.9930
   -36.9814 -36.9496 -36.9459 -36.9348 -36.9060 -36.8686 -36.8499 -36.8148
   -21.2819 -16.0053 -15.3049 -15.2098 -15.0458 -14.9531 -14.8603 -14.6768
   -14.5529 -14.5123 -14.5031 -14.4589 -14.4310 -14.3935 -14.3116 -14.2457
   -14.2204 -14.1791 -14.1655 -14.0082 -13.9621 -13.9252 -13.9066 -13.7455
    -8.2312  -7.7714  -7.6104  -7.5295  -7.4736  -7.3673  -7.2926  -7.2692
    -7.2282  -6.9926  -6.9248  -6.8783  -6.8286  -6.7668  -6.7075  -6.5996
    -6.5438  -6.5153  -6.4169  -6.3302  -6.1753  -6.0923  -5.9749  -5.9437
    -5.8650  -5.8478  -5.8072  -5.7543  -5.7401  -5.7066  -5.6857  -5.6394
    -5.5989  -5.4916  -5.4539  -5.2921  -5.2260  -5.2018  -5.1132  -5.0876
    -5.0663  -5.0482  -4.9646  -4.8062  -4.7692  -4.6115  -4.4579  -4.3995
    -4.3296  -4.3203  -4.1834  -4.1353  -4.0770  -4.0090  -3.9653  -3.8861
    -3.7851  -3.7656  -3.7119  -3.6637  -3.6481  -3.5840  -3.5591  -3.5274
    -3.5004  -3.4703  -3.3189  -3.2716  -3.1348  -2.9825  -2.9371  -2.8886
    -2.8413  -2.8228  -2.8061  -2.7739  -2.7407  -2.7204  -2.6379  -2.3312
    -2.1948  -2.0867  -2.0219  -1.7120  -1.3021  -0.7882  -0.6995  -0.2438
    -0.2365  -0.1346  -0.0995  -0.0064   0.0613   0.1061   0.1644   0.2290
     0.2963   0.3467   0.3618   0.3982   0.4621   0.4961   0.5280   0.5416
     0.5861   0.6240   0.6910   0.7048   0.7510   0.8022   0.8255   0.8845
     0.9195   1.0392   1.1067

     the Fermi energy is    -1.5070 ev

!    total energy              =   -2246.27606238 Ry
     estimated scf accuracy    <       0.00000004 Ry
     smearing contrib. (-TS)   =      -0.00116717 Ry
     internal energy E=F+TS    =   -2246.27489520 Ry

     The total energy is F=E-TS. E is the sum of the following terms:
     one-electron contribution =  -18450.58085044 Ry
     hartree contribution      =    9213.30972061 Ry
     xc contribution           =    -392.01560318 Ry
     ewald contribution        =    7392.87911864 Ry
     one-center paw contrib.   =      -9.86728083 Ry

     convergence has been achieved in   9 iterations

     negative rho (up, down):  1.994E-04 0.000E+00

     Forces acting on atoms (cartesian axes, Ry/au):

     atom    1 type  1   force =    -0.00267027   -0.00057723   -0.00737945
     atom    2 type  2   force =    -0.00587659    0.00560655   -0.00195805
     atom    3 type  2   force =    -0.00913710    0.00503483   -0.01303707
     atom    4 type  1   force =     0.00382658   -0.00008632    0.00144416
     atom    5 type  2   force =     0.00802351   -0.00343323   -0.00481078
     atom    6 type  2   force =     0.00034488    0.00380975    0.00168155
     atom    7 type  1   force =     0.00496338   -0.00662249    0.00166987
     atom    8 type  2   force =     0.00059159   -0.00252539    0.00983913
     atom    9 type  2   force =     0.00966129    0.00450836    0.00267332
     atom   10 type  1   force =     0.00063085    0.00403441    0.00105065
     atom   11 type  2   force =     0.00433236   -0.00191371   -0.01039254
     atom   12 type  2   force =    -0.00094661   -0.00132623   -0.00164784
     atom   13 type  1   force =     0.00480910   -0.00021847   -0.00988666
     atom   14 type  2   force =     0.00531754   -0.01703283   -0.01582241
     atom   15 type  2   force =    -0.00056790   -0.00434202   -0.01158802
     atom   16 type  1   force =     0.00843854    0.00467493    0.00181989
     atom   17 type  2   force =     0.04372713   -0.04261041    0.01247594
     atom   18 type  2   force =    -0.00451339    0.00180938    0.00991666
     atom   19 type  1   force =    -0.00179443   -0.00707290    0.00473799
     atom   20 type  2   force =     0.00286149   -0.00340714   -0.00561268
     atom   21 type  1   force =    -0.00126745    0.00506841    0.00318029
     atom   22 type  2   force =     0.00024799   -0.00372511   -0.00438905
     atom   23 type  2   force =     0.00059393   -0.00530828    0.00219004
     atom   24 type  1   force =    -0.00176544   -0.00080288   -0.00143178
     atom   25 type  2   force =     0.00640113    0.00927578   -0.00879717
     atom   26 type  2   force =    -0.01451929   -0.00940682   -0.01856874
     atom   27 type  1   force =     0.00357244   -0.00872985    0.02430492
     atom   28 type  2   force =    -0.00254848   -0.00206764   -0.00619873
     atom   29 type  2   force =     0.00261463    0.00305234   -0.00645913
     atom   30 type  1   force =    -0.00088505   -0.00326074    0.00754875
     atom   31 type  2   force =    -0.00128184    0.00119303    0.00729272
     atom   32 type  2   force =    -0.00882878    0.00173383    0.00209340
     atom   33 type  1   force =    -0.00190448    0.00055320    0.00565031
     atom   34 type  2   force =    -0.00130984   -0.02032812   -0.01363119
     atom   35 type  2   force =    -0.00415189    0.00711470    0.00225781
     atom   36 type  3   force =    -0.04698953    0.08732833    0.03978385
     The non-local contrib.  to forces
     atom    1 type  1   force =     0.00725162    0.01045760   -0.00917296
     atom    2 type  2   force =    -0.00176192   -0.00133840   -0.27100379
     atom    3 type  2   force =    -0.01181971   -0.00504047    0.26441720
     atom    4 type  1   force =    -0.00384747    0.01268249    0.00570386
     atom    5 type  2   force =     0.01656764   -0.01911373   -0.25626383
     atom    6 type  2   force =     0.00182564    0.01282376    0.25831146
     atom    7 type  1   force =    -0.01858610    0.00364392   -0.01954735
     atom    8 type  2   force =     0.00286673   -0.00378855   -0.26164282
     atom    9 type  2   force =     0.00487354   -0.01207949    0.27045215
     atom   10 type  1   force =     0.00396277    0.00408858   -0.00268420
     atom   11 type  2   force =     0.01329129    0.00120530   -0.26095636
     atom   12 type  2   force =    -0.01308982   -0.02422548    0.26128486
     atom   13 type  1   force =     0.00109113    0.01737306    0.00613308
     atom   14 type  2   force =    -0.01795371    0.06822280   -0.19751989
     atom   15 type  2   force =    -0.00647730   -0.00916561    0.25924415
     atom   16 type  1   force =    -0.01517222    0.02818130   -0.02635387
     atom   17 type  2   force =     0.15541374   -0.34515048    0.12724840
     atom   18 type  2   force =    -0.00399655    0.00052165    0.27463874
     atom   19 type  1   force =     0.01587573    0.01644763   -0.01581916
     atom   20 type  2   force =     0.00032899   -0.02002799    0.25956538
     atom   21 type  1   force =     0.01581209    0.03606982    0.00582022
     atom   22 type  2   force =    -0.00473199   -0.00496942   -0.26154990
     atom   23 type  2   force =     0.00488208   -0.01961190    0.26236652
     atom   24 type  1   force =     0.00204640    0.01460179   -0.00470100
     atom   25 type  2   force =    -0.01344187   -0.00766745   -0.27293662
     atom   26 type  2   force =    -0.00657713   -0.01712904    0.25389884
     atom   27 type  1   force =    -0.01066819   -0.00094689   -0.00548615
     atom   28 type  2   force =    -0.00773866   -0.02093607   -0.27733900
     atom   29 type  2   force =     0.00669797    0.00723542    0.26591725
     atom   30 type  1   force =    -0.00340630    0.02647200    0.00949783
     atom   31 type  2   force =    -0.00272225    0.00206036   -0.25716285
     atom   32 type  2   force =    -0.00289972   -0.01329791    0.27445204
     atom   33 type  1   force =    -0.00393202    0.01003292    0.00159059
     atom   34 type  2   force =    -0.00312154   -0.01791013   -0.27927548
     atom   35 type  2   force =    -0.00137607   -0.01051815    0.26391963
     atom   36 type  3   force =    -0.49819075    1.06341334   -1.06787706
     The ionic contribution  to forces
[...]
     atom   28 type  2   force =    -0.00069185   -0.00490515   -0.27987478
     atom   29 type  2   force =    -0.00060563   -0.00900684    0.26522390
     atom   30 type  1   force =    -0.00099509    0.01974882    0.00686588
     atom   31 type  2   force =    -0.00721446   -0.00095751   -0.26984022
     atom   32 type  2   force =     0.00683025   -0.01446066    0.27010865
     atom   33 type  1   force =    -0.00707600    0.00470879   -0.00050567
     atom   34 type  2   force =     0.00250781   -0.01015309   -0.27572565
     atom   35 type  2   force =    -0.00100102   -0.01364176    0.26705877
     atom   36 type  3   force =     0.00188139   -0.01740131   -2.31956057
     The ionic contribution  to forces
     atom    1 type  1   force =     0.56408465    0.00432687    1.07973194
     atom    2 type  2   force =    -0.19502002   -0.23692790   38.52940939
     atom    3 type  2   force =     0.03499427   -0.17591665  -37.95239996
     atom    4 type  1   force =     0.09264627    0.58083350   -0.36135614
     atom    5 type  2   force =     0.28534990    1.07284281   37.72611793
     atom    6 type  2   force =     0.29670839   -0.39773939  -38.81529982
     atom    7 type  1   force =    -2.36570785   -1.11907834    1.17237320
     atom    8 type  2   force =    -1.12198725    0.49527894   38.02954140
     atom    9 type  2   force =     0.40565792    0.08831928  -38.37788667
     atom   10 type  1   force =    -0.43680501   -0.52453171    2.14574995
     atom   11 type  2   force =    -0.37669642   -1.38855457   38.29744536
     atom   12 type  2   force =     0.22596502    0.30724326  -38.32023798
     atom   13 type  1   force =     0.09279418   -0.57318607   -2.07770200
     atom   14 type  2   force =     0.57015065   -1.05051384   37.95150570
     atom   15 type  2   force =     0.11463149   -0.24131517  -38.36250623
     atom   16 type  1   force =     0.60611871    3.89693468   -2.09576679
     atom   17 type  2   force =     0.85382199    1.02631971   28.14917318
     atom   18 type  2   force =    -0.18265722   -0.34325471  -38.69690556
     atom   19 type  1   force =     2.68288134   -0.96218454    1.28027838
     atom   20 type  2   force =    -0.02687218    0.20651676  -39.46343029
     atom   21 type  1   force =     0.24100011   -0.80683760    0.23875847
     atom   22 type  2   force =     0.46828211   -1.32938052   38.26879976
     atom   23 type  2   force =    -0.20265454    0.28331832  -38.25956628
     atom   24 type  1   force =    -0.61777324   -0.10198293    0.75958679
     atom   25 type  2   force =    -0.40497904   -0.89250822   38.23918151
     atom   26 type  2   force =    -0.16871829   -0.17384767  -38.37632686
     atom   27 type  1   force =    -0.94247490    0.93479824   -3.32764419
     atom   28 type  2   force =    -0.95945286    0.41440374   37.47046844
     atom   29 type  2   force =    -0.06873059   -0.10936839  -38.33927280
     atom   30 type  1   force =    -0.33512368   -0.10995277    1.41293507
     atom   31 type  2   force =     0.63010222    1.23163721   37.63138245
     atom   32 type  2   force =    -0.35066642    0.17655649  -38.61225850
     atom   33 type  1   force =     0.27102060   -0.95206881    2.15361630
     atom   34 type  2   force =    -0.13701735   -0.43087413   38.76785690
     atom   35 type  2   force =    -0.06192248    0.13024088  -37.87241597
     atom   36 type  3   force =     0.51904955    1.07045324   50.00706391
     The local contribution  to forces
     atom    1 type  1   force =    -0.56230296   -0.02895716   -1.07256823
     atom    2 type  2   force =     0.19463553    0.24612068  -38.28087607
     atom    3 type  2   force =    -0.03198104    0.18493622   37.70513424
     atom    4 type  1   force =    -0.09429221   -0.58968206    0.34865542
     atom    5 type  2   force =    -0.28453004   -1.05846701  -37.48626648
     atom    6 type  2   force =    -0.29723786    0.40008409   38.57379897
     atom    7 type  1   force =     2.38358463    1.10635407   -1.15305980
     atom    8 type  2   force =     1.11373158   -0.49498197  -37.78033596
     atom    9 type  2   force =    -0.39794144   -0.07241220   38.12905335
     atom   10 type  1   force =     0.43443467    0.51895481   -2.14804548
     atom   11 type  2   force =     0.37178709    1.38961512  -38.05694198
     atom   12 type  2   force =    -0.21844608   -0.29313615   38.07783945
     atom   13 type  1   force =    -0.09248217    0.54140814    2.06855356
     atom   14 type  2   force =    -0.56950651    1.05941069  -37.69916132
     atom   15 type  2   force =    -0.11354100    0.25067586   38.12188737
     atom   16 type  1   force =    -0.59649100   -3.91800843    2.11601620
     atom   17 type  2   force =    -0.84273416   -1.02621957  -28.43951181
     atom   18 type  2   force =     0.18246347    0.34746055   38.44182823
     atom   19 type  1   force =    -2.69388362    0.96057904   -1.25672072
     atom   20 type  2   force =     0.02623814   -0.19398495   39.22173904
     atom   21 type  1   force =    -0.24226189    0.78119961   -0.24224541
     atom   22 type  2   force =    -0.46303518    1.32971029  -38.02856451
     atom   23 type  2   force =     0.19320287   -0.27021799   38.01411806
     atom   24 type  1   force =     0.61531570    0.08707011   -0.75863028
     atom   25 type  2   force =     0.40400277    0.90171266  -37.98898887
     atom   26 type  2   force =     0.16514070    0.18294125   38.13123438
     atom   27 type  1   force =     0.93112816   -0.93130706    3.30366038
     atom   28 type  2   force =     0.96090173   -0.40906922  -37.21300591
     atom   29 type  2   force =     0.06955648    0.11792330   38.09477478
     atom   30 type  1   force =     0.33631664    0.09055489   -1.41996396
     atom   31 type  2   force =    -0.62330815   -1.23191400  -37.38232228
     atom   32 type  2   force =     0.34471335   -0.16325259   38.36262478
     atom   33 type  1   force =    -0.26389174    0.94711148   -2.15338812
     atom   34 type  2   force =     0.13521202    0.44023219  -38.51368940
     atom   35 type  2   force =     0.06186433   -0.11682004   37.62666022
     atom   36 type  3   force =    -0.52089787   -1.05305072  -47.71213287
     The core correction contribution to forces
     atom    1 type  1   force =     0.00000000    0.00000000    0.00000000
     atom    2 type  2   force =    -0.00006867    0.00035053    0.02094168
     atom    3 type  2   force =     0.00013483    0.00034791   -0.02095006
     atom    4 type  1   force =     0.00000000    0.00000000    0.00000000
     atom    5 type  2   force =    -0.00024482    0.00055858    0.02087790
     atom    6 type  2   force =     0.00014821   -0.00040035   -0.02073321
     atom    7 type  1   force =     0.00000000    0.00000000    0.00000000
     atom    8 type  2   force =    -0.00044519    0.00031130    0.02110584
     atom    9 type  2   force =     0.00081388    0.00079730   -0.02099866
     atom   10 type  1   force =     0.00000000    0.00000000    0.00000000
     atom   11 type  2   force =    -0.00008245   -0.00025722    0.02073968
     atom   12 type  2   force =     0.00057350    0.00101259   -0.02081042
     atom   13 type  1   force =     0.00000000    0.00000000    0.00000000
     atom   14 type  2   force =    -0.00001252    0.00025435    0.02131616
     atom   15 type  2   force =     0.00019564    0.00047349   -0.02068103
     atom   16 type  1   force =     0.00000000    0.00000000    0.00000000
     atom   17 type  2   force =     0.00084028   -0.00011302   -0.00991307
     atom   18 type  2   force =    -0.00013337   -0.00015871   -0.02130955
     atom   19 type  1   force =     0.00000000    0.00000000    0.00000000
     atom   20 type  2   force =    -0.00007573    0.00064185   -0.02115911
     atom   21 type  1   force =     0.00000000    0.00000000    0.00000000
     atom   22 type  2   force =     0.00011298   -0.00024639    0.02072547
     atom   23 type  2   force =    -0.00076340    0.00101157   -0.02088958
     atom   24 type  1   force =     0.00000000    0.00000000    0.00000000
     atom   25 type  2   force =    -0.00001579    0.00050078    0.02123768
     atom   26 type  2   force =    -0.00031552    0.00037296   -0.02092043
     atom   27 type  1   force =     0.00000000    0.00000000    0.00000000
     atom   28 type  2   force =     0.00009507    0.00041934    0.02155872
     atom   29 type  2   force =     0.00003022    0.00024190   -0.02068858
     atom   30 type  1   force =     0.00000000    0.00000000    0.00000000
     atom   31 type  2   force =     0.00043474    0.00029847    0.02121476
     atom   32 type  2   force =    -0.00057712    0.00079765   -0.02102822
     atom   33 type  1   force =     0.00000000    0.00000000    0.00000000
     atom   34 type  2   force =    -0.00014421    0.00041213    0.02134069
     atom   35 type  2   force =     0.00004990    0.00077433   -0.02096869
     atom   36 type  3   force =    -0.00000992    0.00015998    0.02460727
     The Hubbard contrib.    to forces
     atom    1 type  1   force =     0.00000000    0.00000000    0.00000000
     atom    2 type  2   force =     0.00000000    0.00000000    0.00000000
     atom    3 type  2   force =     0.00000000    0.00000000    0.00000000
     atom    4 type  1   force =     0.00000000    0.00000000    0.00000000
     atom    5 type  2   force =     0.00000000    0.00000000    0.00000000
     atom    6 type  2   force =     0.00000000    0.00000000    0.00000000
     atom    7 type  1   force =     0.00000000    0.00000000    0.00000000
     atom    8 type  2   force =     0.00000000    0.00000000    0.00000000
     atom    9 type  2   force =     0.00000000    0.00000000    0.00000000
     atom   10 type  1   force =     0.00000000    0.00000000    0.00000000
     atom   11 type  2   force =     0.00000000    0.00000000    0.00000000
     atom   12 type  2   force =     0.00000000    0.00000000    0.00000000
     atom   13 type  1   force =     0.00000000    0.00000000    0.00000000
     atom   14 type  2   force =     0.00000000    0.00000000    0.00000000
     atom   15 type  2   force =     0.00000000    0.00000000    0.00000000
     atom   16 type  1   force =     0.00000000    0.00000000    0.00000000
     atom   17 type  2   force =     0.00000000    0.00000000    0.00000000
     atom   18 type  2   force =     0.00000000    0.00000000    0.00000000
     atom   19 type  1   force =     0.00000000    0.00000000    0.00000000
     atom   20 type  2   force =     0.00000000    0.00000000    0.00000000
     atom   21 type  1   force =     0.00000000    0.00000000    0.00000000
     atom   22 type  2   force =     0.00000000    0.00000000    0.00000000
     atom   23 type  2   force =     0.00000000    0.00000000    0.00000000
     atom   24 type  1   force =     0.00000000    0.00000000    0.00000000
     atom   25 type  2   force =     0.00000000    0.00000000    0.00000000
     atom   26 type  2   force =     0.00000000    0.00000000    0.00000000
     atom   27 type  1   force =     0.00000000    0.00000000    0.00000000
     atom   28 type  2   force =     0.00000000    0.00000000    0.00000000
     atom   29 type  2   force =     0.00000000    0.00000000    0.00000000
     atom   30 type  1   force =     0.00000000    0.00000000    0.00000000
     atom   31 type  2   force =     0.00000000    0.00000000    0.00000000
     atom   32 type  2   force =     0.00000000    0.00000000    0.00000000
     atom   33 type  1   force =     0.00000000    0.00000000    0.00000000
     atom   34 type  2   force =     0.00000000    0.00000000    0.00000000
     atom   35 type  2   force =     0.00000000    0.00000000    0.00000000
     atom   36 type  3   force =     0.00000000    0.00000000    0.00000000
     The SCF correction term to forces
     atom    1 type  1   force =     0.00000245   -0.00001877   -0.00003176
     atom    2 type  2   force =     0.00000043   -0.00000705   -0.00002438
     atom    3 type  2   force =    -0.00000253   -0.00002063   -0.00000540
     atom    4 type  1   force =    -0.00002118    0.00000929   -0.00001547
     atom    5 type  2   force =    -0.00000039    0.00000193   -0.00000713
     atom    6 type  2   force =     0.00000027   -0.00000497   -0.00000370
     atom    7 type  1   force =     0.00000477    0.00001734   -0.00001613
     atom    8 type  2   force =    -0.00001120    0.00000508   -0.00000920
     atom    9 type  2   force =    -0.00000884    0.00001383   -0.00000087
     atom   10 type  1   force =     0.00000229    0.00000052   -0.00005599
     atom   11 type  2   force =     0.00000370   -0.00000353   -0.00002241
     atom   12 type  2   force =     0.00000419    0.00001432   -0.00000643
     atom   13 type  1   force =     0.00002058   -0.00005203   -0.00003750
     atom   14 type  2   force =     0.00000399   -0.00000283   -0.00000849
     atom   15 type  2   force =     0.00000390   -0.00001047   -0.00001417
     atom   16 type  1   force =     0.00004376    0.00001876   -0.00001981
     atom   17 type  2   force =     0.00002517   -0.00001345   -0.00000971
     atom   18 type  2   force =     0.00000631   -0.00000108   -0.00001582
     atom   19 type  1   force =     0.00001151    0.00002594   -0.00001799
     atom   20 type  2   force =     0.00001352    0.00000778    0.00000111
     atom   21 type  1   force =     0.00001930   -0.00000356   -0.00004786
     atom   22 type  2   force =    -0.00000293    0.00000719   -0.00001626
     atom   23 type  2   force =     0.00000345    0.00001738   -0.00000600
     atom   24 type  1   force =    -0.00001439   -0.00003893   -0.00003533
     atom   25 type  2   force =    -0.00000487   -0.00001334   -0.00001655
     atom   26 type  2   force =    -0.00000433   -0.00001278   -0.00000527
     atom   27 type  1   force =    -0.00001912    0.00001325   -0.00004030
     atom   28 type  2   force =    -0.00001490   -0.00000327   -0.00001058
     atom   29 type  2   force =    -0.00000830   -0.00000785   -0.00000283
     atom   30 type  1   force =    -0.00002026    0.00003462   -0.00002801
     atom   31 type  2   force =    -0.00000452    0.00001332   -0.00001264
     atom   32 type  2   force =    -0.00000086    0.00000895   -0.00000407
     atom   33 type  1   force =    -0.00000322   -0.00000057   -0.00003536
     atom   34 type  2   force =    -0.00000369    0.00000551   -0.00002113
     atom   35 type  2   force =    -0.00001191    0.00001060   -0.00000483
     atom   36 type  3   force =     0.00005569   -0.00004845    0.00002609

     Total force =     0.006075     Total SCF correction =     0.000198
     Energy error            =      8.0E-05 Ry
     Gradient error          =      1.5E-03 Ry/Bohr

     bfgs converged in  25 scf cycles and  24 bfgs steps
     (criteria: energy <  1.0E-04 Ry, force <  1.0E-02 Ry/Bohr)

     End of BFGS Geometry Optimization

     Final energy             =   -2246.4442655072 Ry

     File ./MoS2-V-O.bfgs deleted, as requested
Begin final coordinates

ATOMIC_POSITIONS (angstrom)
Mo            6.5770957682        1.7312675020        2.7582049162
S             8.1494163492        0.8173574960        4.3647896010
S             8.1578644916        0.8067787781        1.1740919438
Mo            8.1356369134        4.4557497718        2.7205139788
S             6.5240751960        3.6459793774        4.3181554546
S             6.5807658327        3.5268079095        1.1079649721
Mo            6.5527459125        7.1481006144        2.6625170994
S             8.1079207148        6.2701106780        4.3091034113
S             8.1770121669        6.2915757902        1.1175389746
Mo            8.1598229837        9.9018065904        2.7695828641
S             6.5479035994        8.9104936415        4.3210310015
S             6.6137376662        9.0006739484        1.1292151508
Mo            3.4410188170        1.6891019613        2.7358143909
S             5.0100144784        0.7890552391        4.3423271971
S             5.0297216346        0.8030899285        1.1534120166
Mo            5.0391465345        4.5285942781        2.6436276080
S             3.4830878099        3.6058808270        4.2155655515
S             3.4495749514        3.5356423374        1.1185866656
Mo            3.5025558395        7.1532882053        2.6728007984
S             5.0247460218        6.2993560396        1.0324704518
Mo            5.0231196438        9.8806648126        2.7322256906
S             3.4969246390        8.9151891935        4.3282753274
S             3.4237617201        9.0054862389        1.1342884021
Mo            0.2850797098        1.7097520387        2.7642830748
S             1.8754495633        0.8149482660        4.3664158319
S             1.8456644586        0.7932736654        1.1589808975
Mo            1.8667526011        4.4786849976        2.7033699144
S             0.2866275704        3.5746939317        4.3179607140
S             0.2733026848        3.5232799718        1.1422136854
Mo            0.2968530257        7.1832880037        2.7462282061
S             1.9391755990        6.2717939396        4.3146414472
S             1.8763455154        6.3130725665        1.1099584464
Mo            1.8689918530        9.9039565873        2.7729627671
S             0.2852293297        8.9944769799        4.3686736602
S             0.2896829184        9.0132236078        1.1780427135
O             3.4785269426        3.6230951399        5.7145050449
End final coordinates



     Writing all to output data dir ./MoS2-V-O.save/
 
     init_run     :      4.68s CPU      5.18s WALL (       1 calls)
     electrons    :   2289.28s CPU   2587.38s WALL (      25 calls)
     update_pot   :     73.59s CPU     78.45s WALL (      24 calls)
     forces       :     68.21s CPU     77.62s WALL (      25 calls)

     Called by init_run:
     wfcinit      :      0.49s CPU      0.53s WALL (       1 calls)
     potinit      :      2.42s CPU      2.68s WALL (       1 calls)
     hinit0       :      0.45s CPU      0.48s WALL (       1 calls)

     Called by electrons:
     c_bands      :    339.02s CPU    347.49s WALL (     234 calls)
     sum_band     :    130.91s CPU    168.31s WALL (     234 calls)
     v_of_rho     :    216.91s CPU    264.18s WALL (     249 calls)
     newd         :     74.22s CPU    109.24s WALL (     249 calls)
     PAW_pot      :      9.85s CPU      9.89s WALL (     273 calls)
     mix_rho      :   1543.07s CPU   1715.25s WALL (     234 calls)

     Called by c_bands:
     init_us_2    :      5.37s CPU      5.79s WALL (     493 calls)
     init_us_2:cp :      5.36s CPU      5.79s WALL (     493 calls)
     regterg      :    321.51s CPU    329.53s WALL (     234 calls)

     Called by *egterg:
     rdiaghg      :     21.95s CPU     22.16s WALL (    1231 calls)
     h_psi        :    208.53s CPU    210.34s WALL (    1266 calls)
     s_psi        :     19.69s CPU     19.75s WALL (    1266 calls)
     g_psi        :      1.03s CPU      1.04s WALL (    1031 calls)

     Called by h_psi:
     h_psi:calbec :     22.44s CPU     22.58s WALL (    1266 calls)
     vloc_psi     :    164.11s CPU    165.64s WALL (    1266 calls)
     add_vuspsi   :     19.34s CPU     19.47s WALL (    1266 calls)

     General routines
     calbec       :     32.40s CPU     32.59s WALL (    1624 calls)
     fft          :    148.28s CPU    171.82s WALL (   16648 calls)
     ffts         :    690.27s CPU    856.51s WALL (  377778 calls)
     fftw         :    103.25s CPU    104.11s WALL (  145022 calls)
     interpolate  :      3.09s CPU      3.55s WALL (     249 calls)
 
     Parallel routines
 
     PWSCF        :  40m46.32s CPU  46m 4.14s WALL

 
   This run was terminated on:  14:22:42   1Nov2023            

=------------------------------------------------------------------------------=
   JOB DONE.
=------------------------------------------------------------------------------=
