
     Program PWSCF v.7.2 starts on  1Nov2023 at 21:39:56 

     This program is part of the open-source Quantum ESPRESSO suite
     for quantum simulation of materials; please cite
         "P. Giannozzi et al., J. Phys.:Condens. Matter 21 395502 (2009);
         "P. Giannozzi et al., J. Phys.:Condens. Matter 29 465901 (2017);
         "P. Giannozzi et al., J. Chem. Phys. 152 154105 (2020);
          URL http://www.quantum-espresso.org", 
     in publications or presentations arising from this work. More details at
     http://www.quantum-espresso.org/quote

     Parallel version (MPI & OpenMP), running on      48 processor cores
     Number of MPI processes:                48
     Threads/MPI process:                     1

     MPI processes distributed on     1 nodes
     74780 MiB available memory on the printing compute node when the environment starts
 
     Waiting for input...
     Reading input from standard input
Warning: card &CELL ignored
Warning: card CELL_DYNAMICS = 'BFGS', ignored
Warning: card CELL_DOFREE = '2DXY' ignored
Warning: card / ignored

     Current dimensions of program PWSCF are:
     Max number of different atomic species (ntypx) = 10
     Max number of k-points (npk) =  40000
     Max angular momentum in pseudopotentials (lmaxx) =  4
     file O.pbe-n-kjpaw_psl.0.1.UPF: wavefunction(s)  2P renormalized

     IMPORTANT: XC functional enforced from input :
     Exchange-correlation= RVV10
                           (   1   4  13   4  26   0   0)
     Any further DFT definition will be discarded
     Please, verify this is what you really want


     gamma-point specific algorithms are used
     signal trapping enabled: kill the code with -SIGUSR1 to stop cleanly the simulation 
 
     R & G space division:  proc/nbgrp/npool/nimage =      48
     Subspace diagonalization in iterative solution of the eigenvalue problem:
     one sub-group per band group will be used
     scalapack distributed-memory algorithm (size of sub-group:  2*  2 procs)

 
     Parallelization info
     --------------------
     sticks:   dense  smooth     PW     G-vecs:    dense   smooth      PW
     Min         396     194     47               101632    35090    4376
     Max         398     196     50               101674    35128    4410
     Sum       19091    9389   2349              4879585  1685513  210763
 
     Using Slab Decomposition
 


     bravais-lattice index     =            0
     lattice parameter (alat)  =      17.8707  a.u.
     unit-cell volume          =   17436.2743 (a.u.)^3
     number of atoms/cell      =           36
     number of atomic types    =            3
     number of electrons       =       312.00
     number of Kohn-Sham states=          187
     kinetic-energy cutoff     =      80.0000  Ry
     charge density cutoff     =     650.0000  Ry
     scf convergence threshold =      1.0E-06
     mixing beta               =       0.7000
     number of iterations used =            8  local-TF  mixing
     energy convergence thresh.=      1.0E-04
     force convergence thresh. =      1.0E-02
     Exchange-correlation= RVV10
                           (   1   4  13   4  26   0   0)
     nstep                     =          200


     celldm(1)=  17.870686  celldm(2)=   0.000000  celldm(3)=   0.000000
     celldm(4)=   0.000000  celldm(5)=   0.000000  celldm(6)=   0.000000

     crystal axes: (cart. coord. in units of alat)
               a(1) = (   1.000000   0.000000   0.000000 )  
               a(2) = (   0.000000   1.155671   0.000000 )  
               a(3) = (   0.000000   0.000000   2.643601 )  

     reciprocal axes: (cart. coord. in units 2 pi/alat)
               b(1) = (  1.000000  0.000000  0.000000 )  
               b(2) = (  0.000000  0.865298  0.000000 )  
               b(3) = (  0.000000  0.000000  0.378272 )  


     PseudoPot. # 1 for Mo read from file:
     ../pseudo/Mo_ONCV_PBE-1.0.oncvpsp.upf
     MD5 check sum: 1b5d28e075c9ccadda658a603575cd1f
     Pseudo is Norm-conserving, Zval = 14.0
     Generated using ONCVPSP code by D. R. Hamann
     Using radial grid of 1526 points,  6 beta functions with: 
                l(1) =   0
                l(2) =   0
                l(3) =   1
                l(4) =   1
                l(5) =   2
                l(6) =   2

     PseudoPot. # 2 for S  read from file:
     ../pseudo/s_pbe_v1.4.uspp.F.UPF
     MD5 check sum: 88d86576ff6df21479756cfb9bdac1df
     Pseudo is Ultrasoft + core correction, Zval =  6.0
     Generated by new atomic code, or converted to UPF format
     Using radial grid of  907 points,  6 beta functions with: 
                l(1) =   0
                l(2) =   0
                l(3) =   1
                l(4) =   1
                l(5) =   2
                l(6) =   2
     Q(r) pseudized with  8 coefficients,  rinner =    1.300   1.300   1.300
                                                       1.300   1.300

     PseudoPot. # 3 for O  read from file:
     ../pseudo/O.pbe-n-kjpaw_psl.0.1.UPF
     MD5 check sum: 0234752ac141de4415c5fc33072bef88
     Pseudo is Projector augmented-wave + core cor, Zval =  6.0
     Generated using "atomic" code by A. Dal Corso  v.5.0.99 svn rev. 10869
     Shape of augmentation charge: BESSEL
     Using radial grid of 1095 points,  4 beta functions with: 
                l(1) =   0
                l(2) =   0
                l(3) =   1
                l(4) =   1
     Q(r) pseudized with 0 coefficients 


     atomic species   valence    mass     pseudopotential
        Mo            14.00    95.94000     Mo( 1.00)
        S              6.00    32.06500     S ( 1.00)
        O              6.00    15.99940     O ( 1.00)

     No symmetry found



   Cartesian axes

     site n.     atom                  positions (alat units)
         1           Mo  tau(   1) = (   0.6952221   0.1890506   0.2985846  )
         2           S   tau(   2) = (   0.8646417   0.0856217   0.4689279  )
         3           S   tau(   3) = (   0.8663890   0.0857843   0.1351291  )
         4           Mo  tau(   4) = (   0.8560186   0.4753274   0.2873942  )
         5           S   tau(   5) = (   0.6873294   0.3936244   0.4596353  )
         6           S   tau(   6) = (   0.6929804   0.3713468   0.1185692  )
         7           Mo  tau(   7) = (   0.6862796   0.7633098   0.2825370  )
         8           S   tau(   8) = (   0.8545980   0.6708292   0.4486168  )
         9           S   tau(   9) = (   0.8545123   0.6666874   0.1146125  )
        10           Mo  tau(  10) = (   0.8629403   1.0471007   0.3006803  )
        11           S   tau(  11) = (   0.6868280   0.9456650   0.4634891  )
        12           S   tau(  12) = (   0.6998113   0.9568511   0.1205389  )
        13           Mo  tau(  13) = (   0.3618216   0.1847309   0.2935964  )
        14           S   tau(  14) = (   0.5260962   0.0863870   0.4600448  )
        15           S   tau(  15) = (   0.5348379   0.0894875   0.1297123  )
        16           Mo  tau(  16) = (   0.5265817   0.4772436   0.2784130  )
        17           S   tau(  17) = (   0.3624753   0.3882513   0.4525556  )
        18           S   tau(  18) = (   0.3635411   0.3752055   0.1119148  )
        19           Mo  tau(  19) = (   0.3652268   0.7630864   0.2781795  )
        20           S   tau(  20) = (   0.5269494   0.6690381   0.1096838  )
        21           Mo  tau(  21) = (   0.5300192   1.0470394   0.2900995  )
        22           S   tau(  22) = (   0.3670346   0.9457522   0.4574073  )
        23           S   tau(  23) = (   0.3604225   0.9585725   0.1159032  )
        24           Mo  tau(  24) = (   0.0313099   0.1847895   0.3013130  )
        25           S   tau(  25) = (   0.1956761   0.0838230   0.4650863  )
        26           S   tau(  26) = (   0.1967693   0.0903508   0.1278874  )
        27           Mo  tau(  27) = (   0.1967578   0.4753919   0.2813011  )
        28           S   tau(  28) = (   0.0287851   0.3864324   0.4586755  )
        29           S   tau(  29) = (   0.0244514   0.3729871   0.1239344  )
        30           Mo  tau(  30) = (   0.0286728   0.7631204   0.2856894  )
        31           S   tau(  31) = (   0.2011512   0.6675435   0.4465001  )
        32           S   tau(  32) = (   0.1969214   0.6672839   0.1104564  )
        33           Mo  tau(  33) = (   0.1950294   1.0511147   0.2932237  )
        34           S   tau(  34) = (   0.0312912   0.9612169   0.4667423  )
        35           S   tau(  35) = (   0.0292670   0.9563028   0.1216485  )
        36           O   tau(  36) = (   0.2222222   1.0272628   0.5792558  )

     number of k points=     1  Gaussian smearing, width (Ry)=  0.0100
                       cart. coord. in units 2pi/alat
        k(    1) = (   0.0000000   0.0000000   0.0000000), wk =   2.0000000

     Dense  grid:  2439793 G-vectors     FFT dimensions: ( 150, 180, 384)

     Smooth grid:   842757 G-vectors     FFT dimensions: ( 108, 120, 270)

     Estimated max dynamical RAM per process >     269.22 MB

     Estimated total dynamical RAM >      12.62 GB

     Initial potential from superposition of free atoms

     starting charge     311.9873, renormalised to     312.0000

     negative rho (up, down):  2.752E-04 0.000E+00


---------------------------------------------------------------------------------
Carrying out rVV10 run using the following parameters:
Nqs =      20    Nr_points =    1024   r_max =   100.000
b_value =  6.30000    beta =  0.00901
     q_mesh =  0.00010000  0.00030000  0.00058939  0.00100810
               0.00161396  0.00249058  0.00375900  0.00559430
               0.00824984  0.01209221  0.01765183  0.02569619
               0.03733578  0.05417739  0.07854596  0.11380545
               0.16482331  0.23864234  0.34545298  0.50000000

Gradients computed in Reciprocal space

---------------------------------------------------------------------------------


     Starting wfcs are  216 randomized atomic wfcs
     Checking if some PAW data can be deallocated... 

     total cpu time spent up to now is        5.6 secs

     Self-consistent Calculation

     iteration #  1     ecut=    80.00 Ry     beta= 0.70
     Davidson diagonalization with overlap
     ethr =  1.00E-02,  avg # of iterations =  2.0

     Threshold (ethr) on eigenvalues was too large:
     Diagonalizing with lowered threshold

     Davidson diagonalization with overlap
     ethr =  4.45E-04,  avg # of iterations =  2.0

     negative rho (up, down):  3.388E-08 0.000E+00

     total cpu time spent up to now is       20.3 secs

     total energy              =   -2246.11653860 Ry
     estimated scf accuracy    <       1.63287698 Ry

     iteration #  2     ecut=    80.00 Ry     beta= 0.70
     Davidson diagonalization with overlap
     ethr =  5.23E-04,  avg # of iterations =  4.0

     total cpu time spent up to now is       27.3 secs

     total energy              =   -2246.08882889 Ry
     estimated scf accuracy    <       1.90041397 Ry

     iteration #  3     ecut=    80.00 Ry     beta= 0.70
     Davidson diagonalization with overlap
     ethr =  5.23E-04,  avg # of iterations =  2.0

     total cpu time spent up to now is       31.4 secs

     total energy              =   -2246.11334896 Ry
     estimated scf accuracy    <       0.39552597 Ry

     iteration #  4     ecut=    80.00 Ry     beta= 0.70
     Davidson diagonalization with overlap
     ethr =  1.27E-04,  avg # of iterations =  4.0

     total cpu time spent up to now is       35.5 secs

     total energy              =   -2246.16417834 Ry
     estimated scf accuracy    <       0.06993374 Ry

     iteration #  5     ecut=    80.00 Ry     beta= 0.70
     Davidson diagonalization with overlap
     ethr =  2.24E-05,  avg # of iterations = 14.0

     total cpu time spent up to now is       39.7 secs

     total energy              =   -2246.16700201 Ry
     estimated scf accuracy    <       0.02334260 Ry

     iteration #  6     ecut=    80.00 Ry     beta= 0.70
     Davidson diagonalization with overlap
     ethr =  7.48E-06,  avg # of iterations = 17.0

     total cpu time spent up to now is       44.2 secs

     total energy              =   -2246.16716350 Ry
     estimated scf accuracy    <       0.01264270 Ry

     iteration #  7     ecut=    80.00 Ry     beta= 0.70
     Davidson diagonalization with overlap
     ethr =  4.05E-06,  avg # of iterations =  2.0

     total cpu time spent up to now is       47.8 secs

     total energy              =   -2246.16650369 Ry
     estimated scf accuracy    <       0.00937983 Ry

     iteration #  8     ecut=    80.00 Ry     beta= 0.70
     Davidson diagonalization with overlap
     ethr =  3.01E-06,  avg # of iterations =  1.0

     negative rho (up, down):  3.831E-04 0.000E+00

     total cpu time spent up to now is       55.2 secs

     total energy              =   -2246.16497707 Ry
     estimated scf accuracy    <       0.00628463 Ry

     iteration #  9     ecut=    80.00 Ry     beta= 0.70
     Davidson diagonalization with overlap
     ethr =  2.01E-06,  avg # of iterations =  2.0

     negative rho (up, down):  1.319E-02 0.000E+00

     total cpu time spent up to now is       61.6 secs

     total energy              =   -2246.16479889 Ry
     estimated scf accuracy    <       0.00270710 Ry

     iteration # 10     ecut=    80.00 Ry     beta= 0.70
     Davidson diagonalization with overlap
     ethr =  8.68E-07,  avg # of iterations =  2.0

     negative rho (up, down):  1.651E-02 0.000E+00

     total cpu time spent up to now is       67.6 secs

     total energy              =   -2246.16457774 Ry
     estimated scf accuracy    <       0.00148462 Ry

     iteration # 11     ecut=    80.00 Ry     beta= 0.70
     Davidson diagonalization with overlap
     ethr =  4.76E-07,  avg # of iterations =  2.0

     negative rho (up, down):  2.096E-02 0.000E+00

     total cpu time spent up to now is       75.2 secs

     total energy              =   -2246.16467766 Ry
     estimated scf accuracy    <       0.00079538 Ry

     iteration # 12     ecut=    80.00 Ry     beta= 0.70
     Davidson diagonalization with overlap
     ethr =  2.55E-07,  avg # of iterations =  2.0

     negative rho (up, down):  1.034E-02 0.000E+00

     total cpu time spent up to now is       82.2 secs

     total energy              =   -2246.16467548 Ry
     estimated scf accuracy    <       0.00015069 Ry

     iteration # 13     ecut=    80.00 Ry     beta= 0.70
     Davidson diagonalization with overlap
     ethr =  4.83E-08,  avg # of iterations =  4.0

     negative rho (up, down):  3.525E-03 0.000E+00

     total cpu time spent up to now is       91.8 secs

     total energy              =   -2246.16473744 Ry
     estimated scf accuracy    <       0.00003740 Ry

     iteration # 14     ecut=    80.00 Ry     beta= 0.70
     Davidson diagonalization with overlap
     ethr =  1.20E-08,  avg # of iterations =  5.0

     negative rho (up, down):  1.099E-03 0.000E+00

     total cpu time spent up to now is      100.7 secs

     total energy              =   -2246.16474697 Ry
     estimated scf accuracy    <       0.00000905 Ry

     iteration # 15     ecut=    80.00 Ry     beta= 0.70
     Davidson diagonalization with overlap
     ethr =  2.90E-09,  avg # of iterations =  2.0

     negative rho (up, down):  5.388E-04 0.000E+00

     total cpu time spent up to now is      109.3 secs

     total energy              =   -2246.16474902 Ry
     estimated scf accuracy    <       0.00000505 Ry

     iteration # 16     ecut=    80.00 Ry     beta= 0.70
     Davidson diagonalization with overlap
     ethr =  1.62E-09,  avg # of iterations =  4.0

     negative rho (up, down):  2.963E-04 0.000E+00

     total cpu time spent up to now is      117.4 secs

     total energy              =   -2246.16475367 Ry
     estimated scf accuracy    <       0.00000139 Ry

     iteration # 17     ecut=    80.00 Ry     beta= 0.70
     Davidson diagonalization with overlap
     ethr =  4.47E-10,  avg # of iterations =  5.0

     negative rho (up, down):  1.881E-04 0.000E+00

     total cpu time spent up to now is      121.2 secs

     End of self-consistent calculation

          k = 0.0000 0.0000 0.0000 (105382 PWs)   bands (ev):

   -62.9988 -62.9718 -62.9652 -62.9550 -62.9534 -62.9350 -62.9304 -62.9227
   -62.8854 -62.8711 -62.8631 -62.8386 -37.3594 -37.2980 -37.2619 -37.2461
   -37.2313 -37.2104 -37.1977 -37.1822 -37.1792 -37.1655 -37.1561 -37.1523
   -37.1415 -37.1363 -37.1255 -37.1113 -37.1025 -37.0979 -37.0872 -37.0717
   -37.0701 -37.0678 -37.0526 -37.0439 -37.0341 -37.0290 -37.0264 -37.0170
   -36.9997 -36.9826 -36.9725 -36.9441 -36.9178 -36.8826 -36.8631 -36.8577
   -19.6395 -16.0124 -15.2763 -15.2313 -15.1320 -15.0178 -14.8392 -14.7519
   -14.5746 -14.5506 -14.5137 -14.4899 -14.4460 -14.4160 -14.3558 -14.2527
   -14.2179 -14.1978 -14.1368 -14.0906 -13.9835 -13.9628 -13.9368 -13.8992
    -7.8863  -7.7319  -7.5701  -7.4719  -7.3786  -7.3285  -7.2954  -7.2298
    -7.0162  -6.9700  -6.9161  -6.8647  -6.8179  -6.7784  -6.6444  -6.6086
    -6.5664  -6.5116  -6.3789  -6.3727  -6.1579  -6.0826  -6.0460  -5.9618
    -5.9252  -5.8533  -5.8156  -5.7782  -5.7671  -5.7210  -5.6491  -5.6248
    -5.6158  -5.5474  -5.4716  -5.3461  -5.2769  -5.2339  -5.1942  -5.1067
    -5.0492  -4.9977  -4.9411  -4.8261  -4.7844  -4.6735  -4.6200  -4.4201
    -4.3720  -4.3326  -4.2508  -4.1976  -4.0687  -3.9668  -3.9213  -3.8725
    -3.8493  -3.8007  -3.6858  -3.6651  -3.6311  -3.6041  -3.5847  -3.5328
    -3.4819  -3.4657  -3.3596  -3.2955  -3.1337  -3.0730  -2.9744  -2.9108
    -2.8758  -2.8419  -2.8038  -2.7628  -2.7327  -2.7017  -2.3636  -2.1862
    -2.1344  -2.0419  -1.8026  -1.6380  -1.4484  -0.9178  -0.7235  -0.2808
    -0.2100  -0.1741  -0.1328  -0.0254   0.0248   0.0772   0.1414   0.1745
     0.2133   0.3024   0.3228   0.3695   0.4172   0.4561   0.4735   0.5006
     0.5750   0.6176   0.6349   0.7215   0.7328   0.7507   0.8368   0.8379
     0.9437   0.9816   1.0637

     the Fermi energy is    -1.5425 ev

!    total energy              =   -2246.16475279 Ry
     estimated scf accuracy    <       0.00000082 Ry
     smearing contrib. (-TS)   =      -0.00709090 Ry
     internal energy E=F+TS    =   -2246.15766190 Ry

     The total energy is F=E-TS. E is the sum of the following terms:
     one-electron contribution =  -18436.42173193 Ry
     hartree contribution      =    9206.16569286 Ry
     xc contribution           =    -391.89675185 Ry
     ewald contribution        =    7385.87156227 Ry
     one-center paw contrib.   =      -9.87643324 Ry

     convergence has been achieved in  17 iterations

     negative rho (up, down):  1.881E-04 0.000E+00

     Forces acting on atoms (cartesian axes, Ry/au):

     atom    1 type  1   force =     0.01567031   -0.02216588    0.00010732
     atom    2 type  2   force =    -0.01653532    0.01743585    0.00368490
     atom    3 type  2   force =    -0.01552773    0.00985102   -0.00735446
     atom    4 type  1   force =     0.00435381    0.00441414   -0.00122280
     atom    5 type  2   force =    -0.00167263   -0.00532520   -0.00680285
     atom    6 type  2   force =     0.00067686    0.00995594   -0.00018533
     atom    7 type  1   force =     0.00447218   -0.01518484   -0.00607516
     atom    8 type  2   force =     0.00021869   -0.00372976    0.01921574
     atom    9 type  2   force =     0.01287906    0.00614435    0.01105876
     atom   10 type  1   force =    -0.01576123    0.00517132   -0.03161599
     atom   11 type  2   force =     0.01372830   -0.00615578   -0.00498950
     atom   12 type  2   force =    -0.00041036    0.00143491    0.00454255
     atom   13 type  1   force =     0.00033031    0.00663131   -0.01045436
     atom   14 type  2   force =     0.01221149    0.00029592    0.01589758
     atom   15 type  2   force =    -0.01027806    0.00354150   -0.01107812
     atom   16 type  1   force =     0.00319963    0.01298040    0.00609729
     atom   17 type  2   force =     0.00469553   -0.00205272    0.00231350
     atom   18 type  2   force =    -0.00306596   -0.00658665    0.01360730
     atom   19 type  1   force =    -0.01932041   -0.01376425   -0.00150088
     atom   20 type  2   force =     0.00272143   -0.00388275   -0.00009631
     atom   21 type  1   force =    -0.01495496    0.02100776    0.00286487
     atom   22 type  2   force =    -0.01842316    0.01072663    0.06024182
     atom   23 type  2   force =     0.00116464    0.00294266    0.01261755
     atom   24 type  1   force =     0.00044633    0.00792799   -0.02391899
     atom   25 type  2   force =     0.00695007    0.05471948   -0.01640486
     atom   26 type  2   force =    -0.01297221   -0.00306999   -0.00461846
     atom   27 type  1   force =     0.00076743   -0.00038943    0.00464593
     atom   28 type  2   force =     0.00116525   -0.00194713   -0.00329137
     atom   29 type  2   force =     0.00231000   -0.00170572   -0.00166455
     atom   30 type  1   force =    -0.00029152    0.01115390   -0.01052560
     atom   31 type  2   force =    -0.00037721   -0.00423664    0.02206303
     atom   32 type  2   force =    -0.00774351    0.00632944    0.00551952
     atom   33 type  1   force =    -0.01421490    0.00803510   -0.04982838
     atom   34 type  2   force =    -0.02973518   -0.04847547   -0.02566871
     atom   35 type  2   force =    -0.00861914    0.00922336    0.01533246
     atom   36 type  3   force =     0.10194219   -0.07125079    0.01748655
     The non-local contrib.  to forces
     atom    1 type  1   force =     0.00063204    0.03009802   -0.01075949
     atom    2 type  2   force =    -0.01386835    0.00603977   -0.26961871
     atom    3 type  2   force =    -0.01784376   -0.00383886    0.26503056
     atom    4 type  1   force =     0.00096303    0.00361665    0.00745786
     atom    5 type  2   force =     0.00589821   -0.03044012   -0.25256226
     atom    6 type  2   force =    -0.00318858    0.01161160    0.26252531
     atom    7 type  1   force =    -0.01457104   -0.00071923   -0.01696540
     atom    8 type  2   force =     0.00457039   -0.00230566   -0.25638650
     atom    9 type  2   force =     0.00746683   -0.00618499    0.27948354
     atom   10 type  1   force =     0.01968728   -0.00509717    0.00899873
     atom   11 type  2   force =     0.02277606    0.00110344   -0.26125505
     atom   12 type  2   force =    -0.01415295   -0.01633707    0.26326253
     atom   13 type  1   force =    -0.00955594    0.02662801   -0.00489519
     atom   14 type  2   force =     0.01007907   -0.01018169   -0.26601028
     atom   15 type  2   force =    -0.01007211   -0.01334598    0.26028941
     atom   16 type  1   force =    -0.00252427    0.02656398   -0.02942274
     atom   17 type  2   force =     0.00324676   -0.03048663   -0.25140205
     atom   18 type  2   force =    -0.00507934   -0.00224407    0.27317787
     atom   19 type  1   force =     0.02072711   -0.00153897   -0.02630926
     atom   20 type  2   force =    -0.00261883   -0.02248255    0.26691855
     atom   21 type  1   force =     0.00466762    0.02620612    0.01040890
     atom   22 type  2   force =    -0.30261456    0.18275615   -0.00609889
     atom   23 type  2   force =     0.00664245   -0.01879490    0.26593050
     atom   24 type  1   force =     0.01533221    0.00531640   -0.00390438
     atom   25 type  2   force =     0.00749750   -0.00186966   -0.26433423
     atom   26 type  2   force =    -0.00392859   -0.01813501    0.26543927
     atom   27 type  1   force =    -0.00537816    0.00268764    0.00726945
     atom   28 type  2   force =    -0.00304222   -0.02372888   -0.27652003
     atom   29 type  2   force =     0.00776802    0.00344246    0.26318364
     atom   30 type  1   force =    -0.00834430    0.02096033    0.00495063
     atom   31 type  2   force =    -0.00638480    0.00589914   -0.25459685
     atom   32 type  2   force =     0.00568409   -0.00909147    0.27293520
     atom   33 type  1   force =    -0.01392781    0.01306050    0.00839929
     atom   34 type  2   force =     0.05658708    0.00177922   -0.24349207
     atom   35 type  2   force =     0.00134668   -0.00915785    0.27374256
     atom   36 type  3   force =     0.53601050   -0.34507880   -0.58097546
     The ionic contribution  to forces
     atom    1 type  1   force =     0.48697595    0.81322170    4.54449848
     atom    2 type  2   force =    -1.27785402    0.96195327   38.88608733
     atom    3 type  2   force =    -0.29451155    0.17692872  -36.74757849
     atom    4 type  1   force =    -0.10772875    0.49758275   -0.29792037
     atom    5 type  2   force =    -0.92892517    1.59284906   38.55115223
     atom    6 type  2   force =     0.35733069   -0.44866043  -38.49798125
     atom    7 type  1   force =    -2.46318025   -3.35956117    1.28169569
     atom    8 type  2   force =    -1.24862836   -0.38204631   37.08775602
     atom    9 type  2   force =     0.27249415   -0.16864143  -38.54913272
     atom   10 type  1   force =    -2.23760321   -0.20970799    3.66646669
     atom   11 type  2   force =    -0.34541774   -1.80158662   38.75790401
     atom   12 type  2   force =     0.46903754    0.63946895  -38.51524423
     atom   13 type  1   force =     1.09365057    2.41950108    0.85054068
     atom   14 type  2   force =     0.89567093    0.72982858   37.99084802
     atom   15 type  2   force =     0.30895402    0.11078338  -37.49758962
     atom   16 type  1   force =     0.22767086    3.84817685   -0.54593438
     atom   17 type  2   force =     0.96640854    1.73498861   37.64849952
     atom   18 type  2   force =    -0.10984579   -0.56860644  -39.11167088
     atom   19 type  1   force =     3.46149149   -3.91886634   -1.70999172
     atom   20 type  2   force =     0.31775007   -0.34393059  -39.05055114
     atom   21 type  1   force =     1.48443998    0.17844197   -1.22803840
     atom   22 type  2   force =     4.03891680   -3.77218857   35.24125213
     atom   23 type  2   force =     0.09190128    0.56058537  -39.32594016
     atom   24 type  1   force =    -1.28011170    2.43355245    4.01847623
     atom   25 type  2   force =     0.26058952    3.50238989   37.41719385
     atom   26 type  2   force =    -0.31927967    0.35434426  -38.27675570
     atom   27 type  1   force =    -0.02124350    0.25261471   -3.46725279
     atom   28 type  2   force =    -0.13504161    1.22264614   37.94875413
     atom   29 type  2   force =    -0.33108484   -0.35006885  -37.79947157
     atom   30 type  1   force =    -1.21031850   -2.22399860   -2.16696076
     atom   31 type  2   force =     1.15570026   -1.21472330   36.72680296
     atom   32 type  2   force =    -0.49707635   -0.22448845  -39.32052097
     atom   33 type  1   force =     0.25081310   -0.35822362   -4.43439950
     atom   34 type  2   force =    -3.03587299   -2.61338214   37.25213103
     atom   35 type  2   force =    -0.51807667    0.37791270  -38.78255062
     atom   36 type  3   force =     0.22200493   -0.44908957   47.45542625
     The local contribution  to forces
     atom    1 type  1   force =    -0.47195849   -0.86545666   -4.53405582
     atom    2 type  2   force =     1.27471673   -0.95026396  -38.63327132
     atom    3 type  2   force =     0.29599869   -0.16336458   36.49507003
     atom    4 type  1   force =     0.11116556   -0.49670764    0.28865044
     atom    5 type  2   force =     0.92188461   -1.56944184  -38.32554353
     atom    6 type  2   force =    -0.35386658    0.44812373   38.25539602
     atom    7 type  1   force =     2.48215115    3.34493152   -1.27126987
     atom    8 type  2   force =     1.24444119    0.38020008  -36.83251823
     atom    9 type  2   force =    -0.26686386    0.18063196   38.30115739
     atom   10 type  1   force =     2.20200280    0.21998197   -3.70762862
     atom   11 type  2   force =     0.33737060    1.79459688  -38.52212021
     atom   12 type  2   force =    -0.45654759   -0.62303185   38.27666282
     atom   13 type  1   force =    -1.08362705   -2.43924320   -0.85674146
     atom   14 type  2   force =    -0.89296408   -0.71945798  -37.72957738
     atom   15 type  2   force =    -0.30977237   -0.09466175   37.24599113
     atom   16 type  1   force =    -0.22195981   -3.86158656    0.58093160
     atom   17 type  2   force =    -0.96485538   -1.70812960  -37.41493619
     atom   18 type  2   force =     0.11174311    0.56478972   38.87240783
     atom   19 type  1   force =    -3.50136597    3.90638400    1.73417712
     atom   20 type  2   force =    -0.31269536    0.36163556   38.80410372
     atom   21 type  1   force =    -1.50389458   -0.18360809    1.21984519
     atom   22 type  2   force =    -3.77028923    3.60979164  -35.18215319
     atom   23 type  2   force =    -0.09677584   -0.54029256   39.09263117
     atom   24 type  1   force =     1.26512319   -2.43086217   -4.03903478
     atom   25 type  2   force =    -0.26130882   -3.44472879  -37.19053211
     atom   26 type  2   force =     0.31035448   -0.34021045   38.02683837
     atom   27 type  1   force =     0.02737520   -0.25564108    3.46396333
     atom   28 type  2   force =     0.13903611   -1.20256927  -37.69639619
     atom   29 type  2   force =     0.32627577    0.34564658   37.55444544
     atom   30 type  1   force =     1.21827153    2.21396480    2.15073157
     atom   31 type  2   force =    -1.15005716    1.20471586  -36.47060865
     atom   32 type  2   force =     0.48415871    0.23937600   39.07336357
     atom   33 type  1   force =    -0.25116276    0.35319693    4.37550195
     atom   34 type  2   force =     2.95103715    2.56353138  -37.05428787
     atom   35 type  2   force =     0.50834530   -0.36045389   38.54455537
     atom   36 type  3   force =    -0.64974206    0.71889069  -46.86275924
     The core correction contribution to forces
     atom    1 type  1   force =     0.00000000    0.00000000    0.00000000
     atom    2 type  2   force =     0.00042402   -0.00031086    0.02071703
     atom    3 type  2   force =     0.00082064    0.00009736   -0.02060333
     atom    4 type  1   force =     0.00000000    0.00000000    0.00000000
     atom    5 type  2   force =    -0.00058090    0.00171047    0.02038183
     atom    6 type  2   force =     0.00038436   -0.00113734   -0.02084512
     atom    7 type  1   force =     0.00000000    0.00000000    0.00000000
     atom    8 type  2   force =    -0.00017172    0.00044065    0.02055542
     atom    9 type  2   force =    -0.00016006    0.00035320   -0.02113184
     atom   10 type  1   force =     0.00000000    0.00000000    0.00000000
     atom   11 type  2   force =    -0.00099025   -0.00028354    0.02074772
     atom   12 type  2   force =     0.00127476    0.00137876   -0.02088556
     atom   13 type  1   force =     0.00000000    0.00000000    0.00000000
     atom   14 type  2   force =    -0.00050928    0.00011399    0.02086206
     atom   15 type  2   force =     0.00061040    0.00075700   -0.02052616
     atom   16 type  1   force =     0.00000000    0.00000000    0.00000000
     atom   17 type  2   force =    -0.00007501    0.00160026    0.02035527
     atom   18 type  2   force =     0.00010655   -0.00055509   -0.02100947
     atom   19 type  1   force =     0.00000000    0.00000000    0.00000000
     atom   20 type  2   force =     0.00029685    0.00084368   -0.02126393
     atom   21 type  1   force =     0.00000000    0.00000000    0.00000000
     atom   22 type  2   force =     0.01561769   -0.00966204    0.00751647
     atom   23 type  2   force =    -0.00056982    0.00146712   -0.02084346
     atom   24 type  1   force =     0.00000000    0.00000000    0.00000000
     atom   25 type  2   force =     0.00014962   -0.00104879    0.02155458
     atom   26 type  2   force =    -0.00012225    0.00096513   -0.02096105
     atom   27 type  1   force =     0.00000000    0.00000000    0.00000000
     atom   28 type  2   force =     0.00022679    0.00174769    0.02107903
     atom   29 type  2   force =    -0.00062931   -0.00072540   -0.02054110
     atom   30 type  1   force =     0.00000000    0.00000000    0.00000000
     atom   31 type  2   force =     0.00034988   -0.00020479    0.02065628
     atom   32 type  2   force =    -0.00057281    0.00051490   -0.02097800
     atom   33 type  1   force =     0.00000000    0.00000000    0.00000000
     atom   34 type  2   force =    -0.00153200   -0.00041775    0.02027729
     atom   35 type  2   force =    -0.00028396    0.00087674   -0.02122818
     atom   36 type  3   force =    -0.00634979    0.00400135    0.00573668
     The Hubbard contrib.    to forces
     atom    1 type  1   force =     0.00000000    0.00000000    0.00000000
     atom    2 type  2   force =     0.00000000    0.00000000    0.00000000
     atom    3 type  2   force =     0.00000000    0.00000000    0.00000000
     atom    4 type  1   force =     0.00000000    0.00000000    0.00000000
     atom    5 type  2   force =     0.00000000    0.00000000    0.00000000
     atom    6 type  2   force =     0.00000000    0.00000000    0.00000000
     atom    7 type  1   force =     0.00000000    0.00000000    0.00000000
     atom    8 type  2   force =     0.00000000    0.00000000    0.00000000
     atom    9 type  2   force =     0.00000000    0.00000000    0.00000000
     atom   10 type  1   force =     0.00000000    0.00000000    0.00000000
     atom   11 type  2   force =     0.00000000    0.00000000    0.00000000
     atom   12 type  2   force =     0.00000000    0.00000000    0.00000000
     atom   13 type  1   force =     0.00000000    0.00000000    0.00000000
     atom   14 type  2   force =     0.00000000    0.00000000    0.00000000
     atom   15 type  2   force =     0.00000000    0.00000000    0.00000000
     atom   16 type  1   force =     0.00000000    0.00000000    0.00000000
     atom   17 type  2   force =     0.00000000    0.00000000    0.00000000
     atom   18 type  2   force =     0.00000000    0.00000000    0.00000000
     atom   19 type  1   force =     0.00000000    0.00000000    0.00000000
     atom   20 type  2   force =     0.00000000    0.00000000    0.00000000
     atom   21 type  1   force =     0.00000000    0.00000000    0.00000000
     atom   22 type  2   force =     0.00000000    0.00000000    0.00000000
     atom   23 type  2   force =     0.00000000    0.00000000    0.00000000
     atom   24 type  1   force =     0.00000000    0.00000000    0.00000000
     atom   25 type  2   force =     0.00000000    0.00000000    0.00000000
     atom   26 type  2   force =     0.00000000    0.00000000    0.00000000
     atom   27 type  1   force =     0.00000000    0.00000000    0.00000000
     atom   28 type  2   force =     0.00000000    0.00000000    0.00000000
     atom   29 type  2   force =     0.00000000    0.00000000    0.00000000
     atom   30 type  1   force =     0.00000000    0.00000000    0.00000000
     atom   31 type  2   force =     0.00000000    0.00000000    0.00000000
     atom   32 type  2   force =     0.00000000    0.00000000    0.00000000
     atom   33 type  1   force =     0.00000000    0.00000000    0.00000000
     atom   34 type  2   force =     0.00000000    0.00000000    0.00000000
     atom   35 type  2   force =     0.00000000    0.00000000    0.00000000
     atom   36 type  3   force =     0.00000000    0.00000000    0.00000000
     The SCF correction term to forces
     atom    1 type  1   force =     0.00002033   -0.00002880    0.00040923
     atom    2 type  2   force =     0.00004583    0.00001776   -0.00024435
     atom    3 type  2   force =     0.00000778    0.00002851    0.00071186
     atom    4 type  1   force =    -0.00004651   -0.00007750    0.00057436
     atom    5 type  2   force =     0.00005014   -0.00000265   -0.00024604
     atom    6 type  2   force =     0.00001649    0.00001851    0.00070480
     atom    7 type  1   force =     0.00007185    0.00016418    0.00044950
     atom    8 type  2   force =     0.00000671   -0.00001838   -0.00020589
     atom    9 type  2   force =    -0.00005848   -0.00001425    0.00066747
     atom   10 type  1   force =     0.00015142   -0.00000537    0.00053229
     atom   11 type  2   force =    -0.00001085    0.00001420   -0.00028088
     atom   12 type  2   force =    -0.00002260   -0.00004375    0.00073207
     atom   13 type  1   force =    -0.00013775   -0.00025446    0.00062669
     atom   14 type  2   force =    -0.00006563   -0.00000684   -0.00023975
     atom   15 type  2   force =     0.00000152    0.00000898    0.00074220
     atom   16 type  1   force =     0.00001237   -0.00017374    0.00050789
     atom   17 type  2   force =    -0.00002986   -0.00002524   -0.00021797
     atom   18 type  2   force =     0.00000903    0.00002934    0.00068703
     atom   19 type  1   force =    -0.00017352    0.00025720    0.00060806
     atom   20 type  2   force =    -0.00001179    0.00005128    0.00068158
     atom   21 type  1   force =    -0.00016846   -0.00003211    0.00063427
     atom   22 type  2   force =    -0.00005434    0.00002958   -0.00028961
     atom   23 type  2   force =    -0.00003390   -0.00002223    0.00082459
     atom   24 type  1   force =     0.00010216   -0.00007856    0.00052903
     atom   25 type  2   force =     0.00002178   -0.00002305   -0.00030188
     atom   26 type  2   force =     0.00000334   -0.00003379    0.00080574
     atom   27 type  1   force =     0.00001341   -0.00005057    0.00065102
     atom   28 type  2   force =    -0.00001430   -0.00004269   -0.00022321
     atom   29 type  2   force =    -0.00002011   -0.00000038    0.00070412
     atom   30 type  1   force =     0.00009927    0.00022750    0.00073805
     atom   31 type  2   force =     0.00001414    0.00007658   -0.00020563
     atom   32 type  2   force =     0.00006236    0.00001859    0.00070480
     atom   33 type  1   force =     0.00006209    0.00000141    0.00065496
     atom   34 type  2   force =     0.00004511    0.00001393   -0.00031201
     atom   35 type  2   force =     0.00004904    0.00004579    0.00079842
     atom   36 type  3   force =     0.00001814    0.00002567    0.00004341

     Total force =     0.197876     Total SCF correction =     0.003416

     BFGS Geometry Optimization
     Energy error            =      0.0E+00 Ry
     Gradient error          =      1.0E-01 Ry/Bohr

     number of scf cycles    =   1
     number of bfgs steps    =   0

     energy             new  =   -2246.1647527917 Ry

     new trust radius        =       0.1255972274 bohr
     new conv_thr            =       0.0000010000 Ry


ATOMIC_POSITIONS (angstrom)
Mo            6.5828407818        1.7760765508        2.8236998215
S             8.1679592262        0.8189306777        4.4364883185
S             8.1850161669        0.8164546798        1.2739916111
Mo            8.0974665011        4.4973928053        2.7171713156
S             6.4990241382        3.7195935138        4.3430607374
S             6.5537079772        3.5170060114        1.1211821579
Mo            6.4923482695        7.2104018147        2.6686696463
S             8.0818434536        6.3418972910        4.2526300933
S             8.0877329538        6.3079537687        1.0897150406
Mo            8.1522785650        9.9049169595        2.8267313008
S             6.5024322974        8.9396693162        4.3804652038
S             6.6177300460        9.0494705353        1.1423111161
Mo            3.4218344547        1.7504649874        2.7709389510
S             4.9816275315        0.8170978046        4.3589457299
S             5.0523948381        0.8481361904        1.2207961702
Mo            4.9814498510        4.5200469328        2.6361110959
S             3.4303264312        3.6705134321        4.2809338337
S             3.4362981423        3.5447431906        1.0655523552
Mo            3.4436378213        7.2090408118        2.6298826284
S             4.9846743098        6.3248776251        1.0372027669
Mo            5.0043500951        9.9127168815        2.7449169868
S             3.4612090010        8.9494275568        4.3574699095
S             3.4090454670        9.0665471708        1.1027452210
Mo            0.2963266770        1.7517048434        2.8367873247
S             1.8541400330        0.8216503087        4.3895283590
S             1.8539354359        0.8528013488        1.2069568723
Mo            1.8610974136        4.4954606846        2.6626559020
S             0.2728304716        3.6533684481        4.3358423836
S             0.2324536070        3.5263466000        1.1711370424
Mo            0.2709978868        7.2225484812        2.6961265204
S             1.9020386358        6.3105569039        4.2341193724
S             1.8581405238        6.3136932091        1.0474800886
Mo            1.8368244620        9.9443911460        2.7465782103
S             0.2801777179        9.0643457113        4.4002861692
S             0.2722103452        9.0484065091        1.1585143699
O             2.1554477048        9.6768734859        5.4871369105



     Writing config-only to output data dir ./MoS2-V-O.save/
     NEW-OLD atomic charge density approx. for the potential

     negative rho (up, down):  1.917E-04 0.000E+00

     total cpu time spent up to now is      128.5 secs

     Self-consistent Calculation

     iteration #  1     ecut=    80.00 Ry     beta= 0.70
     Davidson diagonalization with overlap
     ethr =  1.00E-06,  avg # of iterations = 13.0

     negative rho (up, down):  3.401E-04 0.000E+00

     total cpu time spent up to now is      152.5 secs

     total energy              =   -2246.19741109 Ry
     estimated scf accuracy    <       0.02535705 Ry

     iteration #  2     ecut=    80.00 Ry     beta= 0.70
     Davidson diagonalization with overlap
     ethr =  8.13E-06,  avg # of iterations =  6.0

     negative rho (up, down):  2.657E-04 0.000E+00

     total cpu time spent up to now is      170.8 secs

     total energy              =   -2246.19886831 Ry
     estimated scf accuracy    <       0.04407003 Ry

     iteration #  3     ecut=    80.00 Ry     beta= 0.70
     Davidson diagonalization with overlap
     ethr =  8.13E-06,  avg # of iterations =  5.0

     negative rho (up, down):  3.298E-04 0.000E+00

     total cpu time spent up to now is      183.8 secs

     total energy              =   -2246.20242033 Ry
     estimated scf accuracy    <       0.00131861 Ry

     iteration #  4     ecut=    80.00 Ry     beta= 0.70
     Davidson diagonalization with overlap
     ethr =  4.23E-07,  avg # of iterations =  5.0

     negative rho (up, down):  3.779E-04 0.000E+00

     total cpu time spent up to now is      196.1 secs

     total energy              =   -2246.20252559 Ry
     estimated scf accuracy    <       0.00009811 Ry

     iteration #  5     ecut=    80.00 Ry     beta= 0.70
     Davidson diagonalization with overlap
     ethr =  3.14E-08,  avg # of iterations =  5.0

     negative rho (up, down):  3.954E-04 0.000E+00

     total cpu time spent up to now is      211.0 secs

     total energy              =   -2246.20253838 Ry
     estimated scf accuracy    <       0.00002341 Ry

     iteration #  6     ecut=    80.00 Ry     beta= 0.70
     Davidson diagonalization with overlap
     ethr =  7.50E-09,  avg # of iterations =  5.0

     negative rho (up, down):  3.942E-04 0.000E+00

     total cpu time spent up to now is      225.4 secs

     total energy              =   -2246.20254172 Ry
     estimated scf accuracy    <       0.00001140 Ry

     iteration #  7     ecut=    80.00 Ry     beta= 0.70
     Davidson diagonalization with overlap
     ethr =  3.65E-09,  avg # of iterations =  5.0

     negative rho (up, down):  3.714E-04 0.000E+00

     total cpu time spent up to now is      238.6 secs

     total energy              =   -2246.20254195 Ry
     estimated scf accuracy    <       0.00000357 Ry

     iteration #  8     ecut=    80.00 Ry     beta= 0.70
     Davidson diagonalization with overlap
     ethr =  1.14E-09,  avg # of iterations =  5.0

     negative rho (up, down):  1.956E-04 0.000E+00

     total cpu time spent up to now is      242.1 secs

     End of self-consistent calculation

          k = 0.0000 0.0000 0.0000 (105382 PWs)   bands (ev):

   -63.0230 -62.9840 -62.9704 -62.9664 -62.9555 -62.9518 -62.9372 -62.9211
   -62.9041 -62.8826 -62.8704 -62.8433 -37.3733 -37.3114 -37.2663 -37.2534
   -37.2383 -37.2287 -37.2086 -37.1928 -37.1855 -37.1714 -37.1637 -37.1551
   -37.1499 -37.1367 -37.1329 -37.1195 -37.1097 -37.1062 -37.0973 -37.0872
   -37.0853 -37.0724 -37.0625 -37.0549 -37.0458 -37.0427 -37.0301 -37.0254
   -37.0049 -36.9903 -36.9780 -36.9510 -36.9258 -36.9001 -36.8759 -36.8729
   -19.7211 -16.0220 -15.2651 -15.2387 -15.0907 -15.0279 -14.8372 -14.7212
   -14.5775 -14.5477 -14.5171 -14.5059 -14.4648 -14.4248 -14.3590 -14.2541
   -14.2249 -14.1989 -14.1466 -14.0665 -13.9848 -13.9565 -13.9355 -13.9095
    -7.8778  -7.7083  -7.5688  -7.4693  -7.3938  -7.3358  -7.3003  -7.2553
    -7.0383  -6.9727  -6.9273  -6.8772  -6.8109  -6.7926  -6.6361  -6.6156
    -6.5793  -6.5120  -6.3930  -6.3702  -6.1270  -6.0853  -6.0464  -5.9424
    -5.9236  -5.8578  -5.8240  -5.7843  -5.7761  -5.7373  -5.6725  -5.6275
    -5.6191  -5.5441  -5.4520  -5.3351  -5.2595  -5.2232  -5.1904  -5.1099
    -5.0607  -5.0105  -4.9620  -4.8381  -4.7861  -4.6436  -4.5911  -4.4344
    -4.3761  -4.3387  -4.2674  -4.2148  -4.0812  -3.9793  -3.9136  -3.8737
    -3.8504  -3.8003  -3.7037  -3.6658  -3.6349  -3.6113  -3.5870  -3.5334
    -3.4821  -3.4748  -3.3673  -3.3092  -3.1180  -3.0743  -2.9806  -2.9327
    -2.8959  -2.8432  -2.8166  -2.7835  -2.7434  -2.7026  -2.3741  -2.2305
    -2.1356  -2.0801  -1.8541  -1.6291  -1.3453  -0.9088  -0.7193  -0.2827
    -0.2176  -0.1895  -0.1224  -0.0119   0.0178   0.0675   0.1383   0.1617
     0.2221   0.3002   0.3174   0.3772   0.4281   0.4500   0.4694   0.5043
     0.5679   0.6118   0.6338   0.7076   0.7248   0.7459   0.8258   0.8636
     0.9167   0.9665   1.0709

     the Fermi energy is    -1.4871 ev

!    total energy              =   -2246.20254237 Ry
     estimated scf accuracy    <       0.00000033 Ry
     smearing contrib. (-TS)   =      -0.00380585 Ry
     internal energy E=F+TS    =   -2246.19873652 Ry

     The total energy is F=E-TS. E is the sum of the following terms:
     one-electron contribution =  -18432.20170131 Ry
     hartree contribution      =    9203.99156854 Ry
     xc contribution           =    -391.89361779 Ry
     ewald contribution        =    7383.77936042 Ry
     one-center paw contrib.   =      -9.87434638 Ry

     convergence has been achieved in   8 iterations

     negative rho (up, down):  1.956E-04 0.000E+00

     Forces acting on atoms (cartesian axes, Ry/au):

     atom    1 type  1   force =     0.00409460   -0.01111366   -0.00129725
     atom    2 type  2   force =    -0.00881626    0.01135732   -0.00160787
     atom    3 type  2   force =    -0.01204120    0.00876528   -0.01221105
     atom    4 type  1   force =     0.00524450    0.00247097    0.00115850
     atom    5 type  2   force =    -0.00022173   -0.00517546   -0.00690861
     atom    6 type  2   force =     0.00042536    0.00741352    0.00209170
     atom    7 type  1   force =     0.00217896   -0.00868630   -0.00131112
     atom    8 type  2   force =     0.00160818   -0.00393409    0.01303163
     atom    9 type  2   force =     0.01107613    0.00513752    0.00658235
     atom   10 type  1   force =    -0.01140464    0.00407701   -0.01431370
     atom   11 type  2   force =     0.01052406   -0.00359092   -0.01040691
     atom   12 type  2   force =    -0.00507797   -0.00093453    0.00078202
     atom   13 type  1   force =     0.00633926    0.00117500   -0.00558013
     atom   14 type  2   force =     0.00836299    0.00220119    0.01018947
     atom   15 type  2   force =    -0.00708048    0.00257755   -0.00944955
     atom   16 type  1   force =     0.00174245    0.00819747    0.00460030
     atom   17 type  2   force =     0.00435573   -0.00124306    0.00197079
     atom   18 type  2   force =    -0.00124295   -0.00261728    0.01068864
     atom   19 type  1   force =    -0.01460656   -0.00750710    0.00790702
     atom   20 type  2   force =     0.00050286   -0.00249324   -0.00149999
     atom   21 type  1   force =    -0.01495314    0.01710210    0.01397736
     atom   22 type  2   force =    -0.04386993    0.02205388    0.06061063
     atom   23 type  2   force =     0.00049201    0.00158289    0.00796296
     atom   24 type  1   force =    -0.00576999    0.00628034   -0.01309388
     atom   25 type  2   force =     0.00355551    0.03369360   -0.01642023
     atom   26 type  2   force =    -0.01033579    0.00072554   -0.01161785
     atom   27 type  1   force =    -0.00093456    0.00102683    0.00617603
     atom   28 type  2   force =     0.00028796   -0.00139773   -0.00440399
     atom   29 type  2   force =     0.00234741    0.00208748   -0.00411264
     atom   30 type  1   force =    -0.00137212    0.00354554   -0.00006762
     atom   31 type  2   force =    -0.00290507   -0.00309063    0.01522163
     atom   32 type  2   force =    -0.00583493    0.00407773    0.00271897
     atom   33 type  1   force =    -0.01075736    0.00570477   -0.02390658
     atom   34 type  2   force =    -0.02308098   -0.03253424   -0.03390504
     atom   35 type  2   force =    -0.01034354    0.00858372    0.00192545
     atom   36 type  3   force =     0.12751123   -0.07551901    0.00451855
     The non-local contrib.  to forces
     atom    1 type  1   force =     0.00290043    0.02812511   -0.01173247
     atom    2 type  2   force =    -0.00869629    0.00244135   -0.27095373
     atom    3 type  2   force =    -0.01365580   -0.00481342    0.26115379
     atom    4 type  1   force =     0.00143917    0.00545214    0.00672177
     atom    5 type  2   force =     0.00720390   -0.03083812   -0.25350490
     atom    6 type  2   force =    -0.00346247    0.00885309    0.26443583
     atom    7 type  1   force =    -0.00941383   -0.00252419   -0.01901541
     atom    8 type  2   force =     0.00574647   -0.00201217   -0.26139049
     atom    9 type  2   force =     0.00539745   -0.00633632    0.27665956
     atom   10 type  1   force =     0.01898319   -0.00492015    0.00645136
     atom   11 type  2   force =     0.02046826   -0.00052209   -0.26411065
     atom   12 type  2   force =    -0.01807597   -0.01698108    0.26274282
     atom   13 type  1   force =    -0.01010117    0.02819706   -0.00426090
     atom   14 type  2   force =     0.00671827   -0.00808555   -0.26929691
     atom   15 type  2   force =    -0.00666886   -0.01497489    0.26149407
     atom   16 type  1   force =    -0.00191314    0.02766341   -0.03041873
     atom   17 type  2   force =     0.00391356   -0.02914314   -0.25268959
     atom   18 type  2   force =    -0.00392341    0.00013829    0.27172267
     atom   19 type  1   force =     0.02344691   -0.00095857   -0.02751240
     atom   20 type  2   force =    -0.00506438   -0.02049494    0.26679411
     atom   21 type  1   force =     0.00599582    0.02473337    0.00698173
     atom   22 type  2   force =    -0.35098068    0.21085852    0.04096132
     atom   23 type  2   force =     0.00544143   -0.01899491    0.26472160
     atom   24 type  1   force =     0.01286415    0.00703485   -0.00419167
     atom   25 type  2   force =     0.00687652    0.00457503   -0.26509553
     atom   26 type  2   force =    -0.00123061   -0.01459038    0.26208014
     atom   27 type  1   force =    -0.00611093    0.00277511    0.00607949
     atom   28 type  2   force =    -0.00257790   -0.02150345   -0.27711846
     atom   29 type  2   force =     0.00756551    0.00521319    0.26232140
     atom   30 type  1   force =    -0.00685825    0.02307151    0.00596716
     atom   31 type  2   force =    -0.00829326    0.00623736   -0.25808582
     atom   32 type  2   force =     0.00900772   -0.01111614    0.27151390
     atom   33 type  1   force =    -0.01783938    0.01257625    0.00982246
     atom   34 type  2   force =     0.02500585   -0.01108743   -0.25997604
     atom   35 type  2   force =    -0.00065169   -0.00938009    0.26656753
     atom   36 type  3   force =     0.78911895   -0.45869955   -0.69491678
     The ionic contribution  to forces
     atom    1 type  1   force =     0.22625971    1.08807134    4.57937969
     atom    2 type  2   force =    -1.02764617    0.80166456   38.96740399
     atom    3 type  2   force =    -0.27422916    0.20352325  -36.84013572
     atom    4 type  1   force =    -0.17138946    0.44705001   -0.22576133
     atom    5 type  2   force =    -0.92309148    1.54561577   38.47792857
     atom    6 type  2   force =     0.29859590   -0.47672764  -38.41148369
     atom    7 type  1   force =    -2.70644275   -3.06729813    1.25127246
     atom    8 type  2   force =    -1.23730835   -0.35568469   37.21238037
     atom    9 type  2   force =     0.23934886   -0.19779959  -38.52665888
     atom   10 type  1   force =    -2.09991685   -0.12267754    3.30959349
     atom   11 type  2   force =    -0.39302732   -1.79512681   38.64302257
     atom   12 type  2   force =     0.28471504    0.55185780  -38.43785420
     atom   13 type  1   force =     1.24447682    2.28858338    0.76053437
     atom   14 type  2   force =     0.80636860    0.76846387   38.08379227
     atom   15 type  2   force =     0.32672555    0.14887519  -37.54711795
     atom   16 type  1   force =     0.24862571    3.70155249   -0.32568773
     atom   17 type  2   force =     0.99376704    1.69865897   37.67794928
     atom   18 type  2   force =    -0.04857375   -0.49675988  -39.03966692
     atom   19 type  1   force =     3.72319514   -3.49166772   -1.58159653
     atom   20 type  2   force =     0.27367611   -0.27051829  -39.04380845
     atom   21 type  1   force =     1.36215358   -0.24052768   -0.90307344
     atom   22 type  2   force =     4.26778873   -3.85570775   35.04336150
     atom   23 type  2   force =     0.23570650    0.44618796  -39.18274378
     atom   24 type  1   force =    -1.32363276    2.19525437    3.74501424
     atom   25 type  2   force =     0.15393515    3.02260144   37.45530793
     atom   26 type  2   force =    -0.23909174    0.42810625  -38.32445488
     atom   27 type  1   force =    -0.01050799    0.33069897   -3.26958650
     atom   28 type  2   force =    -0.16012280    1.16411195   37.97499347
     atom   29 type  2   force =    -0.33423334   -0.25830408  -37.83857751
     atom   30 type  1   force =    -1.16394418   -2.35277151   -2.23636763
     atom   31 type  2   force =     1.10842299   -1.18184506   36.85639900
     atom   32 type  2   force =    -0.46886659   -0.27666866  -39.32905692
     atom   33 type  1   force =     0.35270742   -0.29850981   -4.76925403
     atom   34 type  2   force =    -2.73919226   -2.22632672   37.24129508
     atom   35 type  2   force =    -0.55020163    0.31410630  -38.78183477
     atom   36 type  3   force =    -0.27505028   -0.18006228   47.33509260
     The local contribution  to forces
     atom    1 type  1   force =    -0.22526654   -1.12733269   -4.56841943
     atom    2 type  2   force =     1.02716825   -0.79257166  -38.71851199
     atom    3 type  2   force =     0.27511635   -0.19012267   36.58743594
     atom    4 type  1   force =     0.17516356   -0.45010880    0.22074185
     atom    5 type  2   force =     0.91627550   -1.52168400  -38.25143931
     atom    6 type  2   force =    -0.29508847    0.47626820   38.17012297
     atom    7 type  1   force =     2.71783580    3.06141184   -1.23293945
     atom    8 type  2   force =     1.23334760    0.35333749  -36.95836687
     atom    9 type  2   force =    -0.23363001    0.20892969   38.27771868
     atom   10 type  1   force =     2.06941273    0.13170751   -3.32964418
     atom   11 type  2   force =     0.38388382    1.79230122  -38.40980661
     atom   12 type  2   force =    -0.27311557   -0.53715019   38.19687612
     atom   13 type  1   force =    -1.22777511   -2.31576972   -0.76124367
     atom   14 type  2   force =    -0.80435000   -0.75833135  -37.82499884
     atom   15 type  2   force =    -0.32761137   -0.13222662   37.29694774
     atom   16 type  1   force =    -0.24499960   -3.72114029    0.36123690
     atom   17 type  2   force =    -0.99320999   -1.67229083  -37.44336576
     atom   18 type  2   force =     0.05120682    0.49460180   38.79969769
     atom   19 type  1   force =    -3.76122194    3.48536073    1.61772800
     atom   20 type  2   force =    -0.26852916    0.28780366   38.79687247
     atom   21 type  1   force =    -1.38321169    0.23283751    0.91072501
     atom   22 type  2   force =    -3.97950195    3.67840739  -35.02755023
     atom   23 type  2   force =    -0.24021168   -0.42700759   38.94698380
     atom   24 type  1   force =     1.30489902   -2.19607880   -3.75329874
     atom   25 type  2   force =    -0.15735186   -2.99213429  -37.22779511
     atom   26 type  2   force =     0.23022782   -0.41372074   38.07176455
     atom   27 type  1   force =     0.01573012   -0.33229326    3.27023722
     atom   28 type  2   force =     0.16280095   -1.14559211  -37.72308099
     atom   29 type  2   force =     0.32961296    0.25593366   37.59278867
     atom   30 type  1   force =     1.16956583    2.33321164    2.23101775
     atom   31 type  2   force =    -1.10332073    1.17280195  -36.60354872
     atom   32 type  2   force =     0.45484724    0.29132001   39.08134107
     atom   33 type  1   force =    -0.34536398    0.29151384    4.73641661
     atom   34 type  2   force =     2.69107728    2.20457731  -37.03596046
     atom   35 type  2   force =     0.54078066   -0.29694771   38.53833176
     atom   36 type  3   force =    -0.37727605    0.55793301  -46.64233240
     The core correction contribution to forces
     atom    1 type  1   force =     0.00000000    0.00000000    0.00000000
     atom    2 type  2   force =     0.00034612   -0.00024215    0.02077467
     atom    3 type  2   force =     0.00067034    0.00016874   -0.02052007
     atom    4 type  1   force =     0.00000000    0.00000000    0.00000000
     atom    5 type  2   force =    -0.00062911    0.00167501    0.02038729
     atom    6 type  2   force =     0.00036300   -0.00104256   -0.02085883
     atom    7 type  1   force =     0.00000000    0.00000000    0.00000000
     atom    8 type  2   force =    -0.00016505    0.00046479    0.02074189
     atom    9 type  2   force =    -0.00004466    0.00033883   -0.02107855
     atom   10 type  1   force =     0.00000000    0.00000000    0.00000000
     atom   11 type  2   force =    -0.00085490   -0.00021435    0.02081100
     atom   12 type  2   force =     0.00133079    0.00136279   -0.02085477
     atom   13 type  1   force =     0.00000000    0.00000000    0.00000000
     atom   14 type  2   force =    -0.00041466    0.00009259    0.02101103
     atom   15 type  2   force =     0.00048259    0.00089087   -0.02060976
     atom   16 type  1   force =     0.00000000    0.00000000    0.00000000
     atom   17 type  2   force =    -0.00009837    0.00150811    0.02040467
     atom   18 type  2   force =     0.00007939   -0.00061007   -0.02098371
     atom   19 type  1   force =     0.00000000    0.00000000    0.00000000
     atom   20 type  2   force =     0.00037303    0.00079731   -0.02127786
     atom   21 type  1   force =     0.00000000    0.00000000    0.00000000
     atom   22 type  2   force =     0.01872879   -0.01144812    0.00419273
     atom   23 type  2   force =    -0.00039800    0.00138607   -0.02083094
     atom   24 type  1   force =     0.00000000    0.00000000    0.00000000
     atom   25 type  2   force =     0.00015158   -0.00150140    0.02156098
     atom   26 type  2   force =    -0.00019075    0.00088247   -0.02087318
     atom   27 type  1   force =     0.00000000    0.00000000    0.00000000
     atom   28 type  2   force =     0.00019419    0.00158599    0.02112436
     atom   29 type  2   force =    -0.00061320   -0.00074093   -0.02053945
     atom   30 type  1   force =     0.00000000    0.00000000    0.00000000
     atom   31 type  2   force =     0.00034858   -0.00019366    0.02079258
     atom   32 type  2   force =    -0.00077730    0.00054964   -0.02098410
     atom   33 type  1   force =     0.00000000    0.00000000    0.00000000
     atom   34 type  2   force =     0.00015102    0.00036958    0.02115164
     atom   35 type  2   force =    -0.00024339    0.00082592   -0.02103429
     atom   36 type  3   force =    -0.00926880    0.00530095    0.00712738
     The Hubbard contrib.    to forces
     atom    1 type  1   force =     0.00000000    0.00000000    0.00000000
     atom    2 type  2   force =     0.00000000    0.00000000    0.00000000
     atom    3 type  2   force =     0.00000000    0.00000000    0.00000000
     atom    4 type  1   force =     0.00000000    0.00000000    0.00000000
     atom    5 type  2   force =     0.00000000    0.00000000    0.00000000
     atom    6 type  2   force =     0.00000000    0.00000000    0.00000000
     atom    7 type  1   force =     0.00000000    0.00000000    0.00000000
     atom    8 type  2   force =     0.00000000    0.00000000    0.00000000
     atom    9 type  2   force =     0.00000000    0.00000000    0.00000000
     atom   10 type  1   force =     0.00000000    0.00000000    0.00000000
     atom   11 type  2   force =     0.00000000    0.00000000    0.00000000
     atom   12 type  2   force =     0.00000000    0.00000000    0.00000000
     atom   13 type  1   force =     0.00000000    0.00000000    0.00000000
     atom   14 type  2   force =     0.00000000    0.00000000    0.00000000
     atom   15 type  2   force =     0.00000000    0.00000000    0.00000000
     atom   16 type  1   force =     0.00000000    0.00000000    0.00000000
     atom   17 type  2   force =     0.00000000    0.00000000    0.00000000
     atom   18 type  2   force =     0.00000000    0.00000000    0.00000000
     atom   19 type  1   force =     0.00000000    0.00000000    0.00000000
     atom   20 type  2   force =     0.00000000    0.00000000    0.00000000
     atom   21 type  1   force =     0.00000000    0.00000000    0.00000000
     atom   22 type  2   force =     0.00000000    0.00000000    0.00000000
     atom   23 type  2   force =     0.00000000    0.00000000    0.00000000
     atom   24 type  1   force =     0.00000000    0.00000000    0.00000000
     atom   25 type  2   force =     0.00000000    0.00000000    0.00000000
     atom   26 type  2   force =     0.00000000    0.00000000    0.00000000
     atom   27 type  1   force =     0.00000000    0.00000000    0.00000000
     atom   28 type  2   force =     0.00000000    0.00000000    0.00000000
     atom   29 type  2   force =     0.00000000    0.00000000    0.00000000
     atom   30 type  1   force =     0.00000000    0.00000000    0.00000000
     atom   31 type  2   force =     0.00000000    0.00000000    0.00000000
     atom   32 type  2   force =     0.00000000    0.00000000    0.00000000
     atom   33 type  1   force =     0.00000000    0.00000000    0.00000000
     atom   34 type  2   force =     0.00000000    0.00000000    0.00000000
     atom   35 type  2   force =     0.00000000    0.00000000    0.00000000
     atom   36 type  3   force =     0.00000000    0.00000000    0.00000000
     The SCF correction term to forces
     atom    1 type  1   force =     0.00020140    0.00002161   -0.00050263
     atom    2 type  2   force =     0.00001224    0.00006425   -0.00029840
     atom    3 type  2   force =     0.00005747    0.00000840   -0.00012258
     atom    4 type  1   force =     0.00003164    0.00007665   -0.00052138
     atom    5 type  2   force =     0.00001987    0.00005491   -0.00025785
     atom    6 type  2   force =     0.00001780    0.00006145   -0.00010218
     atom    7 type  1   force =     0.00020015   -0.00027679   -0.00060631
     atom    8 type  2   force =    -0.00001209   -0.00004048   -0.00031085
     atom    9 type  2   force =     0.00000490    0.00000394   -0.00003605
     atom   10 type  1   force =     0.00011669   -0.00003379   -0.00069196
     atom   11 type  2   force =     0.00005461   -0.00002986   -0.00030082
     atom   12 type  2   force =     0.00006815   -0.00002482   -0.00010554
     atom   13 type  1   force =    -0.00026087    0.00016331   -0.00058752
     atom   14 type  2   force =     0.00004120    0.00006066   -0.00029567
     atom   15 type  2   force =    -0.00000799    0.00001203   -0.00014125
     atom   16 type  1   force =     0.00002988    0.00012090   -0.00050774
     atom   17 type  2   force =    -0.00001611    0.00002287   -0.00030540
     atom   18 type  2   force =    -0.00003161    0.00001161   -0.00005868
     atom   19 type  1   force =    -0.00002627   -0.00024252   -0.00068965
     atom   20 type  2   force =     0.00004767   -0.00008195   -0.00005785
     atom   21 type  1   force =     0.00010955    0.00005794   -0.00063352
     atom   22 type  2   force =     0.00009558   -0.00005713   -0.00033227
     atom   23 type  2   force =    -0.00004584    0.00001040   -0.00014531
     atom   24 type  1   force =     0.00010001    0.00006894   -0.00059530
     atom   25 type  2   force =    -0.00005548    0.00015186   -0.00037610
     atom   26 type  2   force =    -0.00005011    0.00004698   -0.00011208
     atom   27 type  1   force =    -0.00004535   -0.00015496   -0.00053177
     atom   28 type  2   force =    -0.00000607   -0.00000109   -0.00029996
     atom   29 type  2   force =     0.00001589   -0.00001533   -0.00008334
     atom   30 type  1   force =    -0.00013511    0.00003294   -0.00066249
     atom   31 type  2   force =    -0.00006224   -0.00009218   -0.00031300
     atom   32 type  2   force =    -0.00004560   -0.00000809   -0.00007258
     atom   33 type  1   force =    -0.00026102    0.00012352   -0.00086920
     atom   34 type  2   force =    -0.00012246   -0.00006794   -0.00039285
     atom   35 type  2   force =    -0.00002710   -0.00002166   -0.00008237
     atom   36 type  3   force =    -0.00001219    0.00000790   -0.00042985

     Total force =     0.194282     Total SCF correction =     0.002595
     Energy error            =      3.8E-02 Ry
     Gradient error          =      1.3E-01 Ry/Bohr

     number of scf cycles    =   2
     number of bfgs steps    =   1

     energy             old  =   -2246.1647527917 Ry
     energy             new  =   -2246.2025423724 Ry

     CASE: energy            _new < energy            _old


     WARNING: bfgs curvature condition failed, Theta= 0.875
     new trust radius        =       0.1381569501 bohr
     new conv_thr            =       0.0000001275 Ry


ATOMIC_POSITIONS (angstrom)
Mo            6.5889407524        1.7663244089        2.8234617738
S             8.1605733257        0.8271539670        4.4373799537
S             8.1772859829        0.8215966007        1.2689562441
Mo            8.1000284315        4.4993892853        2.7170073853
S             6.4984184978        3.7167216207        4.3393292258
S             6.5540239265        3.5218975743        1.1215618837
Mo            6.4943024852        7.2034945465        2.6663631096
S             8.0822560698        6.3398205371        4.2618015564
S             8.0943744566        6.3110913301        1.0947995613
Mo            8.1446047720        9.9075055153        2.8131462305
S             6.5092409633        8.9368544873        4.3766008947
S             6.6165207795        9.0497526205        1.1439938937
Mo            3.4232832873        1.7529285893        2.7662679675
S             4.9874731437        0.8176614333        4.3664085044
S             5.0474659714        0.8498636282        1.2150997961
Mo            4.9828867444        4.5261144881        2.6391195037
S             3.4328148753        3.6695651598        4.2821228864
S             3.4350113688        3.5419899821        1.0723553461
Mo            3.4340988554        7.2028571383        2.6310506794
S             4.9856897102        6.3230539794        1.0368538823
Mo            4.9961964433        9.9233465013        2.7488253272
S             3.4457911161        8.9576677830        4.3903940040
S             3.4095384552        9.0678645215        1.1086420366
Mo            0.2952575176        1.7556796114        2.8260313669
S             1.8572127566        0.8470461154        4.3805805334
S             1.8474191281        0.8519288602        1.2029608497
Mo            1.8611564866        4.4955473821        2.6655121150
S             0.2732805802        3.6524227954        4.3338128809
S             0.2337210093        3.5262174745        1.1697125726
Mo            0.2706107808        7.2270235923        2.6925956531
S             1.9012992309        6.3084888918        4.2447045099
S             1.8543214333        6.3166688445        1.0498982404
Mo            1.8298039638        9.9482801736        2.7248829542
S             0.2653698924        9.0412808085        4.3845515482
S             0.2671467565        9.0533003968        1.1640434698
O             2.2164292839        9.6371235438        5.4939331966



     Writing config-only to output data dir ./MoS2-V-O.save/
     NEW-OLD atomic charge density approx. for the potential

     negative rho (up, down):  1.994E-04 0.000E+00

     total cpu time spent up to now is      249.6 secs

     Self-consistent Calculation

     iteration #  1     ecut=    80.00 Ry     beta= 0.70
     Davidson diagonalization with overlap
     ethr =  1.00E-06,  avg # of iterations = 14.0

     negative rho (up, down):  2.267E-04 0.000E+00

     total cpu time spent up to now is      264.7 secs

     total energy              =   -2246.23408292 Ry
     estimated scf accuracy    <       0.01948425 Ry

     iteration #  2     ecut=    80.00 Ry     beta= 0.70
     Davidson diagonalization with overlap
     ethr =  6.24E-06,  avg # of iterations =  6.0

     negative rho (up, down):  2.074E-04 0.000E+00

     total cpu time spent up to now is      281.2 secs

     total energy              =   -2246.23642423 Ry
     estimated scf accuracy    <       0.02428301 Ry

     iteration #  3     ecut=    80.00 Ry     beta= 0.70
     Davidson diagonalization with overlap
     ethr =  6.24E-06,  avg # of iterations =  4.0

     negative rho (up, down):  2.218E-04 0.000E+00

     total cpu time spent up to now is      292.8 secs

     total energy              =   -2246.23851240 Ry
     estimated scf accuracy    <       0.00050310 Ry

     iteration #  4     ecut=    80.00 Ry     beta= 0.70
     Davidson diagonalization with overlap
     ethr =  1.61E-07,  avg # of iterations =  7.0

     negative rho (up, down):  2.470E-04 0.000E+00

     total cpu time spent up to now is      303.1 secs

     total energy              =   -2246.23860854 Ry
     estimated scf accuracy    <       0.00021915 Ry

     iteration #  5     ecut=    80.00 Ry     beta= 0.70
     Davidson diagonalization with overlap
     ethr =  7.02E-08,  avg # of iterations =  3.0

     negative rho (up, down):  2.668E-04 0.000E+00

     total cpu time spent up to now is      314.5 secs

     total energy              =   -2246.23862075 Ry
     estimated scf accuracy    <       0.00002380 Ry

     iteration #  6     ecut=    80.00 Ry     beta= 0.70
     Davidson diagonalization with overlap
     ethr =  7.63E-09,  avg # of iterations =  6.0

     negative rho (up, down):  2.772E-04 0.000E+00

     total cpu time spent up to now is      329.4 secs

     total energy              =   -2246.23862522 Ry
     estimated scf accuracy    <       0.00000216 Ry

     iteration #  7     ecut=    80.00 Ry     beta= 0.70
     Davidson diagonalization with overlap
     ethr =  6.94E-10,  avg # of iterations =  5.0

     negative rho (up, down):  2.768E-04 0.000E+00

     total cpu time spent up to now is      342.4 secs

     total energy              =   -2246.23862588 Ry
     estimated scf accuracy    <       0.00000074 Ry

     iteration #  8     ecut=    80.00 Ry     beta= 0.70
     Davidson diagonalization with overlap
     ethr =  2.37E-10,  avg # of iterations =  2.0

     negative rho (up, down):  2.703E-04 0.000E+00

     total cpu time spent up to now is      354.2 secs

     total energy              =   -2246.23862598 Ry
     estimated scf accuracy    <       0.00000020 Ry

     iteration #  9     ecut=    80.00 Ry     beta= 0.70
     Davidson diagonalization with overlap
     ethr =  6.53E-11,  avg # of iterations =  6.0

     negative rho (up, down):  1.992E-04 0.000E+00

     total cpu time spent up to now is      357.9 secs

     End of self-consistent calculation

          k = 0.0000 0.0000 0.0000 (105382 PWs)   bands (ev):

   -63.0325 -62.9948 -62.9811 -62.9786 -62.9685 -62.9477 -62.9325 -62.9178
   -62.9130 -62.8901 -62.8809 -62.8569 -37.3797 -37.3175 -37.2693 -37.2584
   -37.2446 -37.2345 -37.2117 -37.1990 -37.1901 -37.1807 -37.1741 -37.1630
   -37.1540 -37.1456 -37.1289 -37.1221 -37.1160 -37.1133 -37.1044 -37.1004
   -37.0920 -37.0710 -37.0679 -37.0644 -37.0534 -37.0495 -37.0400 -37.0341
   -37.0092 -36.9964 -36.9800 -36.9587 -36.9379 -36.9129 -36.8865 -36.8841
   -20.0270 -16.0312 -15.2660 -15.2438 -15.0488 -15.0349 -14.8392 -14.6516
   -14.5820 -14.5492 -14.5242 -14.5148 -14.4734 -14.4306 -14.3590 -14.2566
   -14.2310 -14.2029 -14.1505 -14.0279 -13.9959 -13.9662 -13.9220 -13.8818
    -7.8807  -7.7027  -7.5638  -7.4707  -7.4061  -7.3447  -7.3077  -7.2713
    -7.0736  -6.9793  -6.9373  -6.8890  -6.8174  -6.8030  -6.6414  -6.6247
    -6.5913  -6.5097  -6.4065  -6.3688  -6.1234  -6.0882  -6.0489  -5.9320
    -5.9184  -5.8608  -5.8311  -5.7931  -5.7775  -5.7539  -5.6945  -5.6319
    -5.6182  -5.5404  -5.4386  -5.3307  -5.2663  -5.2158  -5.1724  -5.1156
    -5.0743  -5.0224  -4.9771  -4.8562  -4.7887  -4.6421  -4.5347  -4.4483
    -4.3856  -4.3494  -4.2782  -4.2273  -4.0887  -3.9997  -3.9133  -3.8684
    -3.8477  -3.7966  -3.7252  -3.6687  -3.6453  -3.6110  -3.5823  -3.5328
    -3.4825  -3.4777  -3.3760  -3.3226  -3.1194  -3.0586  -2.9837  -2.9552
    -2.9095  -2.8549  -2.8208  -2.7902  -2.7492  -2.7016  -2.3836  -2.2798
    -2.1354  -2.1134  -1.9050  -1.6392  -1.2603  -0.8980  -0.6953  -0.2865
    -0.2224  -0.1976  -0.1149  -0.0046   0.0126   0.0527   0.1278   0.1587
     0.2266   0.2970   0.3151   0.3776   0.4256   0.4456   0.4768   0.5154
     0.5608   0.6052   0.6399   0.6941   0.7156   0.7483   0.8210   0.8809
     0.9120   0.9586   1.0945

     the Fermi energy is    -1.4497 ev

!    total energy              =   -2246.23862611 Ry
     estimated scf accuracy    <       0.00000003 Ry
     smearing contrib. (-TS)   =      -0.00162240 Ry
     internal energy E=F+TS    =   -2246.23700371 Ry

     The total energy is F=E-TS. E is the sum of the following terms:
     one-electron contribution =  -18428.76737796 Ry
     hartree contribution      =    9202.21942705 Ry
     xc contribution           =    -391.91142081 Ry
     ewald contribution        =    7382.09395405 Ry
     one-center paw contrib.   =      -9.87158604 Ry

     convergence has been achieved in   9 iterations

     negative rho (up, down):  1.992E-04 0.000E+00

     Forces acting on atoms (cartesian axes, Ry/au):

     atom    1 type  1   force =    -0.00565428   -0.00189960   -0.00304795
     atom    2 type  2   force =    -0.00264668    0.00631888   -0.00500354
     atom    3 type  2   force =    -0.00888796    0.00739631   -0.01516343
     atom    4 type  1   force =     0.00567122    0.00092341    0.00267514
     atom    5 type  2   force =     0.00109795   -0.00498454   -0.00644434
     atom    6 type  2   force =     0.00021080    0.00544533    0.00376193
     atom    7 type  1   force =    -0.00035072   -0.00296326    0.00190711
     atom    8 type  2   force =     0.00243038   -0.00426418    0.00784095
     atom    9 type  2   force =     0.00905445    0.00403940    0.00295499
     atom   10 type  1   force =    -0.00630826    0.00517357   -0.00174817
     atom   11 type  2   force =     0.00592988   -0.00151375   -0.01380336
     atom   12 type  2   force =    -0.00913812   -0.00272173   -0.00140989
     atom   13 type  1   force =     0.00946046   -0.00246898   -0.00239623
     atom   14 type  2   force =     0.00482206    0.00382687    0.00627656
     atom   15 type  2   force =    -0.00423547    0.00126789   -0.00756334
     atom   16 type  1   force =     0.00011620    0.00415227    0.00321499
     atom   17 type  2   force =     0.00424540   -0.00036335    0.00182594
     atom   18 type  2   force =     0.00026089    0.00070942    0.00801091
     atom   19 type  1   force =    -0.00786834   -0.00151389    0.01447720
     atom   20 type  2   force =    -0.00156356   -0.00109435   -0.00204142
     atom   21 type  1   force =    -0.01383111    0.01119662    0.02072084
     atom   22 type  2   force =    -0.05908689    0.02853693    0.05237231
     atom   23 type  2   force =     0.00000658    0.00026370    0.00438117
     atom   24 type  1   force =    -0.01079386    0.00441176   -0.00582210
     atom   25 type  2   force =     0.00106492    0.01731123   -0.01431788
     atom   26 type  2   force =    -0.00747871    0.00437955   -0.01645425
     atom   27 type  1   force =    -0.00212106    0.00186579    0.00683538
     atom   28 type  2   force =    -0.00043069   -0.00107137   -0.00471665
     atom   29 type  2   force =     0.00231770    0.00543638   -0.00590235
     atom   30 type  1   force =    -0.00173886   -0.00309101    0.00728544
     atom   31 type  2   force =    -0.00489063   -0.00220245    0.00998927
     atom   32 type  2   force =    -0.00415139    0.00202184    0.00076014
     atom   33 type  1   force =    -0.00399059    0.00304050   -0.00484780
     atom   34 type  2   force =    -0.01660426   -0.01909917   -0.03421454
     atom   35 type  2   force =    -0.01188085    0.00708315   -0.00893973
     atom   36 type  3   force =     0.13696340   -0.07554916   -0.00145334
     The non-local contrib.  to forces
     atom    1 type  1   force =     0.00434139    0.02611544   -0.01221804
     atom    2 type  2   force =    -0.00412888   -0.00109704   -0.27174797
     atom    3 type  2   force =    -0.00993506   -0.00642283    0.25842776
     atom    4 type  1   force =     0.00215918    0.00687527    0.00608067
     atom    5 type  2   force =     0.00834073   -0.03108823   -0.25425877
     atom    6 type  2   force =    -0.00351084    0.00676515    0.26585831
     atom    7 type  1   force =    -0.00605652   -0.00425899   -0.02026158
     atom    8 type  2   force =     0.00629292   -0.00197652   -0.26520248
     atom    9 type  2   force =     0.00329560   -0.00673641    0.27415850
     atom   10 type  1   force =     0.01633474   -0.00443676    0.00434048
     atom   11 type  2   force =     0.01619960   -0.00126561   -0.26612128
     atom   12 type  2   force =    -0.02125641   -0.01782127    0.26243855
     atom   13 type  1   force =    -0.00975694    0.02795138   -0.00355506
     atom   14 type  2   force =     0.00429037   -0.00658966   -0.27095611
     atom   15 type  2   force =    -0.00411085   -0.01557312    0.26212493
     atom   16 type  1   force =    -0.00184977    0.02843375   -0.03159665
     atom   17 type  2   force =     0.00446225   -0.02780730   -0.25382431
     atom   18 type  2   force =    -0.00285904    0.00207409    0.27051044
     atom   19 type  1   force =     0.02618566    0.00085130   -0.02706405
     atom   20 type  2   force =    -0.00705725   -0.01840874    0.26703191
     atom   21 type  1   force =     0.00538863    0.02189640    0.00542711
     atom   22 type  2   force =    -0.37562932    0.22563162    0.07573147
     atom   23 type  2   force =     0.00404999   -0.01876405    0.26419287
     atom   24 type  1   force =     0.01085610    0.00930170   -0.00433913
     atom   25 type  2   force =     0.00538082    0.00871934   -0.26530892
     atom   26 type  2   force =     0.00170624   -0.01104487    0.25946560
[...]
     atom   28 type  2   force =     0.00224617   -0.01242008   -0.27656689
     atom   29 type  2   force =    -0.00077383   -0.00898063    0.26898710
     atom   30 type  1   force =    -0.00066288    0.02096734    0.00354528
     atom   31 type  2   force =    -0.00260883    0.00645410   -0.27108231
     atom   32 type  2   force =     0.00828420   -0.01407884    0.26904902
     atom   33 type  1   force =     0.00817104    0.00538243    0.01864972
     atom   34 type  2   force =    -0.00315471   -0.00728891   -0.27936535
     atom   35 type  2   force =     0.00074208   -0.01377414    0.26183542
     atom   36 type  3   force =    -0.02054300    0.00290411   -2.31624465
     The ionic contribution  to forces
     atom    1 type  1   force =     0.27931060    1.22006737    1.06778558
     atom    2 type  2   force =    -0.17559598    0.41496757   38.47293475
     atom    3 type  2   force =     0.09637635    0.01881339  -38.02814621
     atom    4 type  1   force =    -0.17961271    0.16090854   -0.29848251
     atom    5 type  2   force =    -0.67011728    1.11971889   38.08822917
     atom    6 type  2   force =     0.27741646   -0.29426954  -38.47816675
     atom    7 type  1   force =    -2.13005036   -2.47126208    1.58942613
     atom    8 type  2   force =    -1.16698705   -0.18763932   38.02988257
     atom    9 type  2   force =     0.35175975   -0.06955484  -38.26311404
     atom   10 type  1   force =    -0.46894337   -0.08685059    1.81802595
     atom   11 type  2   force =     0.60979692   -1.46596186   37.79760223
     atom   12 type  2   force =     0.24704479    0.23780457  -38.63147063
     atom   13 type  1   force =     0.10987704    1.56553465    1.32725291
     atom   14 type  2   force =     0.55646444    1.03907843   37.95197713
     atom   15 type  2   force =     0.01254917    0.05301509  -38.40409746
     atom   16 type  1   force =     0.38352712    2.94422791    0.83394991
     atom   17 type  2   force =     0.83271603    1.04531244   38.12295836
     atom   18 type  2   force =    -0.23781519   -0.34367829  -38.44825524
     atom   19 type  1   force =     2.86296700   -2.77300651   -1.38676852
     atom   20 type  2   force =     0.13416765   -0.06615542  -39.34248205
     atom   21 type  1   force =     1.04487259    0.24288718   -3.14416053
     atom   22 type  2   force =     0.44029050   -1.50340582   28.37453775
     atom   23 type  2   force =    -0.19935471    0.22109454  -38.54209340
     atom   24 type  1   force =    -0.43390362    0.99084435    0.86269404
     atom   25 type  2   force =    -0.34117780    1.13720616   38.25726023
     atom   26 type  2   force =    -0.08356992    0.11400025  -38.32061142
     atom   27 type  1   force =    -0.20757834   -0.24760388   -0.16934966
     atom   28 type  2   force =    -0.13917127    0.44318066   37.95310264
     atom   29 type  2   force =    -0.04051722   -0.07680344  -38.07661068
     atom   30 type  1   force =    -0.65676042   -1.26283986    1.12018571
     atom   31 type  2   force =     0.53026634   -0.92989917   37.73395182
     atom   32 type  2   force =    -0.48889585   -0.07136800  -38.70104750
     atom   33 type  1   force =    -0.59529776    0.27716954   -1.30407590
     atom   34 type  2   force =    -1.05038822   -0.46069356   38.25614082
     atom   35 type  2   force =    -0.08709656    0.05703082  -38.22160056
     atom   36 type  3   force =     0.58343087   -0.99187016   50.10263535
     The local contribution  to forces
     atom    1 type  1   force =    -0.27695051   -1.24430118   -1.06249602
     atom    2 type  2   force =     0.17593433   -0.40289747  -38.22318990
     atom    3 type  2   force =    -0.09387365   -0.00694814   37.78016890
     atom    4 type  1   force =     0.17378968   -0.16676282    0.29689771
     atom    5 type  2   force =     0.66642490   -1.09910722  -37.85178031
     atom    6 type  2   force =    -0.27812857    0.29679651   38.23338410
     atom    7 type  1   force =     2.14426193    2.46514025   -1.56662981
     atom    8 type  2   force =     1.15922842    0.18388368  -37.78316588
     atom    9 type  2   force =    -0.34603431    0.08109982   38.01387121
     atom   10 type  1   force =     0.46620798    0.07975209   -1.82761386
     atom   11 type  2   force =    -0.61413441    1.46002742  -37.55389073
     atom   12 type  2   force =    -0.23921015   -0.22295905   38.38850657
     atom   13 type  1   force =    -0.11387017   -1.58493702   -1.32048323
     atom   14 type  2   force =    -0.55604347   -1.03237693  -37.70008214
     atom   15 type  2   force =    -0.01220257   -0.04383358   38.16341053
     atom   16 type  1   force =    -0.38828412   -2.97093709   -0.80073343
     atom   17 type  2   force =    -0.82780283   -1.02258352  -37.88706410
     atom   18 type  2   force =     0.23805367    0.34758098   38.20181556
     atom   19 type  1   force =    -2.87807702    2.75738892    1.39470106
     atom   20 type  2   force =    -0.13258315    0.07933560   39.10002311
     atom   21 type  1   force =    -1.03482109   -0.25589094    3.11955025
     atom   22 type  2   force =    -0.45554995    1.49191186  -28.66308911
     atom   23 type  2   force =     0.19179186   -0.20774869   38.28771066
     atom   24 type  1   force =     0.43519050   -1.00772615   -0.86575307
     atom   25 type  2   force =     0.33921889   -1.12679863  -38.00635735
     atom   26 type  2   force =     0.08225362   -0.10419972   38.07707365
     atom   27 type  1   force =     0.21571818    0.24339397    0.16738637
     atom   28 type  2   force =     0.13766210   -0.43138442  -37.69708824
     atom   29 type  2   force =     0.04083177    0.08484125   37.82962746
     atom   30 type  1   force =     0.65728977    1.24141751   -1.12439686
     atom   31 type  2   force =    -0.52820417    0.92342753  -37.48401903
     atom   32 type  2   force =     0.48176862    0.08506559   38.45404870
     atom   33 type  1   force =     0.58695064   -0.28211601    1.28630478
     atom   34 type  2   force =     1.05213188    0.46660386  -37.99935001
     atom   35 type  2   force =     0.08708002   -0.04453690   37.97935279
     atom   36 type  3   force =    -0.56279634    0.98914507  -47.81103666
     The core correction contribution to forces
     atom    1 type  1   force =     0.00000000    0.00000000    0.00000000
     atom    2 type  2   force =     0.00002926    0.00057416    0.02100874
     atom    3 type  2   force =     0.00010502    0.00047040   -0.02097139
     atom    4 type  1   force =     0.00000000    0.00000000    0.00000000
     atom    5 type  2   force =    -0.00029118    0.00091924    0.02051593
     atom    6 type  2   force =     0.00013862   -0.00025365   -0.02085082
     atom    7 type  1   force =     0.00000000    0.00000000    0.00000000
     atom    8 type  2   force =    -0.00038059   -0.00000224    0.02101731
     atom    9 type  2   force =     0.00062305    0.00077025   -0.02102874
     atom   10 type  1   force =     0.00000000    0.00000000    0.00000000
     atom   11 type  2   force =    -0.00013791   -0.00045786    0.02107321
     atom   12 type  2   force =     0.00062410    0.00094106   -0.02084441
     atom   13 type  1   force =     0.00000000    0.00000000    0.00000000
     atom   14 type  2   force =     0.00007666    0.00004014    0.02128028
     atom   15 type  2   force =    -0.00004429    0.00051362   -0.02068921
     atom   16 type  1   force =     0.00000000    0.00000000    0.00000000
     atom   17 type  2   force =     0.00041729    0.00110110    0.02053783
     atom   18 type  2   force =    -0.00022901   -0.00028412   -0.02089547
     atom   19 type  1   force =     0.00000000    0.00000000    0.00000000
     atom   20 type  2   force =     0.00024626    0.00058708   -0.02120343
     atom   21 type  1   force =     0.00000000    0.00000000    0.00000000
     atom   22 type  2   force =    -0.00091001   -0.00084902   -0.00992922
     atom   23 type  2   force =    -0.00071449    0.00090200   -0.02123401
     atom   24 type  1   force =     0.00000000    0.00000000    0.00000000
     atom   25 type  2   force =    -0.00009059    0.00041832    0.02128574
     atom   26 type  2   force =     0.00000108    0.00046859   -0.02077567
     atom   27 type  1   force =     0.00000000    0.00000000    0.00000000
     atom   28 type  2   force =    -0.00010897    0.00076881    0.02129264
     atom   29 type  2   force =     0.00007790    0.00028803   -0.02087603
     atom   30 type  1   force =     0.00000000    0.00000000    0.00000000
     atom   31 type  2   force =     0.00013998   -0.00002477    0.02129425
     atom   32 type  2   force =    -0.00081936    0.00075932   -0.02101238
     atom   33 type  1   force =     0.00000000    0.00000000    0.00000000
     atom   34 type  2   force =     0.00018329    0.00029573    0.02166064
     atom   35 type  2   force =    -0.00008737    0.00069511   -0.02076700
     atom   36 type  3   force =     0.00020737   -0.00006266    0.02455698
     The Hubbard contrib.    to forces
     atom    1 type  1   force =     0.00000000    0.00000000    0.00000000
     atom    2 type  2   force =     0.00000000    0.00000000    0.00000000
     atom    3 type  2   force =     0.00000000    0.00000000    0.00000000
     atom    4 type  1   force =     0.00000000    0.00000000    0.00000000
     atom    5 type  2   force =     0.00000000    0.00000000    0.00000000
     atom    6 type  2   force =     0.00000000    0.00000000    0.00000000
     atom    7 type  1   force =     0.00000000    0.00000000    0.00000000
     atom    8 type  2   force =     0.00000000    0.00000000    0.00000000
     atom    9 type  2   force =     0.00000000    0.00000000    0.00000000
     atom   10 type  1   force =     0.00000000    0.00000000    0.00000000
     atom   11 type  2   force =     0.00000000    0.00000000    0.00000000
     atom   12 type  2   force =     0.00000000    0.00000000    0.00000000
     atom   13 type  1   force =     0.00000000    0.00000000    0.00000000
     atom   14 type  2   force =     0.00000000    0.00000000    0.00000000
     atom   15 type  2   force =     0.00000000    0.00000000    0.00000000
     atom   16 type  1   force =     0.00000000    0.00000000    0.00000000
     atom   17 type  2   force =     0.00000000    0.00000000    0.00000000
     atom   18 type  2   force =     0.00000000    0.00000000    0.00000000
     atom   19 type  1   force =     0.00000000    0.00000000    0.00000000
     atom   20 type  2   force =     0.00000000    0.00000000    0.00000000
     atom   21 type  1   force =     0.00000000    0.00000000    0.00000000
     atom   22 type  2   force =     0.00000000    0.00000000    0.00000000
     atom   23 type  2   force =     0.00000000    0.00000000    0.00000000
     atom   24 type  1   force =     0.00000000    0.00000000    0.00000000
     atom   25 type  2   force =     0.00000000    0.00000000    0.00000000
     atom   26 type  2   force =     0.00000000    0.00000000    0.00000000
     atom   27 type  1   force =     0.00000000    0.00000000    0.00000000
     atom   28 type  2   force =     0.00000000    0.00000000    0.00000000
     atom   29 type  2   force =     0.00000000    0.00000000    0.00000000
     atom   30 type  1   force =     0.00000000    0.00000000    0.00000000
     atom   31 type  2   force =     0.00000000    0.00000000    0.00000000
     atom   32 type  2   force =     0.00000000    0.00000000    0.00000000
     atom   33 type  1   force =     0.00000000    0.00000000    0.00000000
     atom   34 type  2   force =     0.00000000    0.00000000    0.00000000
     atom   35 type  2   force =     0.00000000    0.00000000    0.00000000
     atom   36 type  3   force =     0.00000000    0.00000000    0.00000000
     The SCF correction term to forces
     atom    1 type  1   force =     0.00000981   -0.00000205   -0.00002399
     atom    2 type  2   force =     0.00000776   -0.00001300   -0.00001538
     atom    3 type  2   force =     0.00000437   -0.00000596   -0.00000055
     atom    4 type  1   force =     0.00000366   -0.00000798   -0.00001842
     atom    5 type  2   force =     0.00000123   -0.00000489   -0.00001736
     atom    6 type  2   force =     0.00001274   -0.00000528    0.00000121
     atom    7 type  1   force =     0.00001186   -0.00000192   -0.00001974
     atom    8 type  2   force =     0.00001578    0.00000800   -0.00001411
     atom    9 type  2   force =     0.00001699   -0.00000003    0.00000414
     atom   10 type  1   force =     0.00003580    0.00000542   -0.00001128
     atom   11 type  2   force =     0.00001479    0.00000919   -0.00002121
     atom   12 type  2   force =     0.00000691    0.00001470    0.00000650
     atom   13 type  1   force =    -0.00001564   -0.00001171   -0.00001340
     atom   14 type  2   force =    -0.00000228    0.00000083   -0.00001205
     atom   15 type  2   force =     0.00000518   -0.00000564    0.00000192
     atom   16 type  1   force =    -0.00000967    0.00000696   -0.00001509
     atom   17 type  2   force =    -0.00000032    0.00000338   -0.00000519
     atom   18 type  2   force =    -0.00000367    0.00000097    0.00000006
     atom   19 type  1   force =    -0.00003326   -0.00000438   -0.00000580
     atom   20 type  2   force =    -0.00000257   -0.00000771    0.00000627
     atom   21 type  1   force =     0.00000212    0.00001379   -0.00002446
     atom   22 type  2   force =    -0.00003502    0.00000575   -0.00000904
     atom   23 type  2   force =    -0.00001180    0.00000886    0.00000189
     atom   24 type  1   force =     0.00000298   -0.00002068   -0.00001535
     atom   25 type  2   force =    -0.00000284   -0.00001853   -0.00001062
     atom   26 type  2   force =    -0.00001096   -0.00001217    0.00000555
     atom   27 type  1   force =    -0.00001907    0.00000497   -0.00001433
     atom   28 type  2   force =     0.00000398    0.00000691   -0.00001463
     atom   29 type  2   force =    -0.00000221    0.00000044   -0.00000617
     atom   30 type  1   force =    -0.00000310    0.00001081    0.00000324
     atom   31 type  2   force =    -0.00000888    0.00001067   -0.00000972
     atom   32 type  2   force =    -0.00000830    0.00000192    0.00000945
     atom   33 type  1   force =    -0.00002625    0.00000668    0.00000481
     atom   34 type  2   force =     0.00001200    0.00000278   -0.00001295
     atom   35 type  2   force =    -0.00000091    0.00000801    0.00001101
     atom   36 type  3   force =    -0.00006811    0.00001063   -0.00001577

     Total force =     0.006715     Total SCF correction =     0.000141
     Energy error            =      7.7E-05 Ry
     Gradient error          =      1.4E-03 Ry/Bohr

     bfgs converged in  25 scf cycles and  24 bfgs steps
     (criteria: energy <  1.0E-04 Ry, force <  1.0E-02 Ry/Bohr)

     End of BFGS Geometry Optimization

     Final energy             =   -2246.4457481670 Ry

     File ./MoS2-V-O.bfgs deleted, as requested
Begin final coordinates

ATOMIC_POSITIONS (angstrom)
Mo            6.5246445979        1.7772964817        2.7526824219
S             8.0971139249        0.8745199408        4.3641306608
S             8.1009188449        0.8577189797        1.1729033809
Mo            8.0885986462        4.5198951173        2.7156566727
S             6.4909396569        3.6796893334        4.3076130720
S             6.5238974621        3.5863214390        1.1128547704
Mo            6.4815026148        7.2030746076        2.6809880050
S             8.0520079934        6.3253224259        4.3145046442
S             8.1073416472        6.3546346702        1.1253761754
Mo            8.0948425860        9.9499702958        2.7750828019
S             6.4702761506        8.9748217720        4.3315785325
S             6.5613491835        9.0374370423        1.1255696117
Mo            3.3897540862        1.7751573153        2.7647078915
S             4.9635873133        0.8354807995        4.3479508168
S             4.9568337282        0.8775541504        1.1532802116
Mo            4.9588098100        4.5504830730        2.6604533595
S             3.4323121104        3.6847493669        4.3165050471
S             3.3970018524        3.5845084963        1.1191870649
Mo            3.4373002221        7.1695543714        2.6589334168
S             4.9779571105        6.3201760476        1.0423300435
Mo            4.9717001256        9.9477298405        2.7174416596
S             3.4094833445        8.9811305267        4.2359228875
S             3.3571084623        9.0518075194        1.1439489443
Mo            0.2286964789        1.7715968301        2.7616204000
S             1.8086604327        0.8739412711        4.3724382281
S             1.8110902319        0.8824892785        1.1678781034
Mo            1.8312024854        4.5228685766        2.7220088790
S             0.2276054033        3.6305498759        4.3184598500
S             0.2320450162        3.5911294120        1.1486751209
Mo            0.2387904361        7.2403688814        2.7538533684
S             1.8897503323        6.3282512284        4.3232719786
S             1.8024179103        6.3401155240        1.1096984398
Mo            1.7873089273        9.9791409413        2.7572933865
S             0.2336504551        9.0569734258        4.3703651404
S             0.2131109193        9.0666858027        1.1749125664
O             3.4242387316        8.9923795280        5.7346839830
End final coordinates



     Writing all to output data dir ./MoS2-V-O.save/
 
     init_run     :      4.87s CPU      5.47s WALL (       1 calls)
     electrons    :   2320.94s CPU   2623.85s WALL (      25 calls)
     update_pot   :     73.27s CPU     78.17s WALL (      24 calls)
     forces       :     68.53s CPU     78.52s WALL (      25 calls)

     Called by init_run:
     wfcinit      :      0.49s CPU      0.56s WALL (       1 calls)
     potinit      :      2.62s CPU      2.95s WALL (       1 calls)
     hinit0       :      0.44s CPU      0.46s WALL (       1 calls)

     Called by electrons:
     c_bands      :    334.97s CPU    342.94s WALL (     235 calls)
     sum_band     :    134.18s CPU    171.40s WALL (     235 calls)
     v_of_rho     :    222.55s CPU    270.15s WALL (     253 calls)
     newd         :     78.21s CPU    114.27s WALL (     253 calls)
     PAW_pot      :     10.03s CPU     10.07s WALL (     277 calls)
     mix_rho      :   1566.34s CPU   1742.84s WALL (     235 calls)

     Called by c_bands:
     init_us_2    :      5.38s CPU      5.82s WALL (     495 calls)
     init_us_2:cp :      5.38s CPU      5.82s WALL (     495 calls)
     regterg      :    317.43s CPU    324.95s WALL (     235 calls)

     Called by *egterg:
     rdiaghg      :     21.84s CPU     22.05s WALL (    1258 calls)
     h_psi        :    205.49s CPU    207.33s WALL (    1290 calls)
     s_psi        :     19.85s CPU     19.92s WALL (    1290 calls)
     g_psi        :      0.99s CPU      1.01s WALL (    1054 calls)

     Called by h_psi:
     h_psi:calbec :     22.50s CPU     22.64s WALL (    1290 calls)
     vloc_psi     :    160.60s CPU    162.17s WALL (    1290 calls)
     add_vuspsi   :     19.82s CPU     19.93s WALL (    1290 calls)

     General routines
     calbec       :     32.86s CPU     33.08s WALL (    1649 calls)
     fft          :    154.08s CPU    178.47s WALL (   16889 calls)
     ffts         :    702.93s CPU    872.96s WALL (  383769 calls)
     fftw         :    102.03s CPU    102.87s WALL (  143010 calls)
     interpolate  :      3.12s CPU      3.59s WALL (     253 calls)
 
     Parallel routines
 
     PWSCF        :  41m18.41s CPU  46m41.78s WALL

 
   This run was terminated on:  22:26:37   1Nov2023            

=------------------------------------------------------------------------------=
   JOB DONE.
=------------------------------------------------------------------------------=
