
     Program PWSCF v.7.2 starts on  1Nov2023 at 22:32:15 

     This program is part of the open-source Quantum ESPRESSO suite
     for quantum simulation of materials; please cite
         "P. Giannozzi et al., J. Phys.:Condens. Matter 21 395502 (2009);
         "P. Giannozzi et al., J. Phys.:Condens. Matter 29 465901 (2017);
         "P. Giannozzi et al., J. Chem. Phys. 152 154105 (2020);
          URL http://www.quantum-espresso.org", 
     in publications or presentations arising from this work. More details at
     http://www.quantum-espresso.org/quote

     Parallel version (MPI & OpenMP), running on      48 processor cores
     Number of MPI processes:                48
     Threads/MPI process:                     1

     MPI processes distributed on     1 nodes
     19442 MiB available memory on the printing compute node when the environment starts
 
     Waiting for input...
     Reading input from standard input
Warning: card &CELL ignored
Warning: card CELL_DYNAMICS = 'BFGS', ignored
Warning: card CELL_DOFREE = '2DXY' ignored
Warning: card / ignored

     Current dimensions of program PWSCF are:
     Max number of different atomic species (ntypx) = 10
     Max number of k-points (npk) =  40000
     Max angular momentum in pseudopotentials (lmaxx) =  4
     file O.pbe-n-kjpaw_psl.0.1.UPF: wavefunction(s)  2P renormalized

     IMPORTANT: XC functional enforced from input :
     Exchange-correlation= RVV10
                           (   1   4  13   4  26   0   0)
     Any further DFT definition will be discarded
     Please, verify this is what you really want


     gamma-point specific algorithms are used
     signal trapping enabled: kill the code with -SIGUSR1 to stop cleanly the simulation 
 
     R & G space division:  proc/nbgrp/npool/nimage =      48
     Subspace diagonalization in iterative solution of the eigenvalue problem:
     one sub-group per band group will be used
     scalapack distributed-memory algorithm (size of sub-group:  2*  2 procs)

 
     Parallelization info
     --------------------
     sticks:   dense  smooth     PW     G-vecs:    dense   smooth      PW
     Min         396     194     47               101632    35090    4376
     Max         398     196     50               101674    35128    4410
     Sum       19091    9389   2349              4879585  1685513  210763
 
     Using Slab Decomposition
 


     bravais-lattice index     =            0
     lattice parameter (alat)  =      17.8707  a.u.
     unit-cell volume          =   17436.2743 (a.u.)^3
     number of atoms/cell      =           36
     number of atomic types    =            3
     number of electrons       =       312.00
     number of Kohn-Sham states=          187
     kinetic-energy cutoff     =      80.0000  Ry
     charge density cutoff     =     650.0000  Ry
     scf convergence threshold =      1.0E-06
     mixing beta               =       0.7000
     number of iterations used =            8  local-TF  mixing
     energy convergence thresh.=      1.0E-04
     force convergence thresh. =      1.0E-02
     Exchange-correlation= RVV10
                           (   1   4  13   4  26   0   0)
     nstep                     =          200


     celldm(1)=  17.870686  celldm(2)=   0.000000  celldm(3)=   0.000000
     celldm(4)=   0.000000  celldm(5)=   0.000000  celldm(6)=   0.000000

     crystal axes: (cart. coord. in units of alat)
               a(1) = (   1.000000   0.000000   0.000000 )  
               a(2) = (   0.000000   1.155671   0.000000 )  
               a(3) = (   0.000000   0.000000   2.643601 )  

     reciprocal axes: (cart. coord. in units 2 pi/alat)
               b(1) = (  1.000000  0.000000  0.000000 )  
               b(2) = (  0.000000  0.865298  0.000000 )  
               b(3) = (  0.000000  0.000000  0.378272 )  


     PseudoPot. # 1 for Mo read from file:
     ../pseudo/Mo_ONCV_PBE-1.0.oncvpsp.upf
     MD5 check sum: 1b5d28e075c9ccadda658a603575cd1f
     Pseudo is Norm-conserving, Zval = 14.0
     Generated using ONCVPSP code by D. R. Hamann
     Using radial grid of 1526 points,  6 beta functions with: 
                l(1) =   0
                l(2) =   0
                l(3) =   1
                l(4) =   1
                l(5) =   2
                l(6) =   2

     PseudoPot. # 2 for S  read from file:
     ../pseudo/s_pbe_v1.4.uspp.F.UPF
     MD5 check sum: 88d86576ff6df21479756cfb9bdac1df
     Pseudo is Ultrasoft + core correction, Zval =  6.0
     Generated by new atomic code, or converted to UPF format
     Using radial grid of  907 points,  6 beta functions with: 
                l(1) =   0
                l(2) =   0
                l(3) =   1
                l(4) =   1
                l(5) =   2
                l(6) =   2
     Q(r) pseudized with  8 coefficients,  rinner =    1.300   1.300   1.300
                                                       1.300   1.300

     PseudoPot. # 3 for O  read from file:
     ../pseudo/O.pbe-n-kjpaw_psl.0.1.UPF
     MD5 check sum: 0234752ac141de4415c5fc33072bef88
     Pseudo is Projector augmented-wave + core cor, Zval =  6.0
     Generated using "atomic" code by A. Dal Corso  v.5.0.99 svn rev. 10869
     Shape of augmentation charge: BESSEL
     Using radial grid of 1095 points,  4 beta functions with: 
                l(1) =   0
                l(2) =   0
                l(3) =   1
                l(4) =   1
     Q(r) pseudized with 0 coefficients 


     atomic species   valence    mass     pseudopotential
        Mo            14.00    95.94000     Mo( 1.00)
        S              6.00    32.06500     S ( 1.00)
        O              6.00    15.99940     O ( 1.00)

     No symmetry found



   Cartesian axes

     site n.     atom                  positions (alat units)
         1           Mo  tau(   1) = (   0.6952221   0.1890506   0.2985846  )
         2           S   tau(   2) = (   0.8646417   0.0856217   0.4689279  )
         3           S   tau(   3) = (   0.8663890   0.0857843   0.1351291  )
         4           Mo  tau(   4) = (   0.8560186   0.4753274   0.2873942  )
         5           S   tau(   5) = (   0.6873294   0.3936244   0.4596353  )
         6           S   tau(   6) = (   0.6929804   0.3713468   0.1185692  )
         7           Mo  tau(   7) = (   0.6862796   0.7633098   0.2825370  )
         8           S   tau(   8) = (   0.8545980   0.6708292   0.4486168  )
         9           S   tau(   9) = (   0.8545123   0.6666874   0.1146125  )
        10           Mo  tau(  10) = (   0.8629403   1.0471007   0.3006803  )
        11           S   tau(  11) = (   0.6868280   0.9456650   0.4634891  )
        12           S   tau(  12) = (   0.6998113   0.9568511   0.1205389  )
        13           Mo  tau(  13) = (   0.3618216   0.1847309   0.2935964  )
        14           S   tau(  14) = (   0.5260962   0.0863870   0.4600448  )
        15           S   tau(  15) = (   0.5348379   0.0894875   0.1297123  )
        16           Mo  tau(  16) = (   0.5265817   0.4772436   0.2784130  )
        17           S   tau(  17) = (   0.3624753   0.3882513   0.4525556  )
        18           S   tau(  18) = (   0.3635411   0.3752055   0.1119148  )
        19           Mo  tau(  19) = (   0.3652268   0.7630864   0.2781795  )
        20           S   tau(  20) = (   0.5269494   0.6690381   0.1096838  )
        21           Mo  tau(  21) = (   0.5300192   1.0470394   0.2900995  )
        22           S   tau(  22) = (   0.3670346   0.9457522   0.4574073  )
        23           S   tau(  23) = (   0.3604225   0.9585725   0.1159032  )
        24           Mo  tau(  24) = (   0.0313099   0.1847895   0.3013130  )
        25           S   tau(  25) = (   0.1956761   0.0838230   0.4650863  )
        26           S   tau(  26) = (   0.1967693   0.0903508   0.1278874  )
        27           Mo  tau(  27) = (   0.1967578   0.4753919   0.2813011  )
        28           S   tau(  28) = (   0.0287851   0.3864324   0.4586755  )
        29           S   tau(  29) = (   0.0244514   0.3729871   0.1239344  )
        30           Mo  tau(  30) = (   0.0286728   0.7631204   0.2856894  )
        31           S   tau(  31) = (   0.2011512   0.6675435   0.4465001  )
        32           S   tau(  32) = (   0.1969214   0.6672839   0.1104564  )
        33           Mo  tau(  33) = (   0.1950294   1.0511147   0.2932237  )
        34           S   tau(  34) = (   0.0312912   0.9612169   0.4667423  )
        35           S   tau(  35) = (   0.0292670   0.9563028   0.1216485  )
        36           O   tau(  36) = (   0.8888889   0.0000000   0.5407634  )

     number of k points=     1  Gaussian smearing, width (Ry)=  0.0100
                       cart. coord. in units 2pi/alat
        k(    1) = (   0.0000000   0.0000000   0.0000000), wk =   2.0000000

     Dense  grid:  2439793 G-vectors     FFT dimensions: ( 150, 180, 384)

     Smooth grid:   842757 G-vectors     FFT dimensions: ( 108, 120, 270)

     Estimated max dynamical RAM per process >     269.22 MB

     Estimated total dynamical RAM >      12.62 GB

     Initial potential from superposition of free atoms

     starting charge     311.9873, renormalised to     312.0000

     negative rho (up, down):  2.741E-04 0.000E+00


---------------------------------------------------------------------------------
Carrying out rVV10 run using the following parameters:
Nqs =      20    Nr_points =    1024   r_max =   100.000
b_value =  6.30000    beta =  0.00901
     q_mesh =  0.00010000  0.00030000  0.00058939  0.00100810
               0.00161396  0.00249058  0.00375900  0.00559430
               0.00824984  0.01209221  0.01765183  0.02569619
               0.03733578  0.05417739  0.07854596  0.11380545
               0.16482331  0.23864234  0.34545298  0.50000000

Gradients computed in Reciprocal space

---------------------------------------------------------------------------------


     Starting wfcs are  216 randomized atomic wfcs
     Checking if some PAW data can be deallocated... 

     total cpu time spent up to now is        5.3 secs

     Self-consistent Calculation

     iteration #  1     ecut=    80.00 Ry     beta= 0.70
     Davidson diagonalization with overlap
     ethr =  1.00E-02,  avg # of iterations =  2.0

     Threshold (ethr) on eigenvalues was too large:
     Diagonalizing with lowered threshold

     Davidson diagonalization with overlap
     ethr =  5.83E-04,  avg # of iterations =  4.0

     negative rho (up, down):  4.450E-08 0.000E+00

     total cpu time spent up to now is       21.0 secs

     total energy              =   -2245.36056515 Ry
     estimated scf accuracy    <       2.06421606 Ry

     iteration #  2     ecut=    80.00 Ry     beta= 0.70
     Davidson diagonalization with overlap
     ethr =  6.62E-04,  avg # of iterations =  4.0

     total cpu time spent up to now is       26.4 secs

     total energy              =   -2245.36422639 Ry
     estimated scf accuracy    <       0.62737437 Ry

     iteration #  3     ecut=    80.00 Ry     beta= 0.70
     Davidson diagonalization with overlap
     ethr =  2.01E-04,  avg # of iterations =  2.0

     total cpu time spent up to now is       30.9 secs

     total energy              =   -2245.38536242 Ry
     estimated scf accuracy    <       0.11987006 Ry

     iteration #  4     ecut=    80.00 Ry     beta= 0.70
     Davidson diagonalization with overlap
     ethr =  3.84E-05,  avg # of iterations = 12.0

     total cpu time spent up to now is       36.0 secs

     total energy              =   -2245.40249180 Ry
     estimated scf accuracy    <       0.02773437 Ry

     iteration #  5     ecut=    80.00 Ry     beta= 0.70
     Davidson diagonalization with overlap
     ethr =  8.89E-06,  avg # of iterations =  2.0

     total cpu time spent up to now is       40.2 secs

     total energy              =   -2245.40158478 Ry
     estimated scf accuracy    <       0.01721067 Ry

     iteration #  6     ecut=    80.00 Ry     beta= 0.70
     Davidson diagonalization with overlap
     ethr =  5.52E-06,  avg # of iterations =  2.0

     total cpu time spent up to now is       44.9 secs

     total energy              =   -2245.40024166 Ry
     estimated scf accuracy    <       0.01044112 Ry

     iteration #  7     ecut=    80.00 Ry     beta= 0.70
     Davidson diagonalization with overlap
     ethr =  3.35E-06,  avg # of iterations =  8.0

     negative rho (up, down):  1.752E-04 0.000E+00

     total cpu time spent up to now is       52.3 secs

     total energy              =   -2245.39938899 Ry
     estimated scf accuracy    <       0.00601027 Ry

     iteration #  8     ecut=    80.00 Ry     beta= 0.70
     Davidson diagonalization with overlap
     ethr =  1.93E-06,  avg # of iterations =  2.0

     negative rho (up, down):  2.383E-02 0.000E+00

     total cpu time spent up to now is       59.0 secs

     total energy              =   -2245.39860897 Ry
     estimated scf accuracy    <       0.00377080 Ry

     iteration #  9     ecut=    80.00 Ry     beta= 0.70
     Davidson diagonalization with overlap
     ethr =  1.21E-06,  avg # of iterations =  2.0

     negative rho (up, down):  3.662E-02 0.000E+00

     total cpu time spent up to now is       64.9 secs

     total energy              =   -2245.39843224 Ry
     estimated scf accuracy    <       0.00199037 Ry

     iteration # 10     ecut=    80.00 Ry     beta= 0.70
     Davidson diagonalization with overlap
     ethr =  6.38E-07,  avg # of iterations =  2.0

     negative rho (up, down):  2.478E-02 0.000E+00

     total cpu time spent up to now is       72.5 secs

     total energy              =   -2245.39840731 Ry
     estimated scf accuracy    <       0.00072462 Ry

     iteration # 11     ecut=    80.00 Ry     beta= 0.70
     Davidson diagonalization with overlap
     ethr =  2.32E-07,  avg # of iterations = 17.0

     negative rho (up, down):  1.201E-02 0.000E+00

     total cpu time spent up to now is       80.1 secs

     total energy              =   -2245.39839472 Ry
     estimated scf accuracy    <       0.00012040 Ry

     iteration # 12     ecut=    80.00 Ry     beta= 0.70
     Davidson diagonalization with overlap
     ethr =  3.86E-08,  avg # of iterations =  4.0

     negative rho (up, down):  3.694E-03 0.000E+00

     total cpu time spent up to now is       88.3 secs

     total energy              =   -2245.39844746 Ry
     estimated scf accuracy    <       0.00002757 Ry

     iteration # 13     ecut=    80.00 Ry     beta= 0.70
     Davidson diagonalization with overlap
     ethr =  8.84E-09,  avg # of iterations =  4.0

     negative rho (up, down):  9.077E-04 0.000E+00

     total cpu time spent up to now is       99.0 secs

     total energy              =   -2245.39845435 Ry
     estimated scf accuracy    <       0.00000750 Ry

     iteration # 14     ecut=    80.00 Ry     beta= 0.70
     Davidson diagonalization with overlap
     ethr =  2.40E-09,  avg # of iterations =  2.0

     negative rho (up, down):  4.497E-04 0.000E+00

     total cpu time spent up to now is      108.0 secs

     total energy              =   -2245.39845416 Ry
     estimated scf accuracy    <       0.00000218 Ry

     iteration # 15     ecut=    80.00 Ry     beta= 0.70
     Davidson diagonalization with overlap
     ethr =  6.99E-10,  avg # of iterations =  5.0

     negative rho (up, down):  2.637E-04 0.000E+00

     total cpu time spent up to now is      112.7 secs

     End of self-consistent calculation

          k = 0.0000 0.0000 0.0000 (105382 PWs)   bands (ev):

   -62.8430 -62.8266 -62.8099 -62.7929 -62.7818 -62.7225 -62.7156 -62.6996
   -62.6951 -62.6887 -62.6404 -62.5055 -37.1607 -37.1095 -37.0823 -37.0757
   -37.0705 -37.0577 -37.0252 -37.0178 -37.0068 -36.9883 -36.9810 -36.9728
   -36.9661 -36.9586 -36.9412 -36.9250 -36.9115 -36.9022 -36.8978 -36.8870
   -36.8787 -36.8676 -36.8484 -36.8449 -36.8325 -36.8258 -36.8174 -36.7981
   -36.7811 -36.7627 -36.7587 -36.7501 -36.7029 -36.6421 -36.6298 -36.5800
   -29.8629 -15.8584 -15.1297 -15.0365 -14.9015 -14.7921 -14.7079 -14.4725
   -14.3925 -14.3788 -14.3366 -14.3225 -14.2833 -14.2208 -14.1324 -14.0772
   -14.0647 -14.0221 -13.9673 -13.9140 -13.7658 -13.7544 -13.7182 -12.9641
   -12.0440 -11.7955  -9.2567  -7.5197  -7.3636  -7.1937  -7.1800  -7.1120
    -7.0882  -6.9950  -6.9369  -6.7384  -6.7287  -6.6430  -6.6232  -6.5414
    -6.4032  -6.3804  -6.3105  -6.2567  -6.0404  -6.0037  -5.8287  -5.8140
    -5.7651  -5.6975  -5.6828  -5.6297  -5.5985  -5.5688  -5.5361  -5.5225
    -5.4363  -5.4055  -5.3328  -5.2945  -5.2140  -5.1714  -5.0516  -4.9428
    -4.9214  -4.8287  -4.7842  -4.7512  -4.7111  -4.5688  -4.4426  -4.2463
    -4.2001  -4.1750  -4.1525  -4.0832  -3.9864  -3.8909  -3.8218  -3.6970
    -3.6858  -3.6362  -3.5713  -3.5254  -3.4966  -3.4436  -3.4183  -3.3625
    -3.3218  -3.3103  -3.1854  -3.1484  -3.1254  -2.8889  -2.8695  -2.7531
    -2.6880  -2.6682  -2.6470  -2.6177  -2.5546  -2.5450  -2.4794  -2.2170
    -2.0602  -1.8985  -1.8146  -1.3330  -0.8492  -0.6353  -0.5934  -0.0922
    -0.0562   0.0159   0.0423   0.1631   0.2110   0.2975   0.3377   0.3708
     0.3954   0.4926   0.5314   0.5947   0.6072   0.6441   0.6658   0.7116
     0.8094   0.8354   0.8420   0.8813   0.9013   0.9461   0.9997   1.0602
     1.0824   1.2681   1.3457

     the Fermi energy is    -1.0911 ev

!    total energy              =   -2245.39845591 Ry
     estimated scf accuracy    <       0.00000070 Ry
     smearing contrib. (-TS)   =      -0.00047839 Ry
     internal energy E=F+TS    =   -2245.39797753 Ry

     The total energy is F=E-TS. E is the sum of the following terms:
     one-electron contribution =  -18518.98653652 Ry
     hartree contribution      =    9248.41343084 Ry
     xc contribution           =    -393.02114560 Ry
     ewald contribution        =    7428.02195386 Ry
     one-center paw contrib.   =      -9.82568011 Ry

     convergence has been achieved in  15 iterations

     negative rho (up, down):  2.637E-04 0.000E+00

     Forces acting on atoms (cartesian axes, Ry/au):

     atom    1 type  1   force =    -0.00210658   -0.03024803    0.03869471
     atom    2 type  2   force =    -0.64007897    2.36708904   -2.13149559
     atom    3 type  2   force =    -0.01220676    0.00846847   -0.00476856
     atom    4 type  1   force =     0.00807990    0.00410171    0.00374308
     atom    5 type  2   force =    -0.00472084    0.00328643   -0.00926701
     atom    6 type  2   force =     0.00238460    0.01157640   -0.00636200
     atom    7 type  1   force =     0.00330345   -0.01573913   -0.00758894
     atom    8 type  2   force =     0.00129863   -0.00440593    0.01757672
     atom    9 type  2   force =     0.01195502    0.00494701    0.01227679
     atom   10 type  1   force =    -0.03655595   -0.01746848   -0.17237727
     atom   11 type  2   force =    -0.00056728   -0.00750557   -0.00272310
     atom   12 type  2   force =     0.00253624    0.00189197    0.01203953
     atom   13 type  1   force =     0.00287790    0.00480639    0.00187653
     atom   14 type  2   force =     0.00430580    0.00180101    0.01110390
     atom   15 type  2   force =    -0.00936312    0.00043608   -0.01204074
     atom   16 type  1   force =    -0.00290295    0.01514438    0.00593990
     atom   17 type  2   force =     0.00525383    0.00159475    0.00193364
     atom   18 type  2   force =    -0.00245419   -0.00567822    0.01312156
     atom   19 type  1   force =     0.00130268   -0.01326433   -0.00520286
     atom   20 type  2   force =     0.00273873   -0.00367419    0.00120941
     atom   21 type  1   force =    -0.00366608   -0.00529787   -0.00612915
     atom   22 type  2   force =    -0.00553341   -0.00110433   -0.00183791
     atom   23 type  2   force =     0.00140526    0.00277972    0.00854398
     atom   24 type  1   force =    -0.00393928   -0.00653131   -0.00406091
     atom   25 type  2   force =     0.01737910    0.01970430    0.00800536
     atom   26 type  2   force =    -0.01109755   -0.00317380   -0.00874679
     atom   27 type  1   force =     0.00210493    0.00120832    0.00502780
     atom   28 type  2   force =     0.00320459    0.00692715   -0.00405845
     atom   29 type  2   force =     0.00109330    0.00622009   -0.00521089
     atom   30 type  1   force =     0.00233033    0.00583808   -0.00931819
     atom   31 type  2   force =     0.00040420    0.00173551    0.01880823
     atom   32 type  2   force =    -0.00936378    0.00752434    0.00696095
     atom   33 type  1   force =     0.00822585   -0.00650892   -0.00930279
     atom   34 type  2   force =     0.03748456   -0.08698525   -0.02265596
     atom   35 type  2   force =    -0.00701713    0.00768649    0.01876025
     atom   36 type  3   force =     0.63190497   -2.27718227    2.23752477
     The non-local contrib.  to forces
     atom    1 type  1   force =     0.01344930    0.00868910   -0.01187082
     atom    2 type  2   force =    -0.40013950    1.36004679   -1.22065696
     atom    3 type  2   force =    -0.01623290    0.00375590    0.26932149
     atom    4 type  1   force =     0.00281913    0.01223584    0.00308139
     atom    5 type  2   force =     0.00558318   -0.03609952   -0.24973259
     atom    6 type  2   force =     0.00262515    0.01689987    0.25823617
     atom    7 type  1   force =    -0.01524144    0.00964742   -0.02769253
     atom    8 type  2   force =     0.00286800   -0.00452213   -0.25324976
     atom    9 type  2   force =     0.00431686   -0.00854255    0.27731880
     atom   10 type  1   force =     0.01104446    0.05866464    0.03931031
     atom   11 type  2   force =    -0.00745036   -0.00630032   -0.25218008
     atom   12 type  2   force =    -0.01052607   -0.01557280    0.26521446
     atom   13 type  1   force =    -0.00297725    0.02962509   -0.00518367
     atom   14 type  2   force =     0.02394002   -0.00158125   -0.26110358
     atom   15 type  2   force =    -0.01534049   -0.00074638    0.25637308
     atom   16 type  1   force =    -0.00509137    0.03605241   -0.02691027
     atom   17 type  2   force =     0.00267445   -0.03091445   -0.25016134
     atom   18 type  2   force =    -0.00310796   -0.00583620    0.27438987
     atom   19 type  1   force =     0.01529344    0.00808208   -0.01727242
     atom   20 type  2   force =    -0.00048452   -0.02232465    0.26687255
     atom   21 type  1   force =     0.00539159    0.02901860    0.00369056
     atom   22 type  2   force =    -0.01126221    0.00237421   -0.25028527
     atom   23 type  2   force =     0.00549593   -0.01399379    0.26920900
     atom   24 type  1   force =    -0.03452908    0.00316355    0.00742003
     atom   25 type  2   force =     0.00453589    0.01596878   -0.25776120
     atom   26 type  2   force =     0.00130043   -0.00859027    0.25657384
     atom   27 type  1   force =    -0.00386431    0.00933896    0.01131930
     atom   28 type  2   force =    -0.00536852   -0.03084364   -0.27160546
     atom   29 type  2   force =     0.00321206    0.00848150    0.25914264
     atom   30 type  1   force =     0.00295462    0.02680736    0.00998935
     atom   31 type  2   force =    -0.00721854    0.00123299   -0.24960178
     atom   32 type  2   force =    -0.00248304   -0.01057071    0.27628383
     atom   33 type  1   force =    -0.00466066    0.00414095    0.00529027
     atom   34 type  2   force =     0.05493235   -0.09077148   -0.27527927
     atom   35 type  2   force =     0.00135128   -0.00663583    0.27017504
     atom   36 type  3   force =    -0.48445207    1.71671849   -0.87146465
     The ionic contribution  to forces
     atom    1 type  1   force =    -1.34761877    2.09038045    2.79898657
     atom    2 type  2   force =    -4.29299587   13.25742274   28.44219968
     atom    3 type  2   force =    -0.21869167    0.24612281  -37.48125150
     atom    4 type  1   force =     0.00850579    1.31646647   -0.56895327
     atom    5 type  2   force =    -1.33868251    2.19981400   38.50750022
     atom    6 type  2   force =     0.23146503   -0.27716090  -38.66129075
     atom    7 type  1   force =    -3.14304899   -3.76805518    1.22082410
     atom    8 type  2   force =    -1.03839237   -0.41873048   37.15481212
     atom    9 type  2   force =     0.32397374   -0.15880827  -38.58054680
     atom   10 type  1   force =    -1.78090762   -3.25195608   -1.31711734
     atom   11 type  2   force =    -2.02818853   -3.22256935   38.47899588
     atom   12 type  2   force =     0.22753182    0.42018749  -38.75436337
     atom   13 type  1   force =     0.66897535    1.59346091    1.54349080
     atom   14 type  2   force =    -0.93916061    0.33694994   38.13594721
     atom   15 type  2   force =    -0.05276786    0.03890130  -37.57447283
     atom   16 type  1   force =    -0.28366882    4.30438985   -0.45941472
     atom   17 type  2   force =     0.86222719    1.80689999   37.77084179
     atom   18 type  2   force =    -0.14428837   -0.51426153  -39.07870925
     atom   19 type  1   force =     2.78702695   -2.94304570   -0.32584046
     atom   20 type  2   force =     0.17088037   -0.27221539  -38.96570666
     atom   21 type  1   force =    -1.14353195   -0.53200868   -0.66394999
     atom   22 type  2   force =     0.55590716   -2.10172004   38.21003000
     atom   23 type  2   force =    -0.05341148    0.52427621  -38.90870610
     atom   24 type  1   force =     1.17045717    3.51118570    2.25376285
     atom   25 type  2   force =     2.26251939    0.80156998   38.74358057
     atom   26 type  2   force =    -0.03234430    0.18223237  -38.17080780
     atom   27 type  1   force =     0.35751770    0.82476467   -3.24145276
     atom   28 type  2   force =     0.39265944    1.90144139   37.91867772
     atom   29 type  2   force =    -0.17019013   -0.17409188  -37.93590294
     atom   30 type  1   force =     0.11008060   -2.07196760   -1.50029168
     atom   31 type  2   force =     1.42044582   -0.27798528   37.15477671
     atom   32 type  2   force =    -0.40864995   -0.08752518  -39.13712430
     atom   33 type  1   force =     2.45824573   -1.60046148   -0.18196989
     atom   34 type  2   force =     2.10466771   -4.06266661   38.29421863
     atom   35 type  2   force =    -0.11287564    0.17164729  -38.78518297
     atom   36 type  3   force =     2.41632850   -9.79288397   53.66441053
     The local contribution  to forces
     atom    1 type  1   force =     1.33204695   -2.12931355   -2.74733524
     atom    2 type  2   force =     4.02751478  -12.16206761  -29.43618800
     atom    3 type  2   force =     0.22200296   -0.24110168   37.22833597
     atom    4 type  1   force =    -0.00326134   -1.32450922    0.57057767
     atom    5 type  2   force =     1.32900203   -2.16254528  -38.28668187
     atom    6 type  2   force =    -0.23184652    0.27324116   38.41767406
     atom    7 type  1   force =     3.16166962    3.74265169   -1.19976658
     atom    8 type  2   force =     1.03685141    0.41824229  -36.90385776
     atom    9 type  2   force =    -0.31637151    0.17178925   38.33687525
     atom   10 type  1   force =     1.73328248    3.17589269    1.10645663
     atom   11 type  2   force =     2.03478985    3.22166015  -38.24919133
     atom   12 type  2   force =    -0.21568654   -0.40407226   38.52240546
     atom   13 type  1   force =    -0.66313517   -1.61824483   -1.53548901
     atom   14 type  2   force =     0.92095066   -0.33321498  -37.88368344
     atom   15 type  2   force =     0.05783624   -0.03786464   37.32678069
     atom   16 type  1   force =     0.28586444   -4.32537561    0.49315917
     atom   17 type  2   force =    -0.85959270   -1.77610913  -37.53859236
     atom   18 type  2   force =     0.14499085    0.51476112   38.83891861
     atom   19 type  1   force =    -2.80104209    2.92172262    0.33882396
     atom   20 type  2   force =    -0.16780083    0.28989816   38.72156364
     atom   21 type  1   force =     1.13440436    0.49775978    0.65506819
     atom   22 type  2   force =    -0.55051707    2.09872909  -37.98123577
     atom   23 type  2   force =     0.04985094   -0.50867965   38.66931680
     atom   24 type  1   force =    -1.13985272   -3.52094413   -2.26412367
     atom   25 type  2   force =    -2.25017623   -0.79683092  -38.49778490
     atom   26 type  2   force =     0.02036631   -0.17726108   37.92642328
     atom   27 type  1   force =    -0.35152012   -0.83296780    3.23608001
     atom   28 type  2   force =    -0.38449719   -1.86595866  -37.67135695
     atom   29 type  2   force =     0.16848129    0.17277133   37.69226464
     atom   30 type  1   force =    -0.11077299    2.05092084    1.48190135
     atom   31 type  2   force =    -1.41326141    0.27836279  -36.90618262
     atom   32 type  2   force =     0.40193923    0.10495634   38.88925215
     atom   33 type  1   force =    -2.44525505    1.58995479    0.16829378
     atom   34 type  2   force =    -2.11972318    4.06274633  -38.06237282
     atom   35 type  2   force =     0.10489560   -0.15811146   38.55505794
     atom   36 type  3   force =    -1.30042506    5.80063273  -50.54952380
     The core correction contribution to forces
     atom    1 type  1   force =     0.00000000    0.00000000    0.00000000
     atom    2 type  2   force =     0.02557042   -0.08817955    0.08360147
     atom    3 type  2   force =     0.00076220   -0.00033473   -0.02083799
     atom    4 type  1   force =     0.00000000    0.00000000    0.00000000
     atom    5 type  2   force =    -0.00063198    0.00213218    0.02010469
     atom    6 type  2   force =     0.00008116   -0.00133145   -0.02066475
     atom    7 type  1   force =     0.00000000    0.00000000    0.00000000
     atom    8 type  2   force =    -0.00003890    0.00061312    0.02032663
     atom    9 type  2   force =     0.00002952    0.00051641   -0.02102114
     atom   10 type  1   force =     0.00000000    0.00000000    0.00000000
     atom   11 type  2   force =     0.00026053   -0.00028230    0.02012342
     atom   12 type  2   force =     0.00116492    0.00133897   -0.02088530
     atom   13 type  1   force =     0.00000000    0.00000000    0.00000000
     atom   14 type  2   force =    -0.00146929   -0.00041566    0.02038056
     atom   15 type  2   force =     0.00082674    0.00010641   -0.02035979
     atom   16 type  1   force =     0.00000000    0.00000000    0.00000000
     atom   17 type  2   force =    -0.00004156    0.00166978    0.02022646
     atom   18 type  2   force =    -0.00000335   -0.00036014   -0.02108836
     atom   19 type  1   force =     0.00000000    0.00000000    0.00000000
     atom   20 type  2   force =     0.00016291    0.00090611   -0.02123091
     atom   21 type  1   force =     0.00000000    0.00000000    0.00000000
     atom   22 type  2   force =     0.00037362   -0.00044745    0.02012545
     atom   23 type  2   force =    -0.00049698    0.00120252   -0.02094614
     atom   24 type  1   force =     0.00000000    0.00000000    0.00000000
     atom   25 type  2   force =     0.00050588   -0.00098819    0.02037577
     atom   26 type  2   force =    -0.00038995    0.00045530   -0.02054242
     atom   27 type  1   force =     0.00000000    0.00000000    0.00000000
     atom   28 type  2   force =     0.00040065    0.00223404    0.02066736
     atom   29 type  2   force =    -0.00038966   -0.00095560   -0.02036251
     atom   30 type  1   force =     0.00000000    0.00000000    0.00000000
     atom   31 type  2   force =     0.00042480    0.00011671    0.02030111
     atom   32 type  2   force =    -0.00018139    0.00065067   -0.02113221
     atom   33 type  1   force =     0.00000000    0.00000000    0.00000000
     atom   34 type  2   force =    -0.00240289    0.00370266    0.02125713
     atom   35 type  2   force =    -0.00037519    0.00076455   -0.02098696
     atom   36 type  3   force =     0.00047321   -0.00157244   -0.00549644
     The Hubbard contrib.    to forces
     atom    1 type  1   force =     0.00000000    0.00000000    0.00000000
     atom    2 type  2   force =     0.00000000    0.00000000    0.00000000
     atom    3 type  2   force =     0.00000000    0.00000000    0.00000000
     atom    4 type  1   force =     0.00000000    0.00000000    0.00000000
     atom    5 type  2   force =     0.00000000    0.00000000    0.00000000
     atom    6 type  2   force =     0.00000000    0.00000000    0.00000000
     atom    7 type  1   force =     0.00000000    0.00000000    0.00000000
     atom    8 type  2   force =     0.00000000    0.00000000    0.00000000
     atom    9 type  2   force =     0.00000000    0.00000000    0.00000000
     atom   10 type  1   force =     0.00000000    0.00000000    0.00000000
     atom   11 type  2   force =     0.00000000    0.00000000    0.00000000
     atom   12 type  2   force =     0.00000000    0.00000000    0.00000000
     atom   13 type  1   force =     0.00000000    0.00000000    0.00000000
     atom   14 type  2   force =     0.00000000    0.00000000    0.00000000
     atom   15 type  2   force =     0.00000000    0.00000000    0.00000000
     atom   16 type  1   force =     0.00000000    0.00000000    0.00000000
     atom   17 type  2   force =     0.00000000    0.00000000    0.00000000
     atom   18 type  2   force =     0.00000000    0.00000000    0.00000000
     atom   19 type  1   force =     0.00000000    0.00000000    0.00000000
     atom   20 type  2   force =     0.00000000    0.00000000    0.00000000
     atom   21 type  1   force =     0.00000000    0.00000000    0.00000000
     atom   22 type  2   force =     0.00000000    0.00000000    0.00000000
     atom   23 type  2   force =     0.00000000    0.00000000    0.00000000
     atom   24 type  1   force =     0.00000000    0.00000000    0.00000000
     atom   25 type  2   force =     0.00000000    0.00000000    0.00000000
     atom   26 type  2   force =     0.00000000    0.00000000    0.00000000
     atom   27 type  1   force =     0.00000000    0.00000000    0.00000000
     atom   28 type  2   force =     0.00000000    0.00000000    0.00000000
     atom   29 type  2   force =     0.00000000    0.00000000    0.00000000
     atom   30 type  1   force =     0.00000000    0.00000000    0.00000000
     atom   31 type  2   force =     0.00000000    0.00000000    0.00000000
     atom   32 type  2   force =     0.00000000    0.00000000    0.00000000
     atom   33 type  1   force =     0.00000000    0.00000000    0.00000000
     atom   34 type  2   force =     0.00000000    0.00000000    0.00000000
     atom   35 type  2   force =     0.00000000    0.00000000    0.00000000
     atom   36 type  3   force =     0.00000000    0.00000000    0.00000000
     The SCF correction term to forces
     atom    1 type  1   force =     0.00001543   -0.00000620   -0.00105977
     atom    2 type  2   force =    -0.00002932   -0.00013551   -0.00042577
     atom    3 type  2   force =    -0.00004787    0.00002398   -0.00031051
     atom    4 type  1   force =     0.00001582   -0.00009354   -0.00093669
     atom    5 type  2   force =     0.00000793   -0.00001712   -0.00043142
     atom    6 type  2   force =     0.00005928   -0.00007447   -0.00029071
     atom    7 type  1   force =    -0.00007625    0.00001476   -0.00092790
     atom    8 type  2   force =     0.00000998   -0.00001090   -0.00042849
     atom    9 type  2   force =     0.00000589   -0.00001001   -0.00032330
     atom   10 type  1   force =     0.00002421   -0.00007190   -0.00100083
     atom   11 type  2   force =     0.00002073   -0.00001593   -0.00044497
     atom   12 type  2   force =     0.00005159    0.00000839   -0.00030569
     atom   13 type  1   force =     0.00001446   -0.00003696   -0.00091557
     atom   14 type  2   force =     0.00004451    0.00006079   -0.00041082
     atom   15 type  2   force =     0.00008175    0.00003721   -0.00033586
     atom   16 type  1   force =    -0.00000770    0.00007556   -0.00086826
     atom   17 type  2   force =    -0.00001405    0.00004638   -0.00035490
     atom   18 type  2   force =    -0.00004588    0.00001635   -0.00036329
     atom   19 type  1   force =     0.00002387   -0.00002550   -0.00088791
     atom   20 type  2   force =    -0.00001971    0.00005941   -0.00026318
     atom   21 type  1   force =     0.00006941   -0.00006975   -0.00091189
     atom   22 type  2   force =    -0.00003543   -0.00004232   -0.00044630
     atom   23 type  2   force =    -0.00003367   -0.00002774   -0.00030355
     atom   24 type  1   force =    -0.00001517    0.00006138   -0.00109410
     atom   25 type  2   force =    -0.00000635   -0.00001753   -0.00037885
     atom   26 type  2   force =    -0.00003055   -0.00001230   -0.00036767
     atom   27 type  1   force =    -0.00002886    0.00007032   -0.00089273
     atom   28 type  2   force =     0.00000970    0.00005185   -0.00041510
     atom   29 type  2   force =    -0.00002077    0.00001256   -0.00032669
     atom   30 type  1   force =     0.00006760    0.00007529   -0.00089118
     atom   31 type  2   force =     0.00001301    0.00000613   -0.00045916
     atom   32 type  2   force =     0.00001086    0.00001104   -0.00029249
     atom   33 type  1   force =    -0.00010468   -0.00014534   -0.00089092
     atom   34 type  2   force =     0.00001005    0.00000167   -0.00045361
     atom   35 type  2   force =    -0.00001370    0.00001976   -0.00027678
     atom   36 type  3   force =    -0.00002013   -0.00007927   -0.00037485

     Total force =     4.603960     Total SCF correction =     0.003759

     BFGS Geometry Optimization
     Energy error            =      0.0E+00 Ry
     Gradient error          =      2.4E+00 Ry/Bohr

     number of scf cycles    =   1
     number of bfgs steps    =   0

     energy             new  =   -2245.3984559119 Ry

     new trust radius        =       0.5000000000 bohr
     new conv_thr            =       0.0000010000 Ry


ATOMIC_POSITIONS (angstrom)
Mo            6.5743771420        1.7853470404        2.8267889430
S             8.1246704011        1.0021502753        4.2612460390
S             8.1922406667        0.8119302383        1.2774957382
Mo            8.0958194677        4.4953904171        2.7181227089
S             6.4995254483        3.7226786773        4.3459072336
S             6.5535436685        3.5126787261        1.1207629922
Mo            6.4902502692        7.2171576797        2.6712674980
S             8.0818333081        6.3435127866        4.2438905645
S             8.0818896002        6.3051045127        1.0848611116
Mo            8.1576470196        9.9007602119        2.8294473501
S             6.4951214755        8.9423166053        4.3828841436
S             6.6181533977        9.0488650314        1.1408861260
Mo            3.4218936389        1.7473466144        2.7766237259
S             4.9755155557        0.8170876325        4.3514358487
S             5.0570725254        0.8462975628        1.2256795390
Mo            4.9795206693        4.5144092530        2.6333674679
S             3.4282688026        3.6717293404        4.2798667860
S             3.4377210531        3.5477670539        1.0594184753
Mo            3.4539676489        7.2152461378        2.6302538654
S             4.9834568539        6.3266335712        1.0373520567
Mo            5.0119658648        9.9011693300        2.7429026555
S             3.4705082465        8.9436614857        4.3254418882
S             3.4085434147        9.0652159776        1.0967629317
Mo            0.2957702202        1.7469785302        2.8491145535
S             1.8518751478        0.7942959822        4.3988602810
S             1.8598977946        0.8541678856        1.2086897333
Mo            1.8608624414        4.4957649986        2.6606061443
S             0.2724743849        3.6549620092        4.3372541443
S             0.2313200935        3.5277549244        1.1715942343
Mo            0.2713416090        7.2171207345        2.7009388517
S             1.9022711096        6.3129399335        4.2239732457
S             1.8614769314        6.3109555470        1.0451252144
Mo            1.8450154312        9.9396099735        2.7721899276
S             0.2989604242        9.0829258564        4.4120275179
S             0.2762009011        9.0441506325        1.1519260029
O             8.4573832736       -0.1851367583        5.2957820367



     Writing config-only to output data dir ./MoS2-V-O.save/
     NEW-OLD atomic charge density approx. for the potential

     negative rho (up, down):  2.076E-04 0.000E+00

     total cpu time spent up to now is      120.9 secs

     Self-consistent Calculation

     iteration #  1     ecut=    80.00 Ry     beta= 0.70
     Davidson diagonalization with overlap
     c_bands:  1 eigenvalues not converged
     ethr =  1.00E-06,  avg # of iterations = 20.0

     negative rho (up, down):  7.732E-03 0.000E+00

     total cpu time spent up to now is      142.3 secs

     total energy              =   -2246.23715555 Ry
     estimated scf accuracy    <       0.32432966 Ry

     iteration #  2     ecut=    80.00 Ry     beta= 0.70
     Davidson diagonalization with overlap
     ethr =  1.04E-04,  avg # of iterations =  3.0

     negative rho (up, down):  1.400E-02 0.000E+00

     total cpu time spent up to now is      155.7 secs

     total energy              =   -2246.23867980 Ry
     estimated scf accuracy    <       0.10940414 Ry

     iteration #  3     ecut=    80.00 Ry     beta= 0.70
     Davidson diagonalization with overlap
     ethr =  3.51E-05,  avg # of iterations =  3.0

     negative rho (up, down):  1.946E-02 0.000E+00

     total cpu time spent up to now is      169.1 secs

     total energy              =   -2246.24487678 Ry
     estimated scf accuracy    <       0.02367196 Ry

     iteration #  4     ecut=    80.00 Ry     beta= 0.70
     Davidson diagonalization with overlap
     ethr =  7.59E-06,  avg # of iterations =  3.0

     negative rho (up, down):  2.026E-02 0.000E+00

     total cpu time spent up to now is      180.1 secs

     total energy              =   -2246.24605425 Ry
     estimated scf accuracy    <       0.00569663 Ry

     iteration #  5     ecut=    80.00 Ry     beta= 0.70
     Davidson diagonalization with overlap
     ethr =  1.83E-06,  avg # of iterations =  5.0

     negative rho (up, down):  1.920E-02 0.000E+00

     total cpu time spent up to now is      190.9 secs

     total energy              =   -2246.24597163 Ry
     estimated scf accuracy    <       0.00178957 Ry

     iteration #  6     ecut=    80.00 Ry     beta= 0.70
     Davidson diagonalization with overlap
     ethr =  5.74E-07,  avg # of iterations = 10.0

     negative rho (up, down):  1.725E-02 0.000E+00

     total cpu time spent up to now is      202.7 secs

     total energy              =   -2246.24614535 Ry
     estimated scf accuracy    <       0.00053000 Ry

     iteration #  7     ecut=    80.00 Ry     beta= 0.70
     Davidson diagonalization with overlap
     ethr =  1.70E-07,  avg # of iterations =  3.0

     negative rho (up, down):  1.316E-02 0.000E+00

     total cpu time spent up to now is      214.1 secs

     total energy              =   -2246.24609615 Ry
     estimated scf accuracy    <       0.00013281 Ry

     iteration #  8     ecut=    80.00 Ry     beta= 0.70
     Davidson diagonalization with overlap
     ethr =  4.26E-08,  avg # of iterations =  4.0

     negative rho (up, down):  1.034E-02 0.000E+00

     total cpu time spent up to now is      225.1 secs

     total energy              =   -2246.24605976 Ry
     estimated scf accuracy    <       0.00009479 Ry

     iteration #  9     ecut=    80.00 Ry     beta= 0.70
     Davidson diagonalization with overlap
     ethr =  3.04E-08,  avg # of iterations =  2.0

     negative rho (up, down):  5.311E-03 0.000E+00

     total cpu time spent up to now is      235.8 secs

     total energy              =   -2246.24599163 Ry
     estimated scf accuracy    <       0.00003771 Ry

     iteration # 10     ecut=    80.00 Ry     beta= 0.70
     Davidson diagonalization with overlap
     ethr =  1.21E-08,  avg # of iterations =  4.0

     negative rho (up, down):  3.761E-03 0.000E+00

     total cpu time spent up to now is      247.6 secs

     total energy              =   -2246.24597942 Ry
     estimated scf accuracy    <       0.00001478 Ry

     iteration # 11     ecut=    80.00 Ry     beta= 0.70
     Davidson diagonalization with overlap
     ethr =  4.74E-09,  avg # of iterations =  4.0

     negative rho (up, down):  1.786E-03 0.000E+00

     total cpu time spent up to now is      256.3 secs

     total energy              =   -2246.24596454 Ry
     estimated scf accuracy    <       0.00000553 Ry

     iteration # 12     ecut=    80.00 Ry     beta= 0.70
     Davidson diagonalization with overlap
     ethr =  1.77E-09,  avg # of iterations =  5.0

     negative rho (up, down):  9.204E-04 0.000E+00

     total cpu time spent up to now is      267.2 secs

     total energy              =   -2246.24595895 Ry
     estimated scf accuracy    <       0.00000240 Ry

     iteration # 13     ecut=    80.00 Ry     beta= 0.70
     Davidson diagonalization with overlap
     ethr =  7.68E-10,  avg # of iterations =  2.0

     negative rho (up, down):  1.968E-04 0.000E+00

     total cpu time spent up to now is      271.7 secs

     End of self-consistent calculation

          k = 0.0000 0.0000 0.0000 (105382 PWs)   bands (ev):

   -63.0066 -62.9808 -62.9547 -62.9422 -62.9367 -62.9331 -62.9206 -62.8810
   -62.8674 -62.8340 -62.8102 -62.7608 -37.3406 -37.3151 -37.2662 -37.2464
   -37.2306 -37.2173 -37.2091 -37.1866 -37.1669 -37.1590 -37.1546 -37.1422
   -37.1309 -37.1292 -37.1259 -37.1159 -37.1051 -37.0963 -37.0809 -37.0652
   -37.0482 -37.0330 -37.0202 -37.0102 -36.9964 -36.9917 -36.9783 -36.9728
   -36.9671 -36.9503 -36.9257 -36.9118 -36.9003 -36.8715 -36.8350 -36.7446
   -21.6439 -16.0176 -15.3253 -15.2090 -15.0504 -14.9635 -14.8180 -14.7029
   -14.5466 -14.5359 -14.4945 -14.4664 -14.4089 -14.3666 -14.3087 -14.2673
   -14.2011 -14.1849 -14.1017 -14.0478 -13.9263 -13.9206 -13.8864 -13.8393
    -8.2208  -7.9690  -7.8805  -7.5711  -7.4816  -7.3545  -7.2912  -7.2776
    -7.2658  -6.9634  -6.9064  -6.8521  -6.8398  -6.7633  -6.7273  -6.6478
    -6.5554  -6.5017  -6.4519  -6.3840  -6.0869  -6.0799  -6.0045  -5.9638
    -5.8876  -5.8607  -5.8199  -5.7647  -5.7206  -5.7031  -5.6568  -5.6218
    -5.5578  -5.5511  -5.4700  -5.3963  -5.2770  -5.2134  -5.1710  -5.0780
    -5.0766  -4.9931  -4.9395  -4.8088  -4.8020  -4.5946  -4.5423  -4.4231
    -4.3391  -4.3008  -4.2410  -4.1389  -4.0923  -4.0188  -3.9426  -3.8399
    -3.8155  -3.7734  -3.6990  -3.6789  -3.6469  -3.5984  -3.5523  -3.5132
    -3.4959  -3.4659  -3.3681  -3.2741  -3.1623  -3.0590  -3.0111  -2.9528
    -2.8607  -2.8213  -2.7933  -2.7886  -2.7177  -2.6796  -2.5803  -2.3541
    -2.1703  -2.0931  -1.9391  -1.3413  -0.9650  -0.7800  -0.7128  -0.2761
    -0.2529  -0.1412  -0.1084   0.0224   0.0475   0.1221   0.1689   0.2022
     0.2161   0.3377   0.3522   0.3988   0.4577   0.4749   0.5118   0.5609
     0.6313   0.6584   0.7034   0.7352   0.7675   0.7872   0.8370   0.9386
     0.9449   1.1242   1.1868

     the Fermi energy is    -1.1532 ev

!    total energy              =   -2246.24595650 Ry
     estimated scf accuracy    <       0.00000094 Ry
     smearing contrib. (-TS)   =      -0.00166883 Ry
     internal energy E=F+TS    =   -2246.24428767 Ry

     The total energy is F=E-TS. E is the sum of the following terms:
     one-electron contribution =  -18495.46665881 Ry
     hartree contribution      =    9235.71492068 Ry
     xc contribution           =    -392.19122881 Ry
     ewald contribution        =    7415.56291351 Ry
     one-center paw contrib.   =      -9.86423424 Ry

     convergence has been achieved in  13 iterations

     negative rho (up, down):  1.968E-04 0.000E+00

     Forces acting on atoms (cartesian axes, Ry/au):

     atom    1 type  1   force =    -0.05273367   -0.00247458   -0.02734761
     atom    2 type  2   force =     0.05299879   -0.08283585    0.09015161
     atom    3 type  2   force =    -0.01091389    0.00745833   -0.01951018
     atom    4 type  1   force =     0.00729642    0.00241724   -0.00027924
     atom    5 type  2   force =    -0.00507040    0.00710337   -0.00638393
     atom    6 type  2   force =     0.00127932    0.01291758   -0.00508300
     atom    7 type  1   force =     0.00133813   -0.01517938   -0.00423961
     atom    8 type  2   force =     0.00142366   -0.00282379    0.01775448
     atom    9 type  2   force =     0.01278871    0.00510488    0.01015897
     atom   10 type  1   force =    -0.01852342   -0.01216991   -0.07832858
     atom   11 type  2   force =     0.00217757   -0.01037006   -0.01093693
     atom   12 type  2   force =     0.00356562    0.00377924    0.00715687
     atom   13 type  1   force =     0.00489543    0.00657245   -0.00093642
     atom   14 type  2   force =     0.00287858    0.00023648    0.01390741
     atom   15 type  2   force =    -0.01074082   -0.00104063   -0.01421616
     atom   16 type  1   force =     0.00076732    0.01498908    0.00499815
     atom   17 type  2   force =     0.00527621   -0.00001198    0.00330589
     atom   18 type  2   force =    -0.00280145   -0.00637394    0.01265894
     atom   19 type  1   force =     0.00062030   -0.01114875   -0.00459710
     atom   20 type  2   force =     0.00211682   -0.00332710   -0.00004578
     atom   21 type  1   force =    -0.00280248   -0.00576853   -0.00591131
     atom   22 type  2   force =    -0.00572929   -0.00206870   -0.00059320
     atom   23 type  2   force =     0.00192142    0.00153047    0.00647806
     atom   24 type  1   force =     0.02746514    0.01436748   -0.04576658
     atom   25 type  2   force =     0.01420453    0.01787962    0.00697068
     atom   26 type  2   force =    -0.01076731   -0.00355416   -0.00780215
     atom   27 type  1   force =     0.00095792    0.00241691    0.00469233
     atom   28 type  2   force =     0.00585290    0.00988877   -0.00228593
     atom   29 type  2   force =     0.00255518    0.00532871   -0.00434177
     atom   30 type  1   force =     0.00397090   -0.00045299   -0.00827918
     atom   31 type  2   force =    -0.00025022    0.00333137    0.01707412
     atom   32 type  2   force =    -0.00895716    0.00621257    0.00549246
     atom   33 type  1   force =     0.00500694   -0.00264670   -0.00518736
     atom   34 type  2   force =     0.01413415   -0.06045693   -0.02728100
     atom   35 type  2   force =    -0.00893276    0.00817799    0.01572056
     atom   36 type  3   force =    -0.03726910    0.09299146    0.06283248
     The non-local contrib.  to forces
     atom    1 type  1   force =     0.00982955    0.01082954   -0.00865570
     atom    2 type  2   force =     0.07036554   -0.37859306    0.23952181
     atom    3 type  2   force =    -0.01618681    0.00597624    0.25902071
     atom    4 type  1   force =     0.00249311    0.01885703    0.00374470
     atom    5 type  2   force =     0.00177426   -0.03113300   -0.25440255
     atom    6 type  2   force =     0.00388307    0.01732751    0.25847350
     atom    7 type  1   force =    -0.01923928    0.01381954   -0.02362315
     atom    8 type  2   force =     0.00332633   -0.00856153   -0.25366810
     atom    9 type  2   force =     0.00502890   -0.01008128    0.27781694
     atom   10 type  1   force =     0.01140194    0.00272042   -0.00373577
     atom   11 type  2   force =    -0.02277107   -0.01318181   -0.26208296
     atom   12 type  2   force =    -0.00322776   -0.01609576    0.26714328
     atom   13 type  1   force =    -0.00358469    0.02535637   -0.00346441
     atom   14 type  2   force =     0.01662788   -0.00276869   -0.26901229
     atom   15 type  2   force =    -0.01597782   -0.00442581    0.25469419
     atom   16 type  1   force =    -0.00803716    0.03501116   -0.02790389
     atom   17 type  2   force =     0.00345404   -0.03157800   -0.25130157
     atom   18 type  2   force =    -0.00335534   -0.00333715    0.27282906
     atom   19 type  1   force =     0.01512313    0.00550079   -0.01673042
     atom   20 type  2   force =    -0.00075404   -0.02180066    0.26605389
     atom   21 type  1   force =     0.00215988    0.02483178    0.00430142
     atom   22 type  2   force =    -0.01140307    0.00487678   -0.25109801
     atom   23 type  2   force =     0.00468699   -0.01493462    0.26876354
     atom   24 type  1   force =    -0.01260261    0.01205549   -0.00405876
     atom   25 type  2   force =     0.01318802    0.01221940   -0.26534225
     atom   26 type  2   force =     0.00145477   -0.00970265    0.25286897
     atom   27 type  1   force =    -0.00257660    0.01120543    0.01044422
     atom   28 type  2   force =    -0.00325791   -0.02301235   -0.27777201
     atom   29 type  2   force =     0.00380101    0.00357255    0.26254351
     atom   30 type  1   force =     0.00695417    0.03021674    0.01130386
     atom   31 type  2   force =    -0.00934882    0.00375265   -0.25049525
     atom   32 type  2   force =    -0.00271873   -0.01000290    0.27548669
     atom   33 type  1   force =    -0.00002812   -0.00200039    0.00534213
     atom   34 type  2   force =     0.01997760   -0.03071300   -0.24778155
     atom   35 type  2   force =    -0.00632378   -0.00588247    0.27083162
     atom   36 type  3   force =    -0.38546758    1.45072681   -1.12015526
     The ionic contribution  to forces
     atom    1 type  1   force =    -2.39235534    2.12349350    2.39579531
     atom    2 type  2   force =    -1.85005897    4.89286915   33.14137855
     atom    3 type  2   force =    -0.17968792    0.18967755  -37.57042720
     atom    4 type  1   force =     0.01699115    1.49637526   -0.59899499
     atom    5 type  2   force =    -1.41678381    2.27467173   38.57651999
     atom    6 type  2   force =     0.19670424   -0.26941289  -38.68318623
     atom    7 type  1   force =    -3.14354116   -3.65115777    1.25350515
     atom    8 type  2   force =    -1.04393567   -0.38835403   37.16125981
     atom    9 type  2   force =     0.32310793   -0.14710657  -38.57700883
     atom   10 type  1   force =    -1.56457674   -2.57850656   -0.58783907
     atom   11 type  2   force =    -1.94764363   -2.99038967   38.38449574
     atom   12 type  2   force =     0.17799389    0.39597292  -38.73504268
     atom   13 type  1   force =     0.60135423    1.50706132    1.61804570
     atom   14 type  2   force =    -0.88410471    0.23457426   38.22803456
     atom   15 type  2   force =    -0.07926640    0.02607225  -37.57106406
     atom   16 type  1   force =    -0.32835417    4.29821441   -0.43353491
     atom   17 type  2   force =     0.84555616    1.77944639   37.79278749
     atom   18 type  2   force =    -0.14597600   -0.51908093  -39.06398112
     atom   19 type  1   force =     2.78849089   -2.87711808   -0.32192526
     atom   20 type  2   force =     0.16394112   -0.25899041  -38.97419977
     atom   21 type  1   force =    -1.06717723   -0.51149085   -0.51305359
     atom   22 type  2   force =     0.57356091   -2.06269287   38.19966062
     atom   23 type  2   force =    -0.05687177    0.52824817  -38.88601748
     atom   24 type  1   force =     2.00276494    3.10694268    2.30462990
     atom   25 type  2   force =     2.02579211    0.75013974   38.76546699
     atom   26 type  2   force =    -0.02303886    0.16240461  -38.13062624
     atom   27 type  1   force =     0.39043542    0.81361383   -3.19865353
     atom   28 type  2   force =     0.48390904    1.88435850   38.00449868
     atom   29 type  2   force =    -0.13142734   -0.16167546  -37.96354960
     atom   30 type  1   force =     0.10369244   -1.99815407   -1.51641149
     atom   31 type  2   force =     1.42930754   -0.27454486   37.16658956
     atom   32 type  2   force =    -0.40108646   -0.08331803  -39.13389555
     atom   33 type  1   force =     2.26778252   -1.44168179   -0.03876279
     atom   34 type  2   force =     2.06782511   -3.84874592   37.90787606
     atom   35 type  2   force =    -0.07059619    0.18253218  -38.73973546
     atom   36 type  3   force =     0.26727274   -2.58424766   48.33736572
     The local contribution  to forces
     atom    1 type  1   force =     2.32970299   -2.13679245   -2.41540055
     atom    2 type  2   force =     1.83689491   -4.61796504  -33.28518593
     atom    3 type  2   force =     0.18423674   -0.18775212   37.31170204
     atom    4 type  1   force =    -0.01227319   -1.51292873    0.59399285
     atom    5 type  2   force =     1.41039502   -2.23834707  -38.34900429
     atom    6 type  2   force =    -0.19935393    0.26635208   38.43979789
     atom    7 type  1   force =     3.16407244    3.62218448   -1.23507388
     atom    8 type  2   force =     1.04208529    0.39328949  -36.91034067
     atom    9 type  2   force =    -0.31535756    0.16171856   38.32985074
     atom   10 type  1   force =     1.53467644    2.56362576    0.51251284
     atom   11 type  2   force =     1.97117069    2.99270686  -38.15433622
     atom   12 type  2   force =    -0.17188861   -0.37738756   38.49557632
     atom   13 type  1   force =    -0.59288998   -1.52596894   -1.61642772
     atom   14 type  2   force =     0.87142831   -0.23119755  -37.96612288
     atom   15 type  2   force =     0.08364100   -0.02296978   37.32192722
     atom   16 type  1   force =     0.33728271   -4.31828466    0.46547381
     atom   17 type  2   force =    -0.84361472   -1.74961970  -37.55865254
     atom   18 type  2   force =     0.14654159    0.51650284   38.82430091
     atom   19 type  1   force =    -2.80288655    2.86052094    0.33303020
     atom   20 type  2   force =    -0.16120145    0.27654766   38.72872265
     atom   21 type  1   force =     1.06221849    0.48099265    0.50195452
     atom   22 type  2   force =    -0.56826664    2.05641571  -37.96944403
     atom   23 type  2   force =     0.05456907   -0.51294254   38.64409133
     atom   24 type  1   force =    -1.96256902   -3.10462342   -2.34727345
     atom   25 type  2   force =    -2.02452347   -0.74358762  -38.51425574
     atom   26 type  2   force =     0.01114832   -0.15671731   37.88984958
     atom   27 type  1   force =    -0.38692998   -0.82254618    3.19186638
     atom   28 type  2   force =    -0.47514542   -1.85338542  -37.75018013
     atom   29 type  2   force =     0.13059176    0.16402248   37.71669823
     atom   30 type  1   force =    -0.10673907    1.96760706    1.49588895
     atom   31 type  2   force =    -1.42078964    0.27415094  -36.91950860
     atom   32 type  2   force =     0.39498498    0.09890889   38.88438909
     atom   33 type  1   force =    -2.26278133    1.44118350    0.02735595
     atom   34 type  2   force =    -2.07246036    3.81744113  -37.70767431
     atom   35 type  2   force =     0.06786090   -0.16914914   38.50518418
     atom   36 type  3   force =     0.07657994    1.24279813  -47.16520972
     The core correction contribution to forces
     atom    1 type  1   force =     0.00000000    0.00000000    0.00000000
     atom    2 type  2   force =    -0.00416905    0.02084536   -0.00538894
     atom    3 type  2   force =     0.00074412   -0.00037415   -0.02032749
     atom    4 type  1   force =     0.00000000    0.00000000    0.00000000
     atom    5 type  2   force =    -0.00046617    0.00187449    0.02041426
     atom    6 type  2   force =     0.00001010   -0.00135083   -0.02067070
     atom    7 type  1   force =     0.00000000    0.00000000    0.00000000
     atom    8 type  2   force =    -0.00006569    0.00085039    0.02039219
     atom    9 type  2   force =    -0.00000786    0.00058956   -0.02105269
     atom   10 type  1   force =     0.00000000    0.00000000    0.00000000
     atom   11 type  2   force =     0.00141934    0.00058054    0.02103718
     atom   12 type  2   force =     0.00062564    0.00126747   -0.02107146
     atom   13 type  1   force =     0.00000000    0.00000000    0.00000000
     atom   14 type  2   force =    -0.00102019   -0.00042117    0.02097083
     atom   15 type  2   force =     0.00084081    0.00028166   -0.02027275
     atom   16 type  1   force =     0.00000000    0.00000000    0.00000000
     atom   17 type  2   force =    -0.00008303    0.00169404    0.02032981
     atom   18 type  2   force =     0.00002333   -0.00047763   -0.02102374
     atom   19 type  1   force =     0.00000000    0.00000000    0.00000000
     atom   20 type  2   force =     0.00016829    0.00088872   -0.02120176
     atom   21 type  1   force =     0.00000000    0.00000000    0.00000000
     atom   22 type  2   force =     0.00041019   -0.00056977    0.02021171
     atom   23 type  2   force =    -0.00044940    0.00121799   -0.02091815
     atom   24 type  1   force =     0.00000000    0.00000000    0.00000000
     atom   25 type  2   force =    -0.00033462   -0.00091196    0.02107903
     atom   26 type  2   force =    -0.00033262    0.00048525   -0.02038008
     atom   27 type  1   force =     0.00000000    0.00000000    0.00000000
     atom   28 type  2   force =     0.00031374    0.00181227    0.02110005
     atom   29 type  2   force =    -0.00041098   -0.00065343   -0.02055289
     atom   30 type  1   force =     0.00000000    0.00000000    0.00000000
     atom   31 type  2   force =     0.00053543   -0.00000765    0.02037631
     atom   32 type  2   force =    -0.00016454    0.00063374   -0.02108878
     atom   33 type  1   force =     0.00000000    0.00000000    0.00000000
     atom   34 type  2   force =    -0.00123481    0.00164347    0.02037149
     atom   35 type  2   force =     0.00016869    0.00065973   -0.02110237
     atom   36 type  3   force =     0.00438353   -0.01631961    0.01156213
     The Hubbard contrib.    to forces
     atom    1 type  1   force =     0.00000000    0.00000000    0.00000000
     atom    2 type  2   force =     0.00000000    0.00000000    0.00000000
     atom    3 type  2   force =     0.00000000    0.00000000    0.00000000
     atom    4 type  1   force =     0.00000000    0.00000000    0.00000000
     atom    5 type  2   force =     0.00000000    0.00000000    0.00000000
     atom    6 type  2   force =     0.00000000    0.00000000    0.00000000
     atom    7 type  1   force =     0.00000000    0.00000000    0.00000000
     atom    8 type  2   force =     0.00000000    0.00000000    0.00000000
     atom    9 type  2   force =     0.00000000    0.00000000    0.00000000
     atom   10 type  1   force =     0.00000000    0.00000000    0.00000000
     atom   11 type  2   force =     0.00000000    0.00000000    0.00000000
     atom   12 type  2   force =     0.00000000    0.00000000    0.00000000
     atom   13 type  1   force =     0.00000000    0.00000000    0.00000000
     atom   14 type  2   force =     0.00000000    0.00000000    0.00000000
     atom   15 type  2   force =     0.00000000    0.00000000    0.00000000
     atom   16 type  1   force =     0.00000000    0.00000000    0.00000000
     atom   17 type  2   force =     0.00000000    0.00000000    0.00000000
     atom   18 type  2   force =     0.00000000    0.00000000    0.00000000
     atom   19 type  1   force =     0.00000000    0.00000000    0.00000000
     atom   20 type  2   force =     0.00000000    0.00000000    0.00000000
     atom   21 type  1   force =     0.00000000    0.00000000    0.00000000
     atom   22 type  2   force =     0.00000000    0.00000000    0.00000000
     atom   23 type  2   force =     0.00000000    0.00000000    0.00000000
     atom   24 type  1   force =     0.00000000    0.00000000    0.00000000
     atom   25 type  2   force =     0.00000000    0.00000000    0.00000000
     atom   26 type  2   force =     0.00000000    0.00000000    0.00000000
     atom   27 type  1   force =     0.00000000    0.00000000    0.00000000
     atom   28 type  2   force =     0.00000000    0.00000000    0.00000000
     atom   29 type  2   force =     0.00000000    0.00000000    0.00000000
     atom   30 type  1   force =     0.00000000    0.00000000    0.00000000
     atom   31 type  2   force =     0.00000000    0.00000000    0.00000000
     atom   32 type  2   force =     0.00000000    0.00000000    0.00000000
     atom   33 type  1   force =     0.00000000    0.00000000    0.00000000
     atom   34 type  2   force =     0.00000000    0.00000000    0.00000000
     atom   35 type  2   force =     0.00000000    0.00000000    0.00000000
     atom   36 type  3   force =     0.00000000    0.00000000    0.00000000
     The SCF correction term to forces
     atom    1 type  1   force =     0.00008754   -0.00000399    0.00089222
     atom    2 type  2   force =    -0.00003522    0.00000892   -0.00019500
     atom    3 type  2   force =    -0.00002158   -0.00006801    0.00050064
     atom    4 type  1   force =     0.00008378    0.00011485    0.00095709
     atom    5 type  2   force =     0.00000872    0.00003840    0.00006755
     atom    6 type  2   force =     0.00003427    0.00000290    0.00048142
     atom    7 type  1   force =     0.00004455   -0.00002446    0.00093115
     atom    8 type  2   force =     0.00001184   -0.00004694    0.00009014
     atom    9 type  2   force =     0.00001573   -0.00001422    0.00053169
     atom   10 type  1   force =    -0.00002663   -0.00000834    0.00071231
     atom   11 type  2   force =     0.00000067   -0.00008481   -0.00007178
     atom   12 type  2   force =     0.00006089    0.00002335    0.00053030
     atom   13 type  1   force =     0.00001430    0.00012488    0.00088890
     atom   14 type  2   force =    -0.00005429    0.00005081    0.00001607
     atom   15 type  2   force =     0.00002002    0.00000223    0.00047812
     atom   16 type  1   force =    -0.00012563    0.00004936    0.00094202
     atom   17 type  2   force =    -0.00003781    0.00004647    0.00012159
     atom   18 type  2   force =    -0.00003660    0.00002012    0.00051271
     atom   19 type  1   force =    -0.00010876   -0.00005123    0.00100726
     atom   20 type  2   force =    -0.00003868    0.00002876    0.00055809
     atom   21 type  1   force =    -0.00000519   -0.00010093    0.00086522
     atom   22 type  2   force =    -0.00003225   -0.00009737    0.00005540
     atom   23 type  2   force =    -0.00001504   -0.00005735    0.00053770
     atom   24 type  1   force =    -0.00012975   -0.00000609    0.00091461
     atom   25 type  2   force =     0.00008092    0.00002124    0.00000154
     atom   26 type  2   force =    -0.00000051   -0.00002287    0.00046451
     atom   27 type  1   force =     0.00002750    0.00014501    0.00101414
     atom   28 type  2   force =     0.00003188    0.00011695    0.00004636
     atom   29 type  2   force =    -0.00000084    0.00006375    0.00049786
     atom   30 type  1   force =     0.00006178   -0.00012154    0.00091838
     atom   31 type  2   force =     0.00004368   -0.00001853    0.00009099
     atom   32 type  2   force =     0.00002603   -0.00000795    0.00057989
     atom   33 type  1   force =     0.00003229   -0.00014684    0.00085623
     atom   34 type  2   force =     0.00002505   -0.00008143   -0.00009382
     atom   35 type  2   force =    -0.00004395    0.00001887    0.00052147
     atom   36 type  3   force =    -0.00003930    0.00003497   -0.00075150

     Total force =     0.234690     Total SCF correction =     0.003755
     Energy error            =      8.5E-01 Ry
     Gradient error          =      9.3E-02 Ry/Bohr

     number of scf cycles    =   2
     number of bfgs steps    =   1

     energy             old  =   -2245.3984559119 Ry
     energy             new  =   -2246.2459565016 Ry

     CASE: energy            _new < energy            _old

     new trust radius        =       0.1190847628 bohr
     new conv_thr            =       0.0000000930 Ry


ATOMIC_POSITIONS (angstrom)
Mo            6.5470807786        1.7837285858        2.8130785377
S             8.1449141055        0.9858106844        4.2840068441
S             8.1864595638        0.8158823461        1.2673520843
Mo            8.0996834895        4.4966864840        2.7180201990
S             6.4968502849        3.7263891887        4.3425018454
S             6.5542320057        3.5194890392        1.1180629383
Mo            6.4909793067        7.2091310011        2.6689898966
S             8.0825841371        6.3420030521        4.2532696051
S             8.0886375067        6.3078000405        1.0902525736
Mo            8.1476578113        9.8942706122        2.7870075083
S             6.4962413214        8.9368693923        4.3771973015
S             6.6200258581        9.0508407601        1.1447223051
Mo            3.4244576768        1.7507995640        2.7761604369
S             4.9770525073        0.8172301003        4.3587527929
S             5.0514127672        0.8457642506        1.2181924233
Mo            4.9798850109        4.5223308531        2.6360189125
S             3.4310563706        3.6717409981        4.2815981751
S             3.4362447253        3.5444070102        1.0661123281
Mo            3.4543030377        7.2093317265        2.6278180871
S             4.9845822915        6.3248717250        1.0373419206
Mo            5.0104754349        9.8981266491        2.7397768236
S             3.4674832216        8.9425792325        4.3251145198
S             3.4095528644        9.0660386262        1.1002089079
Mo            0.3099305274        1.7543359757        2.8253995468
S             1.8594160120        0.8037635603        4.4025550019
S             1.8542049141        0.8522942155        1.2045566948
Mo            1.8613814219        4.4970285022        2.6630892142
S             0.2755372657        3.6601538356        4.3360264700
S             0.2326538197        3.5305804630        1.1692904198
Mo            0.2734213689        7.2169518184        2.6965527058
S             1.9021462245        6.3146822783        4.2330142064
S             1.8567396389        6.3142528024        1.0480437346
Mo            1.8476970126        9.9381682794        2.7694029806
S             0.3066899890        9.0506848964        4.3976646885
S             0.2715024988        9.0484661780        1.1602663894
O             8.4451831302       -0.1625383167        5.3533285570



     Writing config-only to output data dir ./MoS2-V-O.save/
     NEW-OLD atomic charge density approx. for the potential

     negative rho (up, down):  1.419E-04 0.000E+00

     total cpu time spent up to now is      280.0 secs

     Self-consistent Calculation

     iteration #  1     ecut=    80.00 Ry     beta= 0.70
     Davidson diagonalization with overlap
     ethr =  1.00E-06,  avg # of iterations = 14.0

     negative rho (up, down):  3.221E-04 0.000E+00

     total cpu time spent up to now is      293.5 secs

     total energy              =   -2246.28171505 Ry
     estimated scf accuracy    <       0.00892222 Ry

     iteration #  2     ecut=    80.00 Ry     beta= 0.70
     Davidson diagonalization with overlap
     ethr =  2.86E-06,  avg # of iterations =  4.0

     negative rho (up, down):  4.997E-04 0.000E+00

     total cpu time spent up to now is      306.0 secs

     total energy              =   -2246.28285800 Ry
     estimated scf accuracy    <       0.00329307 Ry

     iteration #  3     ecut=    80.00 Ry     beta= 0.70
     Davidson diagonalization with overlap
     ethr =  1.06E-06,  avg # of iterations =  3.0

     negative rho (up, down):  7.024E-04 0.000E+00

     total cpu time spent up to now is      319.2 secs

     total energy              =   -2246.28311566 Ry
     estimated scf accuracy    <       0.00029221 Ry

     iteration #  4     ecut=    80.00 Ry     beta= 0.70
     Davidson diagonalization with overlap
     ethr =  9.37E-08,  avg # of iterations =  4.0

     negative rho (up, down):  7.620E-04 0.000E+00

     total cpu time spent up to now is      334.7 secs

     total energy              =   -2246.28315864 Ry
     estimated scf accuracy    <       0.00005526 Ry

     iteration #  5     ecut=    80.00 Ry     beta= 0.70
     Davidson diagonalization with overlap
     ethr =  1.77E-08,  avg # of iterations =  5.0

     negative rho (up, down):  7.506E-04 0.000E+00

     total cpu time spent up to now is      348.9 secs

     total energy              =   -2246.28316475 Ry
     estimated scf accuracy    <       0.00002018 Ry

     iteration #  6     ecut=    80.00 Ry     beta= 0.70
     Davidson diagonalization with overlap
     ethr =  6.47E-09,  avg # of iterations =  2.0

     negative rho (up, down):  6.853E-04 0.000E+00

     total cpu time spent up to now is      362.1 secs

     total energy              =   -2246.28316662 Ry
     estimated scf accuracy    <       0.00000432 Ry

     iteration #  7     ecut=    80.00 Ry     beta= 0.70
     Davidson diagonalization with overlap
     ethr =  1.39E-09,  avg # of iterations =  6.0

     negative rho (up, down):  5.771E-04 0.000E+00

     total cpu time spent up to now is      372.4 secs

     total energy              =   -2246.28316721 Ry
     estimated scf accuracy    <       0.00000116 Ry

     iteration #  8     ecut=    80.00 Ry     beta= 0.70
     Davidson diagonalization with overlap
     ethr =  3.71E-10,  avg # of iterations =  4.0

     negative rho (up, down):  4.217E-04 0.000E+00

     total cpu time spent up to now is      386.1 secs

     total energy              =   -2246.28316719 Ry
     estimated scf accuracy    <       0.00000059 Ry

     iteration #  9     ecut=    80.00 Ry     beta= 0.70
     Davidson diagonalization with overlap
     ethr =  1.90E-10,  avg # of iterations =  2.0

     negative rho (up, down):  3.465E-04 0.000E+00

     total cpu time spent up to now is      399.3 secs

     total energy              =   -2246.28316719 Ry
     estimated scf accuracy    <       0.00000011 Ry

     iteration # 10     ecut=    80.00 Ry     beta= 0.70
     Davidson diagonalization with overlap
     ethr =  3.42E-11,  avg # of iterations =  5.0

     negative rho (up, down):  1.989E-04 0.000E+00

     total cpu time spent up to now is      404.6 secs

     End of self-consistent calculation

          k = 0.0000 0.0000 0.0000 (105382 PWs)   bands (ev):

   -63.0243 -62.9968 -62.9728 -62.9600 -62.9545 -62.9456 -62.8928 -62.8895
   -62.8685 -62.8554 -62.8420 -62.7793 -37.3414 -37.3142 -37.2778 -37.2663
   -37.2503 -37.2313 -37.2151 -37.2033 -37.1847 -37.1685 -37.1577 -37.1529
   -37.1458 -37.1379 -37.1314 -37.1228 -37.1079 -37.0986 -37.0769 -37.0708
   -37.0542 -37.0412 -37.0308 -37.0257 -37.0115 -37.0091 -36.9983 -36.9960
   -36.9901 -36.9666 -36.9473 -36.9171 -36.9042 -36.8882 -36.8532 -36.7707
   -21.5837 -16.0318 -15.3124 -15.2207 -15.0599 -14.9771 -14.8309 -14.6464
   -14.5614 -14.5440 -14.5152 -14.4888 -14.4172 -14.3858 -14.3110 -14.2764
   -14.2167 -14.2054 -14.1199 -14.0348 -13.9551 -13.9328 -13.8962 -13.8254
    -8.0681  -7.8947  -7.7976  -7.5543  -7.5017  -7.3784  -7.3011  -7.2939
    -7.2776  -6.9725  -6.9203  -6.8705  -6.8574  -6.7722  -6.7268  -6.6548
    -6.5713  -6.5242  -6.4647  -6.3848  -6.0948  -6.0910  -6.0156  -5.9677
    -5.8958  -5.8780  -5.8298  -5.7868  -5.7486  -5.7263  -5.6693  -5.6335
    -5.5730  -5.5642  -5.4702  -5.4008  -5.2788  -5.2063  -5.1751  -5.0990
    -5.0875  -5.0025  -4.9536  -4.8149  -4.7959  -4.6080  -4.5473  -4.4196
    -4.3504  -4.3253  -4.2675  -4.1647  -4.1002  -4.0377  -3.9527  -3.8628
    -3.8380  -3.7874  -3.7095  -3.6922  -3.6575  -3.6085  -3.5713  -3.5267
    -3.5009  -3.4810  -3.3579  -3.2816  -3.1445  -3.0526  -3.0131  -2.9649
    -2.8784  -2.8362  -2.8046  -2.8024  -2.7404  -2.6911  -2.5974  -2.3664
    -2.1949  -2.1056  -1.9677  -1.4492  -0.9544  -0.8000  -0.7092  -0.2819
    -0.2549  -0.1591  -0.1273   0.0154   0.0376   0.1053   0.1449   0.1975
     0.2128   0.3380   0.3411   0.4060   0.4540   0.4741   0.5003   0.5652
     0.6257   0.6515   0.6774   0.7075   0.7597   0.7787   0.8554   0.9159
     0.9253   1.0566   1.1613

     the Fermi energy is    -1.2018 ev

!    total energy              =   -2246.28316719 Ry
     estimated scf accuracy    <       0.00000004 Ry
     smearing contrib. (-TS)   =      -0.00041401 Ry
     internal energy E=F+TS    =   -2246.28275318 Ry

     The total energy is F=E-TS. E is the sum of the following terms:
     one-electron contribution =  -18481.23743006 Ry
     hartree contribution      =    9228.52423885 Ry
     xc contribution           =    -392.15749305 Ry
     ewald contribution        =    7408.45119743 Ry
     one-center paw contrib.   =      -9.86326636 Ry

     convergence has been achieved in  10 iterations

     negative rho (up, down):  1.989E-04 0.000E+00

     Forces acting on atoms (cartesian axes, Ry/au):

     atom    1 type  1   force =    -0.01529780   -0.00314952   -0.00341300
     atom    2 type  2   force =     0.03731101   -0.09584829    0.05937856
     atom    3 type  2   force =    -0.01250659    0.01126517   -0.01890741
     atom    4 type  1   force =     0.00501832   -0.00011611    0.00176954
     atom    5 type  2   force =    -0.00411664    0.00263006   -0.00744860
     atom    6 type  2   force =    -0.00114146    0.01164458   -0.00423449
     atom    7 type  1   force =     0.00053274   -0.01027818   -0.00099392
     atom    8 type  2   force =     0.00216995   -0.00338795    0.01232632
     atom    9 type  2   force =     0.01086602    0.00380411    0.00635623
     atom   10 type  1   force =    -0.00775596   -0.00057110   -0.04356451
     atom   11 type  2   force =     0.00492880   -0.00532638   -0.01415188
     atom   12 type  2   force =    -0.00465242   -0.00343208   -0.00388394
     atom   13 type  1   force =     0.00266102   -0.00044942    0.00014410
     atom   14 type  2   force =     0.00108460   -0.00119252    0.00864440
     atom   15 type  2   force =    -0.01424943   -0.00296403   -0.01529101
     atom   16 type  1   force =    -0.00100215    0.01245099    0.00316198
     atom   17 type  2   force =     0.00496679    0.00191020    0.00294266
     atom   18 type  2   force =    -0.00117937   -0.00281336    0.01017533
     atom   19 type  1   force =     0.00047067   -0.00881319   -0.00019143
     atom   20 type  2   force =     0.00167259   -0.00306341   -0.00298854
     atom   21 type  1   force =    -0.00115629   -0.00021866    0.00135117
     atom   22 type  2   force =    -0.00389809   -0.00199353   -0.00344606
     atom   23 type  2   force =     0.00120315   -0.00075163    0.00332229
     atom   24 type  1   force =     0.01147973    0.00779604   -0.01872178
     atom   25 type  2   force =     0.00965750    0.01464743   -0.00055163
     atom   26 type  2   force =    -0.00360968   -0.00349427   -0.00992749
     atom   27 type  1   force =     0.00068088    0.00339295    0.00530861
     atom   28 type  2   force =     0.00477070    0.00477447   -0.00498909
     atom   29 type  2   force =     0.00382304    0.00785132   -0.00808701
     atom   30 type  1   force =     0.00275658   -0.00276935   -0.00103654
     atom   31 type  2   force =     0.00039680    0.00120254    0.01166339
     atom   32 type  2   force =    -0.00638734    0.00449271    0.00346487
     atom   33 type  1   force =     0.00302343    0.00036016    0.00061082
     atom   34 type  2   force =     0.00142401   -0.04000525   -0.02768550
     atom   35 type  2   force =    -0.00269407    0.00456062    0.00345967
     atom   36 type  3   force =    -0.03125102    0.09785489    0.05543387
     The non-local contrib.  to forces
     atom    1 type  1   force =     0.00233710    0.01323579   -0.01135184
     atom    2 type  2   force =     0.05584683   -0.35543700    0.22728423
     atom    3 type  2   force =    -0.01579342    0.00516316    0.26437930
     atom    4 type  1   force =     0.00318832    0.01734143    0.00242978
     atom    5 type  2   force =     0.00338718   -0.03377651   -0.25527177
     atom    6 type  2   force =     0.00086422    0.01507037    0.26080431
     atom    7 type  1   force =    -0.01811272    0.01368063   -0.02529118
[...]
     atom   28 type  2   force =    -0.00033808   -0.01344876   -0.27783871
     atom   29 type  2   force =    -0.00061634   -0.00780472    0.26675902
     atom   30 type  1   force =     0.00473402    0.01771523    0.00442855
     atom   31 type  2   force =    -0.00903726   -0.00066919   -0.26740337
     atom   32 type  2   force =     0.00707274   -0.01232979    0.26907947
     atom   33 type  1   force =    -0.00288125    0.00646846    0.00270166
     atom   34 type  2   force =    -0.00185556   -0.00631994   -0.27841037
     atom   35 type  2   force =    -0.00003732   -0.01333541    0.26541317
     atom   36 type  3   force =    -0.01875319    0.00217871   -2.31805227
     The ionic contribution  to forces
     atom    1 type  1   force =    -1.15285390    1.24757570   -1.47102707
     atom    2 type  2   force =    -0.25983880   -0.01991717   28.62754672
     atom    3 type  2   force =     0.03941030   -0.09192462  -38.19943573
     atom    4 type  1   force =    -0.13701738    1.20580565   -0.76553047
     atom    5 type  2   force =    -1.31104471    2.10308692   37.81653769
     atom    6 type  2   force =     0.16958935   -0.18209857  -38.76811069
     atom    7 type  1   force =    -2.78890137   -2.34168855    1.85738801
     atom    8 type  2   force =    -1.15925690    0.17154315   37.92480758
     atom    9 type  2   force =     0.33112563   -0.00246826  -38.27498193
     atom   10 type  1   force =    -0.49307642   -1.56566185   -1.19852316
     atom   11 type  2   force =    -1.00072413   -2.27987652   37.93711443
     atom   12 type  2   force =     0.11993446    0.22194148  -38.69389309
     atom   13 type  1   force =     0.17953195    1.04257864    1.36796192
     atom   14 type  2   force =    -0.96606296   -0.13871477   37.86042665
     atom   15 type  2   force =    -0.04949671   -0.12277369  -38.30555126
     atom   16 type  1   force =    -0.37593335    3.82110128    1.27174064
     atom   17 type  2   force =     0.81308190    1.42224587   38.09878942
     atom   18 type  2   force =    -0.19004232   -0.24519334  -38.36330828
     atom   19 type  1   force =     2.63010374   -2.01043504    1.90081477
     atom   20 type  2   force =    -0.04341725   -0.04007068  -39.08212421
     atom   21 type  1   force =    -0.53373969   -0.78387261   -0.60271442
     atom   22 type  2   force =     0.44636164   -1.67171070   38.22774545
     atom   23 type  2   force =    -0.19485152    0.20425887  -38.39950907
     atom   24 type  1   force =     0.97593519    0.96309051   -1.84639440
     atom   25 type  2   force =     1.16840204   -0.01404106   38.14265834
     atom   26 type  2   force =     0.01066084   -0.08651938  -38.31069600
     atom   27 type  1   force =     0.52703149    0.84582685   -0.27549780
     atom   28 type  2   force =     0.50021898    1.51509359   37.60554893
     atom   29 type  2   force =     0.01349586    0.09348716  -38.43093478
     atom   30 type  1   force =     0.16851424   -1.14473769    0.93893091
     atom   31 type  2   force =     1.28232546    0.15971289   38.09994454
     atom   32 type  2   force =    -0.28665137   -0.02279316  -38.33713410
     atom   33 type  1   force =     1.02309652   -0.96096950    1.28021479
     atom   34 type  2   force =     0.58035092   -1.43507929   38.21785862
     atom   35 type  2   force =     0.08483324    0.05510485  -38.32563964
     atom   36 type  3   force =    -0.12109495    0.08809303   50.47497670
     The local contribution  to forces
     atom    1 type  1   force =     1.14375908   -1.25906471    1.45909436
     atom    2 type  2   force =     0.25366725    0.01523306  -28.91296174
     atom    3 type  2   force =    -0.03714784    0.10220574   37.94277410
     atom    4 type  1   force =     0.13279929   -1.20880290    0.76302174
     atom    5 type  2   force =     1.30695904   -2.08282561  -37.57928252
     atom    6 type  2   force =    -0.16920643    0.18429610   38.52405716
     atom    7 type  1   force =     2.80809940    2.34173436   -1.83075775
     atom    8 type  2   force =     1.15289822   -0.17195392  -37.67754557
     atom    9 type  2   force =    -0.32518022    0.01550655   38.02425028
     atom   10 type  1   force =     0.49093264    1.54855928    1.17943075
     atom   11 type  2   force =     0.99425427    2.27946921  -37.69526964
     atom   12 type  2   force =    -0.11292136   -0.20898405   38.45058476
     atom   13 type  1   force =    -0.18092042   -1.06740136   -1.37017418
     atom   14 type  2   force =     0.96628343    0.14282698  -37.60723844
     atom   15 type  2   force =     0.04998258    0.13272594   38.06594010
     atom   16 type  1   force =     0.37635121   -3.85594703   -1.23670620
     atom   17 type  2   force =    -0.80909858   -1.39904615  -37.86156679
     atom   18 type  2   force =     0.19002247    0.25087222   38.11616756
     atom   19 type  1   force =    -2.64456181    2.00571161   -1.87566175
     atom   20 type  2   force =     0.04391157    0.05252759   38.84098728
     atom   21 type  1   force =     0.53334649    0.75510872    0.59979334
     atom   22 type  2   force =    -0.44152513    1.67093365  -37.98651349
     atom   23 type  2   force =     0.18741934   -0.19155153   38.15462575
     atom   24 type  1   force =    -0.96733157   -0.97048829    1.82593981
     atom   25 type  2   force =    -1.16952926    0.02048809  -37.89137559
     atom   26 type  2   force =    -0.01379850    0.09628117   38.06750368
     atom   27 type  1   force =    -0.52443312   -0.85238139    0.26983002
     atom   28 type  2   force =    -0.50039389   -1.50272095  -37.34952219
     atom   29 type  2   force =    -0.01357235   -0.08603927   38.18504760
     atom   30 type  1   force =    -0.17325003    1.12769627   -0.94279159
     atom   31 type  2   force =    -1.27374027   -0.16032088  -37.85308395
     atom   32 type  2   force =     0.28047495    0.03457498   38.08896319
     atom   33 type  1   force =    -1.01984385    0.95460657   -1.28248670
     atom   34 type  2   force =    -0.57838755    1.44159013  -37.96015435
     atom   35 type  2   force =    -0.08416879   -0.04243048   38.08132849
     atom   36 type  3   force =     0.13955769   -0.08929674  -48.18352220
     The core correction contribution to forces
     atom    1 type  1   force =     0.00000000    0.00000000    0.00000000
     atom    2 type  2   force =    -0.00032401   -0.00018658   -0.00991453
     atom    3 type  2   force =     0.00012955    0.00048714   -0.02136577
     atom    4 type  1   force =     0.00000000    0.00000000    0.00000000
     atom    5 type  2   force =    -0.00037145    0.00096444    0.02069493
     atom    6 type  2   force =     0.00011708   -0.00020556   -0.02085585
     atom    7 type  1   force =     0.00000000    0.00000000    0.00000000
     atom    8 type  2   force =    -0.00030334    0.00026829    0.02095615
     atom    9 type  2   force =     0.00059517    0.00073360   -0.02102182
     atom   10 type  1   force =     0.00000000    0.00000000    0.00000000
     atom   11 type  2   force =    -0.00015393   -0.00020491    0.02093610
     atom   12 type  2   force =     0.00062788    0.00092823   -0.02086478
     atom   13 type  1   force =     0.00000000    0.00000000    0.00000000
     atom   14 type  2   force =     0.00004091   -0.00019997    0.02140224
     atom   15 type  2   force =     0.00003456    0.00044022   -0.02060250
     atom   16 type  1   force =     0.00000000    0.00000000    0.00000000
     atom   17 type  2   force =     0.00038409    0.00105239    0.02059358
     atom   18 type  2   force =    -0.00008806   -0.00020010   -0.02090118
     atom   19 type  1   force =     0.00000000    0.00000000    0.00000000
     atom   20 type  2   force =     0.00005039    0.00058587   -0.02121642
     atom   21 type  1   force =     0.00000000    0.00000000    0.00000000
     atom   22 type  2   force =     0.00005476   -0.00029965    0.02074889
     atom   23 type  2   force =    -0.00068416    0.00091707   -0.02091072
     atom   24 type  1   force =     0.00000000    0.00000000    0.00000000
     atom   25 type  2   force =    -0.00011062    0.00019309    0.02133033
     atom   26 type  2   force =    -0.00019388    0.00039709   -0.02076371
     atom   27 type  1   force =     0.00000000    0.00000000    0.00000000
     atom   28 type  2   force =    -0.00002581    0.00086439    0.02147336
     atom   29 type  2   force =    -0.00001494    0.00028310   -0.02080580
     atom   30 type  1   force =     0.00000000    0.00000000    0.00000000
     atom   31 type  2   force =     0.00044073    0.00030083    0.02098680
     atom   32 type  2   force =    -0.00065122    0.00064224   -0.02099904
     atom   33 type  1   force =     0.00000000    0.00000000    0.00000000
     atom   34 type  2   force =     0.00010295    0.00026835    0.02159946
     atom   35 type  2   force =     0.00004208    0.00078461   -0.02090706
     atom   36 type  3   force =     0.00019939   -0.00004500    0.02460048
     The Hubbard contrib.    to forces
     atom    1 type  1   force =     0.00000000    0.00000000    0.00000000
     atom    2 type  2   force =     0.00000000    0.00000000    0.00000000
     atom    3 type  2   force =     0.00000000    0.00000000    0.00000000
     atom    4 type  1   force =     0.00000000    0.00000000    0.00000000
     atom    5 type  2   force =     0.00000000    0.00000000    0.00000000
     atom    6 type  2   force =     0.00000000    0.00000000    0.00000000
     atom    7 type  1   force =     0.00000000    0.00000000    0.00000000
     atom    8 type  2   force =     0.00000000    0.00000000    0.00000000
     atom    9 type  2   force =     0.00000000    0.00000000    0.00000000
     atom   10 type  1   force =     0.00000000    0.00000000    0.00000000
     atom   11 type  2   force =     0.00000000    0.00000000    0.00000000
     atom   12 type  2   force =     0.00000000    0.00000000    0.00000000
     atom   13 type  1   force =     0.00000000    0.00000000    0.00000000
     atom   14 type  2   force =     0.00000000    0.00000000    0.00000000
     atom   15 type  2   force =     0.00000000    0.00000000    0.00000000
     atom   16 type  1   force =     0.00000000    0.00000000    0.00000000
     atom   17 type  2   force =     0.00000000    0.00000000    0.00000000
     atom   18 type  2   force =     0.00000000    0.00000000    0.00000000
     atom   19 type  1   force =     0.00000000    0.00000000    0.00000000
     atom   20 type  2   force =     0.00000000    0.00000000    0.00000000
     atom   21 type  1   force =     0.00000000    0.00000000    0.00000000
     atom   22 type  2   force =     0.00000000    0.00000000    0.00000000
     atom   23 type  2   force =     0.00000000    0.00000000    0.00000000
     atom   24 type  1   force =     0.00000000    0.00000000    0.00000000
     atom   25 type  2   force =     0.00000000    0.00000000    0.00000000
     atom   26 type  2   force =     0.00000000    0.00000000    0.00000000
     atom   27 type  1   force =     0.00000000    0.00000000    0.00000000
     atom   28 type  2   force =     0.00000000    0.00000000    0.00000000
     atom   29 type  2   force =     0.00000000    0.00000000    0.00000000
     atom   30 type  1   force =     0.00000000    0.00000000    0.00000000
     atom   31 type  2   force =     0.00000000    0.00000000    0.00000000
     atom   32 type  2   force =     0.00000000    0.00000000    0.00000000
     atom   33 type  1   force =     0.00000000    0.00000000    0.00000000
     atom   34 type  2   force =     0.00000000    0.00000000    0.00000000
     atom   35 type  2   force =     0.00000000    0.00000000    0.00000000
     atom   36 type  3   force =     0.00000000    0.00000000    0.00000000
     The SCF correction term to forces
     atom    1 type  1   force =    -0.00004954    0.00003170    0.00001801
     atom    2 type  2   force =     0.00000418    0.00000204    0.00003062
     atom    3 type  2   force =     0.00000265   -0.00001034   -0.00001168
     atom    4 type  1   force =    -0.00000318    0.00001634    0.00000156
     atom    5 type  2   force =    -0.00001750    0.00000514    0.00000645
     atom    6 type  2   force =    -0.00000498    0.00001043    0.00001354
     atom    7 type  1   force =    -0.00000576   -0.00000792   -0.00000689
     atom    8 type  2   force =     0.00000073   -0.00000927    0.00000174
     atom    9 type  2   force =     0.00000179    0.00000509   -0.00001087
     atom   10 type  1   force =     0.00001082   -0.00005059   -0.00004314
     atom   11 type  2   force =    -0.00001009   -0.00000144    0.00000466
     atom   12 type  2   force =     0.00000313   -0.00000160   -0.00000601
     atom   13 type  1   force =    -0.00000201    0.00000657    0.00002490
     atom   14 type  2   force =    -0.00001423    0.00001613    0.00000288
     atom   15 type  2   force =    -0.00000980   -0.00000183    0.00001179
     atom   16 type  1   force =    -0.00001861    0.00002456    0.00002778
     atom   17 type  2   force =     0.00000311    0.00000268    0.00000708
     atom   18 type  2   force =    -0.00000315    0.00000977    0.00002042
     atom   19 type  1   force =    -0.00001091   -0.00002182   -0.00002221
     atom   20 type  2   force =    -0.00001557    0.00000373    0.00000674
     atom   21 type  1   force =    -0.00001172   -0.00001352   -0.00000459
     atom   22 type  2   force =    -0.00000410    0.00000086   -0.00000405
     atom   23 type  2   force =    -0.00000372   -0.00001392   -0.00000216
     atom   24 type  1   force =     0.00005784    0.00003008    0.00001263
     atom   25 type  2   force =     0.00001097    0.00001028   -0.00000076
     atom   26 type  2   force =     0.00000697   -0.00000093    0.00001355
     atom   27 type  1   force =     0.00001395    0.00000726    0.00001887
     atom   28 type  2   force =     0.00001630    0.00000224    0.00000293
     atom   29 type  2   force =     0.00000938    0.00000817    0.00001203
     atom   30 type  1   force =     0.00001360   -0.00000490   -0.00001032
     atom   31 type  2   force =     0.00001019   -0.00001134   -0.00000751
     atom   32 type  2   force =     0.00001465    0.00000868    0.00000039
     atom   33 type  1   force =     0.00001358   -0.00001377    0.00000197
     atom   34 type  2   force =     0.00001207   -0.00000066    0.00000185
     atom   35 type  2   force =     0.00000005   -0.00001050   -0.00000386
     atom   36 type  3   force =     0.00001064   -0.00001730    0.00004456

     Total force =     0.007130     Total SCF correction =     0.000163
     Energy error            =      8.7E-05 Ry
     Gradient error          =      3.0E-03 Ry/Bohr

     bfgs converged in  26 scf cycles and  25 bfgs steps
     (criteria: energy <  1.0E-04 Ry, force <  1.0E-02 Ry/Bohr)

     End of BFGS Geometry Optimization

     Final energy             =   -2246.4498191659 Ry

     File ./MoS2-V-O.bfgs deleted, as requested
Begin final coordinates

ATOMIC_POSITIONS (angstrom)
Mo            6.5484874825        1.7554823565        2.7385844445
S             8.1437485578        0.8269043631        4.2592072426
S             8.1495595367        0.8269482625        1.1734974301
Mo            8.1297997800        4.4700232443        2.7088972206
S             6.5253773504        3.6485317431        4.3112666329
S             6.5532739046        3.5632199374        1.0969515832
Mo            6.5184970312        7.1615362985        2.6658361449
S             8.0944014510        6.2812391728        4.2955898349
S             8.1453471949        6.3036719101        1.1126143362
Mo            8.1463428502        9.8853983556        2.7457038223
S             6.5295670053        8.9228618922        4.3182595236
S             6.5884019699        8.9939057671        1.1084407347
Mo            3.4353098399        1.7222298503        2.7541424445
S             5.0081075968        0.7899712072        4.3361586283
S             4.9946683237        0.8104156722        1.1515056874
Mo            5.0009918773        4.5228675236        2.6572919079
S             3.4731379353        3.6383035972        4.3094866319
S             3.4467852459        3.5376948349        1.1137092626
Mo            3.4804890466        7.1599801906        2.6632566025
S             5.0006437015        6.2930454872        1.0395167146
Mo            5.0040856978        9.8824646559        2.7178307387
S             3.4751018287        8.9267441003        4.3147363822
S             3.4047212501        9.0036300239        1.1172327734
Mo            0.2984293480        1.7447116936        2.7440951094
S             1.8580945941        0.8262567144        4.3586801462
S             1.8669622880        0.8135600604        1.1589085124
Mo            1.8752845305        4.4747170965        2.7096805325
S             0.2774558931        3.5890997855        4.3176324648
S             0.2794911064        3.5584301529        1.1301952616
Mo            0.2796998069        7.1949840680        2.7304973318
S             1.9168004234        6.2850660589        4.2985693042
S             1.8604443768        6.3015129858        1.1093829618
Mo            1.8566887592        9.9134730092        2.7579270953
S             0.2717805727        9.0017371931        4.3544206382
S             0.2842644064        9.0171094252        1.1516896160
O             8.1561133372        0.8332177205        5.7593518776
End final coordinates



     Writing all to output data dir ./MoS2-V-O.save/
 
     init_run     :      4.56s CPU      5.09s WALL (       1 calls)
     electrons    :   2526.41s CPU   2944.09s WALL (      26 calls)
     update_pot   :     81.97s CPU     89.15s WALL (      25 calls)
     forces       :     81.63s CPU     97.42s WALL (      26 calls)

     Called by init_run:
     wfcinit      :      0.48s CPU      0.54s WALL (       1 calls)
     potinit      :      2.34s CPU      2.58s WALL (       1 calls)
     hinit0       :      0.44s CPU      0.47s WALL (       1 calls)

     Called by electrons:
     c_bands      :    373.97s CPU    384.61s WALL (     246 calls)
     sum_band     :    155.60s CPU    240.40s WALL (     246 calls)
     v_of_rho     :    324.23s CPU    406.04s WALL (     263 calls)
     newd         :     93.88s CPU    161.39s WALL (     263 calls)
     PAW_pot      :     10.44s CPU     10.50s WALL (     288 calls)
     mix_rho      :   1601.09s CPU   1780.99s WALL (     246 calls)

     Called by c_bands:
     init_us_2    :      5.65s CPU      6.07s WALL (     518 calls)
     init_us_2:cp :      5.64s CPU      6.07s WALL (     518 calls)
     regterg      :    355.58s CPU    365.77s WALL (     246 calls)

     Called by *egterg:
     rdiaghg      :     22.76s CPU     22.99s WALL (    1296 calls)
     h_psi        :    222.15s CPU    224.11s WALL (    1331 calls)
     s_psi        :     20.12s CPU     20.18s WALL (    1331 calls)
     g_psi        :      2.84s CPU      2.86s WALL (    1084 calls)

     Called by h_psi:
     h_psi:calbec :     23.69s CPU     23.84s WALL (    1331 calls)
     vloc_psi     :    174.90s CPU    176.55s WALL (    1331 calls)
     add_vuspsi   :     20.41s CPU     20.53s WALL (    1331 calls)

     General routines
     calbec       :     34.35s CPU     34.58s WALL (    1706 calls)
     fft          :    222.78s CPU    248.54s WALL (   17559 calls)
     ffts         :    715.47s CPU    888.68s WALL (  393808 calls)
     fftw         :    114.02s CPU    115.00s WALL (  150002 calls)
     interpolate  :      3.28s CPU      3.76s WALL (     263 calls)
 
     Parallel routines
 
     PWSCF        :  45m 7.11s CPU  52m36.32s WALL

 
   This run was terminated on:  23:24:51   1Nov2023            

=------------------------------------------------------------------------------=
   JOB DONE.
=------------------------------------------------------------------------------=
