
     Program PWSCF v.7.2 starts on  1Nov2023 at 16:18: 3 

     This program is part of the open-source Quantum ESPRESSO suite
     for quantum simulation of materials; please cite
         "P. Giannozzi et al., J. Phys.:Condens. Matter 21 395502 (2009);
         "P. Giannozzi et al., J. Phys.:Condens. Matter 29 465901 (2017);
         "P. Giannozzi et al., J. Chem. Phys. 152 154105 (2020);
          URL http://www.quantum-espresso.org", 
     in publications or presentations arising from this work. More details at
     http://www.quantum-espresso.org/quote

     Parallel version (MPI & OpenMP), running on      48 processor cores
     Number of MPI processes:                48
     Threads/MPI process:                     1

     MPI processes distributed on     1 nodes
     153216 MiB available memory on the printing compute node when the environment starts
 
     Waiting for input...
     Reading input from standard input
Warning: card &CELL ignored
Warning: card CELL_DYNAMICS = 'BFGS', ignored
Warning: card CELL_DOFREE = '2DXY' ignored
Warning: card / ignored

     Current dimensions of program PWSCF are:
     Max number of different atomic species (ntypx) = 10
     Max number of k-points (npk) =  40000
     Max angular momentum in pseudopotentials (lmaxx) =  4
     file O.pbe-n-kjpaw_psl.0.1.UPF: wavefunction(s)  2P renormalized

     IMPORTANT: XC functional enforced from input :
     Exchange-correlation= RVV10
                           (   1   4  13   4  26   0   0)
     Any further DFT definition will be discarded
     Please, verify this is what you really want


     gamma-point specific algorithms are used
     signal trapping enabled: kill the code with -SIGUSR1 to stop cleanly the simulation 
 
     R & G space division:  proc/nbgrp/npool/nimage =      48
     Subspace diagonalization in iterative solution of the eigenvalue problem:
     one sub-group per band group will be used
     scalapack distributed-memory algorithm (size of sub-group:  2*  2 procs)

 
     Parallelization info
     --------------------
     sticks:   dense  smooth     PW     G-vecs:    dense   smooth      PW
     Min         396     194     47               101632    35090    4376
     Max         398     196     50               101674    35128    4410
     Sum       19091    9389   2349              4879585  1685513  210763
 
     Using Slab Decomposition
 


     bravais-lattice index     =            0
     lattice parameter (alat)  =      17.8707  a.u.
     unit-cell volume          =   17436.2743 (a.u.)^3
     number of atoms/cell      =           36
     number of atomic types    =            3
     number of electrons       =       312.00
     number of Kohn-Sham states=          187
     kinetic-energy cutoff     =      80.0000  Ry
     charge density cutoff     =     650.0000  Ry
     scf convergence threshold =      1.0E-06
     mixing beta               =       0.7000
     number of iterations used =            8  local-TF  mixing
     energy convergence thresh.=      1.0E-04
     force convergence thresh. =      1.0E-02
     Exchange-correlation= RVV10
                           (   1   4  13   4  26   0   0)
     nstep                     =          200


     celldm(1)=  17.870686  celldm(2)=   0.000000  celldm(3)=   0.000000
     celldm(4)=   0.000000  celldm(5)=   0.000000  celldm(6)=   0.000000

     crystal axes: (cart. coord. in units of alat)
               a(1) = (   1.000000   0.000000   0.000000 )  
               a(2) = (   0.000000   1.155671   0.000000 )  
               a(3) = (   0.000000   0.000000   2.643601 )  

     reciprocal axes: (cart. coord. in units 2 pi/alat)
               b(1) = (  1.000000  0.000000  0.000000 )  
               b(2) = (  0.000000  0.865298  0.000000 )  
               b(3) = (  0.000000  0.000000  0.378272 )  


     PseudoPot. # 1 for Mo read from file:
     ../pseudo/Mo_ONCV_PBE-1.0.oncvpsp.upf
     MD5 check sum: 1b5d28e075c9ccadda658a603575cd1f
     Pseudo is Norm-conserving, Zval = 14.0
     Generated using ONCVPSP code by D. R. Hamann
     Using radial grid of 1526 points,  6 beta functions with: 
                l(1) =   0
                l(2) =   0
                l(3) =   1
                l(4) =   1
                l(5) =   2
                l(6) =   2

     PseudoPot. # 2 for S  read from file:
     ../pseudo/s_pbe_v1.4.uspp.F.UPF
     MD5 check sum: 88d86576ff6df21479756cfb9bdac1df
     Pseudo is Ultrasoft + core correction, Zval =  6.0
     Generated by new atomic code, or converted to UPF format
     Using radial grid of  907 points,  6 beta functions with: 
                l(1) =   0
                l(2) =   0
                l(3) =   1
                l(4) =   1
                l(5) =   2
                l(6) =   2
     Q(r) pseudized with  8 coefficients,  rinner =    1.300   1.300   1.300
                                                       1.300   1.300

     PseudoPot. # 3 for O  read from file:
     ../pseudo/O.pbe-n-kjpaw_psl.0.1.UPF
     MD5 check sum: 0234752ac141de4415c5fc33072bef88
     Pseudo is Projector augmented-wave + core cor, Zval =  6.0
     Generated using "atomic" code by A. Dal Corso  v.5.0.99 svn rev. 10869
     Shape of augmentation charge: BESSEL
     Using radial grid of 1095 points,  4 beta functions with: 
                l(1) =   0
                l(2) =   0
                l(3) =   1
                l(4) =   1
     Q(r) pseudized with 0 coefficients 


     atomic species   valence    mass     pseudopotential
        Mo            14.00    95.94000     Mo( 1.00)
        S              6.00    32.06500     S ( 1.00)
        O              6.00    15.99940     O ( 1.00)

     No symmetry found



   Cartesian axes

     site n.     atom                  positions (alat units)
         1           Mo  tau(   1) = (   0.6952221   0.1890506   0.2985846  )
         2           S   tau(   2) = (   0.8646417   0.0856217   0.4689279  )
         3           S   tau(   3) = (   0.8663890   0.0857843   0.1351291  )
         4           Mo  tau(   4) = (   0.8560186   0.4753274   0.2873942  )
         5           S   tau(   5) = (   0.6873294   0.3936244   0.4596353  )
         6           S   tau(   6) = (   0.6929804   0.3713468   0.1185692  )
         7           Mo  tau(   7) = (   0.6862796   0.7633098   0.2825370  )
         8           S   tau(   8) = (   0.8545980   0.6708292   0.4486168  )
         9           S   tau(   9) = (   0.8545123   0.6666874   0.1146125  )
        10           Mo  tau(  10) = (   0.8629403   1.0471007   0.3006803  )
        11           S   tau(  11) = (   0.6868280   0.9456650   0.4634891  )
        12           S   tau(  12) = (   0.6998113   0.9568511   0.1205389  )
        13           Mo  tau(  13) = (   0.3618216   0.1847309   0.2935964  )
        14           S   tau(  14) = (   0.5260962   0.0863870   0.4600448  )
        15           S   tau(  15) = (   0.5348379   0.0894875   0.1297123  )
        16           Mo  tau(  16) = (   0.5265817   0.4772436   0.2784130  )
        17           S   tau(  17) = (   0.3624753   0.3882513   0.4525556  )
        18           S   tau(  18) = (   0.3635411   0.3752055   0.1119148  )
        19           Mo  tau(  19) = (   0.3652268   0.7630864   0.2781795  )
        20           S   tau(  20) = (   0.5269494   0.6690381   0.1096838  )
        21           Mo  tau(  21) = (   0.5300192   1.0470394   0.2900995  )
        22           S   tau(  22) = (   0.3670346   0.9457522   0.4574073  )
        23           S   tau(  23) = (   0.3604225   0.9585725   0.1159032  )
        24           Mo  tau(  24) = (   0.0313099   0.1847895   0.3013130  )
        25           S   tau(  25) = (   0.1956761   0.0838230   0.4650863  )
        26           S   tau(  26) = (   0.1967693   0.0903508   0.1278874  )
        27           Mo  tau(  27) = (   0.1967578   0.4753919   0.2813011  )
        28           S   tau(  28) = (   0.0287851   0.3864324   0.4586755  )
        29           S   tau(  29) = (   0.0244514   0.3729871   0.1239344  )
        30           Mo  tau(  30) = (   0.0286728   0.7631204   0.2856894  )
        31           S   tau(  31) = (   0.2011512   0.6675435   0.4465001  )
        32           S   tau(  32) = (   0.1969214   0.6672839   0.1104564  )
        33           Mo  tau(  33) = (   0.1950294   1.0511147   0.2932237  )
        34           S   tau(  34) = (   0.0312912   0.9612169   0.4667423  )
        35           S   tau(  35) = (   0.0292670   0.9563028   0.1216485  )
        36           O   tau(  36) = (   0.2222222   0.5136314   0.5650415  )

     number of k points=     1  Gaussian smearing, width (Ry)=  0.0100
                       cart. coord. in units 2pi/alat
        k(    1) = (   0.0000000   0.0000000   0.0000000), wk =   2.0000000

     Dense  grid:  2439793 G-vectors     FFT dimensions: ( 150, 180, 384)

     Smooth grid:   842757 G-vectors     FFT dimensions: ( 108, 120, 270)

     Estimated max dynamical RAM per process >     269.22 MB

     Estimated total dynamical RAM >      12.62 GB

     Initial potential from superposition of free atoms

     starting charge     311.9873, renormalised to     312.0000

     negative rho (up, down):  2.737E-04 0.000E+00


---------------------------------------------------------------------------------
Carrying out rVV10 run using the following parameters:
Nqs =      20    Nr_points =    1024   r_max =   100.000
b_value =  6.30000    beta =  0.00901
     q_mesh =  0.00010000  0.00030000  0.00058939  0.00100810
               0.00161396  0.00249058  0.00375900  0.00559430
               0.00824984  0.01209221  0.01765183  0.02569619
               0.03733578  0.05417739  0.07854596  0.11380545
               0.16482331  0.23864234  0.34545298  0.50000000

Gradients computed in Reciprocal space

---------------------------------------------------------------------------------


     Starting wfcs are  216 randomized atomic wfcs
     Checking if some PAW data can be deallocated... 

     total cpu time spent up to now is        5.1 secs

     Self-consistent Calculation

     iteration #  1     ecut=    80.00 Ry     beta= 0.70
     Davidson diagonalization with overlap
     ethr =  1.00E-02,  avg # of iterations =  2.0

     Threshold (ethr) on eigenvalues was too large:
     Diagonalizing with lowered threshold

     Davidson diagonalization with overlap
     ethr =  4.36E-04,  avg # of iterations =  3.0

     negative rho (up, down):  2.752E-08 0.000E+00

     total cpu time spent up to now is       20.3 secs

     total energy              =   -2246.16757342 Ry
     estimated scf accuracy    <       1.60648333 Ry

     iteration #  2     ecut=    80.00 Ry     beta= 0.70
     Davidson diagonalization with overlap
     ethr =  5.15E-04,  avg # of iterations =  4.0

     total cpu time spent up to now is       25.6 secs

     total energy              =   -2246.15190315 Ry
     estimated scf accuracy    <       1.16346109 Ry

     iteration #  3     ecut=    80.00 Ry     beta= 0.70
     Davidson diagonalization with overlap
     ethr =  3.73E-04,  avg # of iterations =  2.0

     total cpu time spent up to now is       29.4 secs

     total energy              =   -2246.15437271 Ry
     estimated scf accuracy    <       0.34116719 Ry

     iteration #  4     ecut=    80.00 Ry     beta= 0.70
     Davidson diagonalization with overlap
     ethr =  1.09E-04,  avg # of iterations =  2.0

     total cpu time spent up to now is       33.1 secs

     total energy              =   -2246.19780522 Ry
     estimated scf accuracy    <       0.05684657 Ry

     iteration #  5     ecut=    80.00 Ry     beta= 0.70
     Davidson diagonalization with overlap
     ethr =  1.82E-05,  avg # of iterations = 19.0

     total cpu time spent up to now is       37.8 secs

     total energy              =   -2246.20029585 Ry
     estimated scf accuracy    <       0.02335592 Ry

     iteration #  6     ecut=    80.00 Ry     beta= 0.70
     Davidson diagonalization with overlap
     ethr =  7.49E-06,  avg # of iterations =  5.0

     total cpu time spent up to now is       41.3 secs

     total energy              =   -2246.20069225 Ry
     estimated scf accuracy    <       0.01397307 Ry

     iteration #  7     ecut=    80.00 Ry     beta= 0.70
     Davidson diagonalization with overlap
     ethr =  4.48E-06,  avg # of iterations =  2.0

     total cpu time spent up to now is       44.8 secs

     total energy              =   -2246.19973311 Ry
     estimated scf accuracy    <       0.01099105 Ry

     iteration #  8     ecut=    80.00 Ry     beta= 0.70
     Davidson diagonalization with overlap
     ethr =  3.52E-06,  avg # of iterations =  1.0

     negative rho (up, down):  2.116E-05 0.000E+00

     total cpu time spent up to now is       51.0 secs

     total energy              =   -2246.19850014 Ry
     estimated scf accuracy    <       0.00606821 Ry

     iteration #  9     ecut=    80.00 Ry     beta= 0.70
     Davidson diagonalization with overlap
     ethr =  1.94E-06,  avg # of iterations =  2.0

     negative rho (up, down):  1.259E-02 0.000E+00

     total cpu time spent up to now is       56.6 secs

     total energy              =   -2246.19806127 Ry
     estimated scf accuracy    <       0.00265439 Ry

     iteration # 10     ecut=    80.00 Ry     beta= 0.70
     Davidson diagonalization with overlap
     ethr =  8.51E-07,  avg # of iterations =  2.0

     negative rho (up, down):  2.040E-02 0.000E+00

     total cpu time spent up to now is       62.6 secs

     total energy              =   -2246.19798987 Ry
     estimated scf accuracy    <       0.00134881 Ry

     iteration # 11     ecut=    80.00 Ry     beta= 0.70
     Davidson diagonalization with overlap
     ethr =  4.32E-07,  avg # of iterations =  2.0

     negative rho (up, down):  1.798E-02 0.000E+00

     total cpu time spent up to now is       69.0 secs

     total energy              =   -2246.19806562 Ry
     estimated scf accuracy    <       0.00049005 Ry

     iteration # 12     ecut=    80.00 Ry     beta= 0.70
     Davidson diagonalization with overlap
     ethr =  1.57E-07,  avg # of iterations =  5.0

     negative rho (up, down):  5.737E-03 0.000E+00

     total cpu time spent up to now is       76.0 secs

     total energy              =   -2246.19807686 Ry
     estimated scf accuracy    <       0.00007762 Ry

     iteration # 13     ecut=    80.00 Ry     beta= 0.70
     Davidson diagonalization with overlap
     ethr =  2.49E-08,  avg # of iterations =  7.0

     negative rho (up, down):  2.479E-03 0.000E+00

     total cpu time spent up to now is       86.2 secs

     total energy              =   -2246.19813167 Ry
     estimated scf accuracy    <       0.00002122 Ry

     iteration # 14     ecut=    80.00 Ry     beta= 0.70
     Davidson diagonalization with overlap
     ethr =  6.80E-09,  avg # of iterations =  2.0

     negative rho (up, down):  6.893E-04 0.000E+00

     total cpu time spent up to now is       96.3 secs

     total energy              =   -2246.19813743 Ry
     estimated scf accuracy    <       0.00000707 Ry

     iteration # 15     ecut=    80.00 Ry     beta= 0.70
     Davidson diagonalization with overlap
     ethr =  2.27E-09,  avg # of iterations =  2.0

     negative rho (up, down):  4.225E-04 0.000E+00

     total cpu time spent up to now is      104.9 secs

     total energy              =   -2246.19814105 Ry
     estimated scf accuracy    <       0.00000254 Ry

     iteration # 16     ecut=    80.00 Ry     beta= 0.70
     Davidson diagonalization with overlap
     ethr =  8.14E-10,  avg # of iterations =  2.0

     negative rho (up, down):  1.992E-04 0.000E+00

     total cpu time spent up to now is      108.1 secs

     End of self-consistent calculation

          k = 0.0000 0.0000 0.0000 (105382 PWs)   bands (ev):

   -62.9760 -62.9595 -62.9581 -62.9401 -62.9297 -62.9279 -62.9222 -62.9133
   -62.9017 -62.8762 -62.8587 -62.7976 -37.3494 -37.2708 -37.2613 -37.2414
   -37.2179 -37.1953 -37.1807 -37.1714 -37.1669 -37.1557 -37.1434 -37.1334
   -37.1266 -37.1181 -37.1115 -37.1067 -37.1028 -37.0873 -37.0860 -37.0758
   -37.0664 -37.0600 -37.0533 -37.0398 -37.0238 -37.0124 -36.9965 -36.9905
   -36.9827 -36.9734 -36.9560 -36.9508 -36.9372 -36.8789 -36.8457 -36.8280
   -20.1216 -16.0101 -15.3745 -15.1992 -15.0048 -14.9958 -14.8545 -14.8529
   -14.5463 -14.5023 -14.4718 -14.4610 -14.4173 -14.3994 -14.3495 -14.3074
   -14.2207 -14.1883 -14.1265 -14.0409 -13.9978 -13.9433 -13.9226 -13.8944
    -8.0390  -7.7324  -7.5885  -7.5087  -7.4381  -7.3448  -7.2757  -7.2472
    -7.1714  -6.9439  -6.9007  -6.8584  -6.8021  -6.7615  -6.6563  -6.6388
    -6.5235  -6.5196  -6.3679  -6.3467  -6.1839  -6.0899  -5.9657  -5.9548
    -5.8798  -5.8424  -5.8335  -5.8096  -5.7703  -5.7320  -5.6552  -5.6344
    -5.6128  -5.5790  -5.5259  -5.3192  -5.2567  -5.1823  -5.1415  -5.0786
    -5.0741  -5.0489  -5.0009  -4.8621  -4.7838  -4.6414  -4.5398  -4.4035
    -4.3556  -4.2900  -4.2437  -4.1508  -4.0723  -4.0450  -3.8857  -3.8648
    -3.8586  -3.7800  -3.7019  -3.6541  -3.6338  -3.5906  -3.5672  -3.5208
    -3.4911  -3.4715  -3.3957  -3.2840  -3.0473  -3.0007  -2.9790  -2.9470
    -2.9115  -2.8517  -2.8127  -2.7765  -2.7349  -2.6925  -2.4709  -2.2879
    -2.1385  -2.0838  -1.8104  -1.4288  -1.0798  -0.9327  -0.8090  -0.2677
    -0.2100  -0.1501  -0.1304  -0.0380   0.0574   0.0934   0.1545   0.1900
     0.2256   0.2759   0.3336   0.3729   0.4375   0.4902   0.5004   0.5154
     0.6033   0.6484   0.6675   0.6933   0.7230   0.7609   0.8339   0.8676
     0.9170   0.9921   1.0712

     the Fermi energy is    -1.2546 ev

!    total energy              =   -2246.19814112 Ry
     estimated scf accuracy    <       0.00000080 Ry
     smearing contrib. (-TS)   =      -0.00220021 Ry
     internal energy E=F+TS    =   -2246.19594091 Ry

     The total energy is F=E-TS. E is the sum of the following terms:
     one-electron contribution =  -18450.54761879 Ry
     hartree contribution      =    9213.30164982 Ry
     xc contribution           =    -391.96216395 Ry
     ewald contribution        =    7392.88531116 Ry
     one-center paw contrib.   =      -9.87311914 Ry

     convergence has been achieved in  16 iterations

     negative rho (up, down):  1.992E-04 0.000E+00

     Forces acting on atoms (cartesian axes, Ry/au):

     atom    1 type  1   force =     0.01318638   -0.02470535    0.00764056
     atom    2 type  2   force =    -0.01418155    0.01717975    0.00079072
     atom    3 type  2   force =    -0.01075960    0.00899316   -0.00289726
     atom    4 type  1   force =     0.00235816   -0.00457344   -0.00575594
     atom    5 type  2   force =    -0.00104541   -0.00801005   -0.00638640
     atom    6 type  2   force =     0.00585836    0.00880186   -0.00030682
     atom    7 type  1   force =     0.00598768   -0.00968056   -0.00723404
     atom    8 type  2   force =    -0.00184121    0.00249164    0.01540660
     atom    9 type  2   force =     0.01777916    0.00509806    0.01026943
     atom   10 type  1   force =    -0.01068670    0.00682819   -0.02718545
     atom   11 type  2   force =     0.00455978   -0.00133018   -0.00418041
     atom   12 type  2   force =    -0.00149345    0.00097193    0.00834401
     atom   13 type  1   force =     0.01600163    0.00223257   -0.01351003
     atom   14 type  2   force =     0.00749943   -0.00046521    0.01314071
     atom   15 type  2   force =    -0.01485296    0.00256636   -0.00885446
     atom   16 type  1   force =    -0.00970816    0.01839719    0.00403343
     atom   17 type  2   force =     0.00369487   -0.00670372   -0.01307943
     atom   18 type  2   force =    -0.00293004   -0.00564617    0.01322389
     atom   19 type  1   force =     0.02136919   -0.02301099   -0.00040023
     atom   20 type  2   force =    -0.00214122   -0.00429349   -0.00085291
     atom   21 type  1   force =    -0.00474710    0.00281703   -0.00184553
     atom   22 type  2   force =    -0.00264865    0.00517457   -0.00297153
     atom   23 type  2   force =     0.00051651    0.00646015    0.00767212
     atom   24 type  1   force =    -0.02084043    0.00306451   -0.02114124
     atom   25 type  2   force =     0.01567345    0.01661092    0.00929570
     atom   26 type  2   force =    -0.01083152   -0.00209670   -0.00452766
     atom   27 type  1   force =     0.00492821   -0.03305168   -0.06574642
     atom   28 type  2   force =    -0.02879634   -0.02335920   -0.02750726
     atom   29 type  2   force =     0.00316566    0.00029850   -0.00344054
     atom   30 type  1   force =    -0.02031947    0.00149028    0.00874960
     atom   31 type  2   force =     0.02403036   -0.05792392    0.06846437
     atom   32 type  2   force =    -0.00881727    0.00813968    0.00887765
     atom   33 type  1   force =     0.01254108   -0.01716801   -0.00864686
     atom   34 type  2   force =     0.00113505   -0.03570466   -0.00912439
     atom   35 type  2   force =    -0.00930465    0.00847025    0.01253279
     atom   36 type  3   force =     0.01566074    0.13163673    0.04715323
     The non-local contrib.  to forces
     atom    1 type  1   force =     0.00179934    0.03473611   -0.01504643
     atom    2 type  2   force =    -0.00711002    0.00437483   -0.27272177
     atom    3 type  2   force =    -0.01518931   -0.00256302    0.27113367
     atom    4 type  1   force =    -0.00087751   -0.00699864    0.00719697
     atom    5 type  2   force =     0.00507068   -0.03345515   -0.25258588
     atom    6 type  2   force =    -0.00206922    0.01195003    0.26567211
     atom    7 type  1   force =    -0.02433632   -0.00085763   -0.02126028
     atom    8 type  2   force =     0.00433540    0.00007928   -0.25414730
     atom    9 type  2   force =     0.01503223    0.00036512    0.27582244
     atom   10 type  1   force =     0.00116736    0.00663148   -0.00198830
     atom   11 type  2   force =     0.01274859    0.00461007   -0.26177776
     atom   12 type  2   force =    -0.01364935   -0.01578283    0.26194242
     atom   13 type  1   force =    -0.00058152    0.03656193   -0.00783002
     atom   14 type  2   force =     0.01027834   -0.01078907   -0.26390284
     atom   15 type  2   force =    -0.01417137   -0.00688073    0.26207297
     atom   16 type  1   force =     0.00670240   -0.00251472   -0.03831106
     atom   17 type  2   force =    -0.09464852    0.07020736   -0.14366269
     atom   18 type  2   force =    -0.00524326   -0.00121716    0.27545039
     atom   19 type  1   force =     0.01106036   -0.00070726   -0.01191697
     atom   20 type  2   force =    -0.00694310   -0.01285219    0.26229312
     atom   21 type  1   force =     0.00642944    0.02709644    0.00702780
     atom   22 type  2   force =    -0.01020423    0.00610338   -0.25814755
     atom   23 type  2   force =     0.00637045   -0.01453107    0.26877810
     atom   24 type  1   force =     0.00642854    0.02120933   -0.00965871
     atom   25 type  2   force =     0.00909254   -0.00175040   -0.25976338
     atom   26 type  2   force =    -0.00067299   -0.01333896    0.26075906
     atom   27 type  1   force =     0.00286547    0.00033373    0.01894611
     atom   28 type  2   force =    -0.03388931   -0.04179190   -0.28308735
     atom   29 type  2   force =     0.00624277    0.00307350    0.26439614
     atom   30 type  1   force =    -0.00050019   -0.00291325   -0.00108378
     atom   31 type  2   force =     0.03237020   -0.35501513    0.09752914
     atom   32 type  2   force =    -0.00329057   -0.00796766    0.27900784
     atom   33 type  1   force =    -0.00736720    0.03312373    0.00695813
     atom   34 type  2   force =    -0.00052369   -0.03303822   -0.27038063
     atom   35 type  2   force =    -0.00301241   -0.01186889    0.27254873
     atom   36 type  3   force =     0.04058194    0.75710003   -0.69344176
     The ionic contribution  to forces
     atom    1 type  1   force =     0.48957362   -0.38001167    4.59298795
     atom    2 type  2   force =    -0.86934284    0.08375301   39.08960060
     atom    3 type  2   force =    -0.23448822   -0.10573755  -36.59889437
     atom    4 type  1   force =    -0.98460189    0.38746001   -1.27118818
     atom    5 type  2   force =    -0.76469461    1.21986881   38.41419090
     atom    6 type  2   force =     0.37918173   -0.60619489  -38.66890968
     atom    7 type  1   force =    -2.44439342   -2.16234065    1.28477873
     atom    8 type  2   force =    -1.69356590    0.50340740   36.93425769
     atom    9 type  2   force =     0.20607231    0.09218912  -38.69449593
     atom   10 type  1   force =    -1.32980475   -0.15471161    4.75247208
     atom   11 type  2   force =    -0.50881939   -1.35928674   38.95886536
     atom   12 type  2   force =     0.45364402    0.78440153  -38.33879809
     atom   13 type  1   force =     1.08410866   -0.47917859    0.97103760
     atom   14 type  2   force =     0.31795023   -0.38823824   38.28962774
     atom   15 type  2   force =     0.24073363   -0.19531381  -37.33605275
     atom   16 type  1   force =     1.45444335    3.71316211   -1.92957362
     atom   17 type  2   force =     3.67242002   -1.11661209   35.48188250
     atom   18 type  2   force =     0.01305677   -0.84824305  -39.55361362
     atom   19 type  1   force =     3.59611952   -0.79063428   -1.88197510
     atom   20 type  2   force =     0.40361123   -0.05047950  -39.22625258
     atom   21 type  1   force =     0.31439623    0.22761358    0.19080511
     atom   22 type  2   force =     0.70249641   -1.10598494   38.12631097
     atom   23 type  2   force =    -0.02302854    0.81442747  -38.87284479
     atom   24 type  1   force =    -1.26843270   -0.18318214    4.13067385
     atom   25 type  2   force =     0.60033070   -0.47489580   38.94675460
     atom   26 type  2   force =    -0.30417930   -0.13382945  -37.96389789
     atom   27 type  1   force =    -0.48831485   -0.39391681   -8.75742405
     atom   28 type  2   force =    -2.38356502   -0.66620611   36.71162003
     atom   29 type  2   force =    -0.48531136   -0.62320998  -38.19865519
     atom   30 type  1   force =    -1.35762154    0.56656240   -2.29088703
     atom   31 type  2   force =     0.60955575    4.50299379   33.70478349
     atom   32 type  2   force =    -0.51664582    0.24031837  -39.69147858
     atom   33 type  1   force =     0.73871401   -0.58681200    0.89831628
     atom   34 type  2   force =    -0.01890486   -0.95808616   39.10740871
     atom   35 type  2   force =    -0.38009228    0.62088301  -38.38150397
     atom   36 type  3   force =     0.77939907    0.00606544   47.07007124
     The local contribution  to forces
     atom    1 type  1   force =    -0.47817291    0.32076367   -4.57130354
     atom    2 type  2   force =     0.86218982   -0.07073568  -38.83717554
     atom    3 type  2   force =     0.23822508    0.11722971   36.34513908
     atom    4 type  1   force =     0.98794920   -0.38492358    1.25724468
     atom    5 type  2   force =     0.75904190   -1.19617024  -38.18861222
     atom    6 type  2   force =    -0.37157575    0.60425856   38.42335702
     atom    7 type  1   force =     2.47468731    2.15314838   -1.27171468
     atom    8 type  2   force =     1.68761263   -0.50127682  -36.68539894
     atom    9 type  2   force =    -0.20276293   -0.08757877   38.44929850
     atom   10 type  1   force =     1.31792000    0.15482596   -4.77873994
     atom   11 type  2   force =     0.50125230    1.35375462  -38.72222273
     atom   12 type  2   force =    -0.44267637   -0.76900169   38.10537737
     atom   13 type  1   force =    -1.06764459    0.44512970   -0.97767750
     atom   14 type  2   force =    -0.32026731    0.39851832  -38.03349444
     atom   15 type  2   force =    -0.24217862    0.20433550   37.08508556
     atom   16 type  1   force =    -1.47085766   -3.69200071    1.97096664
     atom   17 type  2   force =    -3.57851920    1.04264963  -35.36694829
     atom   18 type  2   force =    -0.01090064    0.84446280   39.31197490
     atom   19 type  1   force =    -3.58582717    0.76800831    1.89252514
     atom   20 type  2   force =    -0.39930720    0.05851885   38.98358548
     atom   21 type  1   force =    -0.32565317   -0.25186175   -0.20080459
     atom   22 type  2   force =    -0.69538334    1.10552099  -37.89188197
     atom   23 type  2   force =     0.01768659   -0.79472152   38.63207478
     atom   24 type  1   force =     1.24128871    0.16533321   -4.14313331
     atom   25 type  2   force =    -0.59362350    0.49339365  -38.69859275
     atom   26 type  2   force =     0.29425706    0.14437574   37.71870793
     atom   27 type  1   force =     0.49031105    0.36054226    8.67182930
     atom   28 type  2   force =     2.38630793    0.68163730  -36.47828003
     atom   29 type  2   force =     0.48281007    0.62118457   37.95089836
     atom   30 type  1   force =     1.33786087   -0.56243036    2.29972774
     atom   31 type  2   force =    -0.61624155   -4.22560646  -33.73598638
     atom   32 type  2   force =     0.51120443   -0.22472608   39.44215864
     atom   33 type  1   force =    -0.71872165    0.53653943   -0.91494318
     atom   34 type  2   force =     0.02026710    0.95426551  -38.86734385
     atom   35 type  2   force =     0.37385643   -0.60160733   38.14205861
     atom   36 type  3   force =    -0.80403115   -0.62262931  -46.33689138
     The core correction contribution to forces
     atom    1 type  1   force =     0.00000000    0.00000000    0.00000000
     atom    2 type  2   force =     0.00010650   -0.00017105    0.02087976
     atom    3 type  2   force =     0.00069754    0.00006966   -0.02092322
     atom    4 type  1   force =     0.00000000    0.00000000    0.00000000
     atom    5 type  2   force =    -0.00048599    0.00182925    0.02039380
     atom    6 type  2   force =     0.00031944   -0.00117412   -0.02100299
     atom    7 type  1   force =     0.00000000    0.00000000    0.00000000
     atom    8 type  2   force =    -0.00021489    0.00023267    0.02048054
     atom    9 type  2   force =    -0.00053345    0.00008423   -0.02091335
     atom   10 type  1   force =     0.00000000    0.00000000    0.00000000
     atom   11 type  2   force =    -0.00058483   -0.00049267    0.02074372
     atom   12 type  2   force =     0.00121079    0.00134223   -0.02080785
     atom   13 type  1   force =     0.00000000    0.00000000    0.00000000
     atom   14 type  2   force =    -0.00051490    0.00009634    0.02070152
     atom   15 type  2   force =     0.00073888    0.00043943   -0.02061066
     atom   16 type  1   force =     0.00000000    0.00000000    0.00000000
     atom   17 type  2   force =     0.00435371   -0.00289938    0.01538781
     atom   18 type  2   force =     0.00009174   -0.00061484   -0.02110541
     atom   19 type  1   force =     0.00000000    0.00000000    0.00000000
     atom   20 type  2   force =     0.00051060    0.00044872   -0.02102086
     atom   21 type  1   force =     0.00000000    0.00000000    0.00000000
     atom   22 type  2   force =     0.00038508   -0.00051645    0.02058148
     atom   23 type  2   force =    -0.00052442    0.00130233   -0.02096188
     atom   24 type  1   force =     0.00000000    0.00000000    0.00000000
     atom   25 type  2   force =    -0.00009977   -0.00007955    0.02070257
     atom   26 type  2   force =    -0.00022397    0.00073255   -0.02073295
     atom   27 type  1   force =     0.00000000    0.00000000    0.00000000
     atom   28 type  2   force =     0.00245416    0.00309654    0.02196413
     atom   29 type  2   force =    -0.00051321   -0.00067750   -0.02060534
     atom   30 type  1   force =     0.00000000    0.00000000    0.00000000
     atom   31 type  2   force =    -0.00170594    0.01960717    0.00192322
     atom   32 type  2   force =    -0.00012013    0.00041986   -0.02133749
     atom   33 type  1   force =     0.00000000    0.00000000    0.00000000
     atom   34 type  2   force =     0.00032431    0.00107413    0.02101927
     atom   35 type  2   force =    -0.00006510    0.00103361   -0.02119420
     atom   36 type  3   force =    -0.00032701   -0.00881893    0.00686630
     The Hubbard contrib.    to forces
     atom    1 type  1   force =     0.00000000    0.00000000    0.00000000
     atom    2 type  2   force =     0.00000000    0.00000000    0.00000000
     atom    3 type  2   force =     0.00000000    0.00000000    0.00000000
     atom    4 type  1   force =     0.00000000    0.00000000    0.00000000
     atom    5 type  2   force =     0.00000000    0.00000000    0.00000000
     atom    6 type  2   force =     0.00000000    0.00000000    0.00000000
     atom    7 type  1   force =     0.00000000    0.00000000    0.00000000
     atom    8 type  2   force =     0.00000000    0.00000000    0.00000000
     atom    9 type  2   force =     0.00000000    0.00000000    0.00000000
     atom   10 type  1   force =     0.00000000    0.00000000    0.00000000
     atom   11 type  2   force =     0.00000000    0.00000000    0.00000000
     atom   12 type  2   force =     0.00000000    0.00000000    0.00000000
     atom   13 type  1   force =     0.00000000    0.00000000    0.00000000
     atom   14 type  2   force =     0.00000000    0.00000000    0.00000000
     atom   15 type  2   force =     0.00000000    0.00000000    0.00000000
     atom   16 type  1   force =     0.00000000    0.00000000    0.00000000
     atom   17 type  2   force =     0.00000000    0.00000000    0.00000000
     atom   18 type  2   force =     0.00000000    0.00000000    0.00000000
     atom   19 type  1   force =     0.00000000    0.00000000    0.00000000
     atom   20 type  2   force =     0.00000000    0.00000000    0.00000000
     atom   21 type  1   force =     0.00000000    0.00000000    0.00000000
     atom   22 type  2   force =     0.00000000    0.00000000    0.00000000
     atom   23 type  2   force =     0.00000000    0.00000000    0.00000000
     atom   24 type  1   force =     0.00000000    0.00000000    0.00000000
     atom   25 type  2   force =     0.00000000    0.00000000    0.00000000
     atom   26 type  2   force =     0.00000000    0.00000000    0.00000000
     atom   27 type  1   force =     0.00000000    0.00000000    0.00000000
     atom   28 type  2   force =     0.00000000    0.00000000    0.00000000
     atom   29 type  2   force =     0.00000000    0.00000000    0.00000000
     atom   30 type  1   force =     0.00000000    0.00000000    0.00000000
     atom   31 type  2   force =     0.00000000    0.00000000    0.00000000
     atom   32 type  2   force =     0.00000000    0.00000000    0.00000000
     atom   33 type  1   force =     0.00000000    0.00000000    0.00000000
     atom   34 type  2   force =     0.00000000    0.00000000    0.00000000
     atom   35 type  2   force =     0.00000000    0.00000000    0.00000000
     atom   36 type  3   force =     0.00000000    0.00000000    0.00000000
     The SCF correction term to forces
     atom    1 type  1   force =    -0.00001408   -0.00019350    0.00096916
     atom    2 type  2   force =    -0.00002542   -0.00004141    0.00017424
     atom    3 type  2   force =    -0.00000511   -0.00000567    0.00061415
     atom    4 type  1   force =    -0.00011205   -0.00011127    0.00095716
     atom    5 type  2   force =     0.00002219   -0.00008276    0.00019357
     atom    6 type  2   force =     0.00000175   -0.00003777    0.00054330
     atom    7 type  1   force =     0.00002969    0.00036930    0.00092875
     atom    8 type  2   force =    -0.00000887    0.00004907    0.00018118
     atom    9 type  2   force =    -0.00002941    0.00003832    0.00052434
     atom   10 type  1   force =     0.00003027    0.00008231    0.00103728
     atom   11 type  2   force =    -0.00003731    0.00008449    0.00017757
     atom   12 type  2   force =    -0.00002296    0.00001265    0.00059673
     atom   13 type  1   force =     0.00011867   -0.00028051    0.00092646
     atom   14 type  2   force =     0.00005266   -0.00005261    0.00017530
     atom   15 type  2   force =     0.00002410   -0.00001408    0.00061699
     atom   16 type  1   force =     0.00000333   -0.00024952    0.00091804
     atom   17 type  2   force =     0.00008845   -0.00004928    0.00022780
     atom   18 type  2   force =     0.00006494   -0.00003395    0.00048419
     atom   19 type  1   force =     0.00001606    0.00032220    0.00093327
     atom   20 type  2   force =    -0.00001317    0.00007059    0.00050849
     atom   21 type  1   force =     0.00007999   -0.00003129    0.00109273
     atom   22 type  2   force =     0.00005701    0.00005155    0.00013211
     atom   23 type  2   force =     0.00001202   -0.00001710    0.00059249
     atom   24 type  1   force =    -0.00012540   -0.00029593    0.00094350
     atom   25 type  2   force =    -0.00002694   -0.00005704    0.00016123
     atom   26 type  2   force =    -0.00001273   -0.00003662    0.00060276
     atom   27 type  1   force =     0.00006612   -0.00001091    0.00086879
     atom   28 type  2   force =    -0.00010452   -0.00009509    0.00024253
     atom   29 type  2   force =    -0.00006302   -0.00007214    0.00049206
     atom   30 type  1   force =    -0.00005903    0.00027145    0.00095924
     atom   31 type  2   force =     0.00005149    0.00009666    0.00018147
     atom   32 type  2   force =     0.00003440    0.00009515    0.00049382
     atom   33 type  1   force =    -0.00008449   -0.00001922    0.00098849
     atom   34 type  2   force =    -0.00002822    0.00008004    0.00013869
     atom   35 type  2   force =     0.00000828    0.00002980    0.00059020
     atom   36 type  3   force =     0.00003746   -0.00008054    0.00051541

     Total force =     0.217572     Total SCF correction =     0.004032

     BFGS Geometry Optimization
     Energy error            =      0.0E+00 Ry
     Gradient error          =      1.3E-01 Ry/Bohr

     number of scf cycles    =   1
     number of bfgs steps    =   0

     energy             new  =   -2246.1981411160 Ry

     new trust radius        =       0.1407015089 bohr
     new conv_thr            =       0.0000010000 Ry


ATOMIC_POSITIONS (angstrom)
Mo            6.5815263425        1.7747327228        2.8276862410
S             8.1692047865        0.8187951553        4.4349567836
S             8.1875393536        0.8160007222        1.2763502631
Mo            8.0964104478        4.4926367832        2.7147724829
S             6.4993560498        3.7181727541        4.3432811118
S             6.5564499115        3.5163952991        1.1211178675
Mo            6.4931502419        7.2133145525        2.6680563949
S             8.0807534007        6.3451895092        4.2506143866
S             8.0903259759        6.3074000954        1.0892973475
Mo            8.1549638918        9.9057937350        2.8290758380
S             6.4975805258        8.9422229121        4.3808933575
S             6.6171568976        9.0492255364        1.1443227640
Mo            3.4301273624        1.7481372776        2.7693219641
S             4.9791340205        0.8166950287        4.3574868566
S             5.0499739083        0.8476201676        1.2219728799
Mo            4.9746193445        4.5229133789        2.6350189478
S             3.4297969053        3.6680522323        4.2727882407
S             3.4363700717        3.5452408750        1.0653494628
Mo            3.4651698265        7.2041476483        2.6304650699
S             4.9821011102        6.3246602698        1.0368023880
Mo            5.0097518651        9.9030907589        2.7424243493
S             3.4695565134        8.9464895330        4.3240188457
S             3.4087024934        9.0684085485        1.1001282099
Mo            0.2850622049        1.7491312001        2.8382572475
S             1.8587562450        0.8014841250        4.4031285129
S             1.8550682393        0.8533163946        1.2070049189
Mo            1.8632992042        4.4781765652        2.6254058732
S             0.2569754838        3.6420376681        4.3230278842
S             0.2329064033        3.5274071865        1.1701972302
Mo            0.2603995501        7.2174347149        2.7063265161
S             1.9149545681        6.2821468164        4.2586739046
S             1.8575723145        6.3146511432        1.0492571321
Mo            1.8509831169        9.9310542326        2.7683705303
S             0.2965135405        9.0711037347        4.4090410467
S             0.2718475893        9.0480079757        1.1570328450
O             2.1097895276        4.9269480463        5.3684141770



     Writing config-only to output data dir ./MoS2-V-O.save/
     NEW-OLD atomic charge density approx. for the potential

     negative rho (up, down):  1.729E-04 0.000E+00

     total cpu time spent up to now is      115.0 secs

     Self-consistent Calculation

     iteration #  1     ecut=    80.00 Ry     beta= 0.70
     Davidson diagonalization with overlap
     ethr =  1.00E-06,  avg # of iterations = 11.0

     negative rho (up, down):  1.954E-04 0.000E+00

     total cpu time spent up to now is      128.7 secs

     total energy              =   -2246.24010967 Ry
     estimated scf accuracy    <       0.01310598 Ry

     iteration #  2     ecut=    80.00 Ry     beta= 0.70
     Davidson diagonalization with overlap
     ethr =  4.20E-06,  avg # of iterations =  6.0

     negative rho (up, down):  2.404E-04 0.000E+00

     total cpu time spent up to now is      145.7 secs

     total energy              =   -2246.24202688 Ry
     estimated scf accuracy    <       0.00880599 Ry

     iteration #  3     ecut=    80.00 Ry     beta= 0.70
     Davidson diagonalization with overlap
     ethr =  2.82E-06,  avg # of iterations =  4.0

     negative rho (up, down):  2.759E-04 0.000E+00

     total cpu time spent up to now is      159.7 secs

     total energy              =   -2246.24276573 Ry
     estimated scf accuracy    <       0.00040180 Ry

     iteration #  4     ecut=    80.00 Ry     beta= 0.70
     Davidson diagonalization with overlap
     ethr =  1.29E-07,  avg # of iterations =  6.0

     negative rho (up, down):  3.001E-04 0.000E+00

     total cpu time spent up to now is      172.4 secs

     total energy              =   -2246.24284542 Ry
     estimated scf accuracy    <       0.00008209 Ry

     iteration #  5     ecut=    80.00 Ry     beta= 0.70
     Davidson diagonalization with overlap
     ethr =  2.63E-08,  avg # of iterations =  2.0

     negative rho (up, down):  3.202E-04 0.000E+00

     total cpu time spent up to now is      187.5 secs

     total energy              =   -2246.24284999 Ry
     estimated scf accuracy    <       0.00001770 Ry

     iteration #  6     ecut=    80.00 Ry     beta= 0.70
     Davidson diagonalization with overlap
     ethr =  5.67E-09,  avg # of iterations =  5.0

     negative rho (up, down):  3.234E-04 0.000E+00

     total cpu time spent up to now is      199.3 secs

     total energy              =   -2246.24285412 Ry
     estimated scf accuracy    <       0.00000220 Ry

     iteration #  7     ecut=    80.00 Ry     beta= 0.70
     Davidson diagonalization with overlap
     ethr =  7.07E-10,  avg # of iterations =  5.0

     negative rho (up, down):  2.010E-04 0.000E+00

     total cpu time spent up to now is      202.8 secs

     End of self-consistent calculation

          k = 0.0000 0.0000 0.0000 (105382 PWs)   bands (ev):

   -62.9766 -62.9692 -62.9582 -62.9521 -62.9398 -62.9261 -62.9227 -62.9034
   -62.8923 -62.8887 -62.8797 -62.8042 -37.3440 -37.2784 -37.2592 -37.2394
   -37.2178 -37.1994 -37.1852 -37.1769 -37.1700 -37.1601 -37.1535 -37.1361
   -37.1300 -37.1241 -37.1170 -37.1115 -37.1082 -37.0925 -37.0844 -37.0778
   -37.0690 -37.0670 -37.0535 -37.0361 -37.0220 -37.0149 -37.0039 -37.0004
   -36.9939 -36.9745 -36.9601 -36.9495 -36.9455 -36.8838 -36.8586 -36.8340
   -20.4397 -16.0148 -15.3349 -15.1935 -15.0124 -14.9777 -14.8576 -14.7894
   -14.5391 -14.5091 -14.4906 -14.4469 -14.4287 -14.3903 -14.3317 -14.3160
   -14.2177 -14.2035 -14.1307 -13.9987 -13.9798 -13.9490 -13.9436 -13.9066
    -8.0190  -7.7484  -7.5957  -7.5144  -7.4464  -7.3451  -7.2933  -7.2494
    -7.1869  -6.9614  -6.9136  -6.8673  -6.8044  -6.7621  -6.6683  -6.6444
    -6.5232  -6.5156  -6.3823  -6.3347  -6.1836  -6.0915  -5.9550  -5.9349
    -5.8828  -5.8491  -5.8366  -5.8131  -5.7698  -5.7348  -5.6564  -5.6465
    -5.5963  -5.5910  -5.5093  -5.3285  -5.2429  -5.1852  -5.1314  -5.0774
    -5.0757  -5.0558  -4.9973  -4.8721  -4.7900  -4.6292  -4.5302  -4.4157
    -4.3601  -4.3008  -4.2269  -4.1612  -4.0999  -4.0478  -3.8923  -3.8805
    -3.8590  -3.7807  -3.7007  -3.6471  -3.6236  -3.5896  -3.5747  -3.5305
    -3.4955  -3.4832  -3.3819  -3.3004  -3.0543  -2.9796  -2.9644  -2.9315
    -2.9168  -2.8553  -2.8102  -2.7861  -2.7471  -2.6962  -2.4704  -2.3352
    -2.1553  -2.1068  -1.8884  -1.5427  -0.9673  -0.9110  -0.8440  -0.2697
    -0.2103  -0.1426  -0.1256  -0.0221   0.0541   0.0966   0.1608   0.2028
     0.2327   0.2711   0.3253   0.3697   0.4301   0.4946   0.4960   0.5274
     0.6249   0.6497   0.6622   0.6871   0.7166   0.7690   0.8309   0.8728
     0.9128   0.9908   1.0727

     the Fermi energy is    -1.2568 ev

!    total energy              =   -2246.24285444 Ry
     estimated scf accuracy    <       0.00000073 Ry
     smearing contrib. (-TS)   =      -0.00013851 Ry
     internal energy E=F+TS    =   -2246.24271593 Ry

     The total energy is F=E-TS. E is the sum of the following terms:
     one-electron contribution =  -18445.41391999 Ry
     hartree contribution      =    9210.66345066 Ry
     xc contribution           =    -391.97281109 Ry
     ewald contribution        =    7390.35121657 Ry
     one-center paw contrib.   =      -9.87065208 Ry

     convergence has been achieved in   7 iterations

     negative rho (up, down):  2.010E-04 0.000E+00

     Forces acting on atoms (cartesian axes, Ry/au):

     atom    1 type  1   force =     0.00296064   -0.01527532    0.00065786
     atom    2 type  2   force =    -0.00916748    0.01011419   -0.00113710
     atom    3 type  2   force =    -0.01111249    0.00696548   -0.00930867
     atom    4 type  1   force =     0.00354763    0.00472520   -0.00161648
     atom    5 type  2   force =    -0.00191352   -0.00707296   -0.00720841
     atom    6 type  2   force =     0.00252884    0.00474659    0.00151361
     atom    7 type  1   force =     0.00327762   -0.00852533   -0.00012796
     atom    8 type  2   force =    -0.00332553   -0.00199656    0.01164960
     atom    9 type  2   force =     0.01502571    0.00386350    0.00657087
     atom   10 type  1   force =    -0.00451799    0.00692880   -0.00989385
     atom   11 type  2   force =     0.00369515   -0.00092047   -0.00699345
     atom   12 type  2   force =    -0.00313969    0.00035141    0.00245858
     atom   13 type  1   force =     0.01110153    0.00097654   -0.00617995
     atom   14 type  2   force =     0.00564592   -0.00081314    0.00909359
     atom   15 type  2   force =    -0.00843292    0.00135688   -0.00797024
     atom   16 type  1   force =    -0.00586626    0.01246451    0.00355861
     atom   17 type  2   force =     0.00391461   -0.01110844   -0.02005447
     atom   18 type  2   force =     0.00421083   -0.00774735    0.00156592
     atom   19 type  1   force =     0.01347417   -0.01460144    0.00921905
     atom   20 type  2   force =    -0.00006335   -0.00353723   -0.00492490
     atom   21 type  1   force =    -0.00359692    0.00240391    0.00133953
     atom   22 type  2   force =    -0.00130827    0.00154966   -0.00416610
     atom   23 type  2   force =     0.00178023    0.00073209    0.00494884
     atom   24 type  1   force =    -0.01235769   -0.00384222   -0.01138652
     atom   25 type  2   force =     0.01063553    0.01279763   -0.00089595
     atom   26 type  2   force =    -0.00797327   -0.00302478   -0.00327656
     atom   27 type  1   force =     0.00258271   -0.01821822   -0.03076879
     atom   28 type  2   force =    -0.01285538   -0.01505701   -0.02238120
     atom   29 type  2   force =    -0.00329995   -0.00357077   -0.01364843
     atom   30 type  1   force =    -0.00901838   -0.00646353    0.01645915
     atom   31 type  2   force =     0.02529114   -0.07618643    0.05230886
     atom   32 type  2   force =    -0.00772549    0.00892880    0.00671306
     atom   33 type  1   force =     0.00556451   -0.00811888    0.00082992
     atom   34 type  2   force =    -0.00121719   -0.02675664   -0.01270115
     atom   35 type  2   force =    -0.00699116    0.00583704    0.00783968
     atom   36 type  3   force =    -0.00135382    0.14809449    0.03791345
     The non-local contrib.  to forces
     atom    1 type  1   force =     0.00242245    0.03227055   -0.01580007
     atom    2 type  2   force =    -0.00468079   -0.00091395   -0.27235926
     atom    3 type  2   force =    -0.01434936   -0.00569001    0.26614815
     atom    4 type  1   force =     0.00029084   -0.00633344    0.00637791
     atom    5 type  2   force =     0.00471038   -0.03309926   -0.25465486
     atom    6 type  2   force =    -0.00472981    0.00874069    0.26833751
     atom    7 type  1   force =    -0.02194633    0.00054235   -0.02528033
     atom    8 type  2   force =     0.00351141   -0.00281552   -0.25633712
     atom    9 type  2   force =     0.01111494   -0.00030121    0.27341906
     atom   10 type  1   force =     0.00042531    0.00778600   -0.00175940
     atom   11 type  2   force =     0.01106259    0.00397375   -0.26378530
     atom   12 type  2   force =    -0.01415385   -0.01677758    0.25929158
     atom   13 type  1   force =     0.00178628    0.03815920   -0.00783285
     atom   14 type  2   force =     0.00953809   -0.01139403   -0.26565300
     atom   15 type  2   force =    -0.00907591   -0.00824839    0.26222646
     atom   16 type  1   force =     0.00274001    0.00075444   -0.03844398
     atom   17 type  2   force =    -0.05860551    0.04664014   -0.17347056
     atom   18 type  2   force =     0.00068285   -0.00175957    0.26914743
     atom   19 type  1   force =     0.01135192   -0.00163424   -0.01257043
     atom   20 type  2   force =    -0.00332508   -0.01080044    0.25863607
     atom   21 type  1   force =     0.00522814    0.02887636    0.00599585
     atom   22 type  2   force =    -0.00796831    0.00164828   -0.25983683
     atom   23 type  2   force =     0.00769618   -0.01864587    0.26755412
     atom   24 type  1   force =     0.00288465    0.02180105   -0.01028496
     atom   25 type  2   force =     0.00526259   -0.00507688   -0.26657480
     atom   26 type  2   force =     0.00089837   -0.01389756    0.26238031
     atom   27 type  1   force =     0.00326955   -0.00167803    0.02669009
     atom   28 type  2   force =    -0.03348091   -0.03661791   -0.27940048
     atom   29 type  2   force =     0.00094051    0.00038261    0.25885131
     atom   30 type  1   force =    -0.00213209   -0.00072407   -0.00333372
     atom   31 type  2   force =     0.03593917   -0.38145385    0.13264970
     atom   32 type  2   force =    -0.00087500   -0.00949161    0.27873925
     atom   33 type  1   force =    -0.00462615    0.02919828    0.00650544
     atom   34 type  2   force =    -0.00221490   -0.02782873   -0.27355770
     atom   35 type  2   force =    -0.00245603   -0.01361560    0.27043832
     atom   36 type  3   force =    -0.04395803    1.01606149   -0.85082684
     The ionic contribution  to forces
     atom    1 type  1   force =     0.15691821   -0.08003335    4.78947721
     atom    2 type  2   force =    -0.65825439   -0.07512778   39.20459651
     atom    3 type  2   force =    -0.22016629   -0.12752071  -36.71985539
     atom    4 type  1   force =    -1.03460694    0.51618817   -1.24125910
     atom    5 type  2   force =    -0.79350765    1.22131239   38.34159897
     atom    6 type  2   force =     0.28079435   -0.64537052  -38.56374857
     atom    7 type  1   force =    -2.42552636   -2.04692580    1.18947721
     atom    8 type  2   force =    -1.67817055    0.42661896   37.06588552
     atom    9 type  2   force =     0.20418513    0.08025974  -38.67302969
     atom   10 type  1   force =    -1.01223027   -0.17857199    4.41900097
     atom   11 type  2   force =    -0.48232936   -1.34887159   38.93259227
     atom   12 type  2   force =     0.37872166    0.72961284  -38.31937433
     atom   13 type  1   force =     0.87125486   -0.64658498    0.93893607
     atom   14 type  2   force =     0.20785298   -0.37005115   38.40304010
     atom   15 type  2   force =     0.28821304   -0.17804914  -37.39035344
     atom   16 type  1   force =     1.67323586    3.43869447   -1.63777611
     atom   17 type  2   force =     3.28394049   -1.05835777   35.55925960
     atom   18 type  2   force =     0.21211672   -0.89819946  -39.57928030
     atom   19 type  1   force =     3.07052335   -0.59865389   -1.63833175
     atom   20 type  2   force =     0.43738930   -0.01576553  -39.34032823
     atom   21 type  1   force =     0.23815432    0.15205879    0.29972217
     atom   22 type  2   force =     0.64455672   -1.12790403   38.08511797
     atom   23 type  2   force =    -0.05022209    0.71385705  -38.80373669
     atom   24 type  1   force =    -0.79499593   -0.53156380    3.96492530
     atom   25 type  2   force =     0.49077142   -0.47912858   38.86333319
     atom   26 type  2   force =    -0.28572532   -0.20157572  -37.83957928
     atom   27 type  1   force =    -0.65618318   -0.03065816   -9.62687608
     atom   28 type  2   force =    -1.97091525   -0.50550791   36.67159160
     atom   29 type  2   force =    -0.61025770   -0.61836932  -38.29329855
     atom   30 type  1   force =    -0.76337377    0.38083796   -1.76565774
     atom   31 type  2   force =     0.44226600    4.85942272   33.32138788
     atom   32 type  2   force =    -0.54708684    0.43366182  -39.50148151
     atom   33 type  1   force =     0.54305175   -0.40134991    1.00227096
     atom   34 type  2   force =    -0.01897917   -0.75525588   38.99654412
     atom   35 type  2   force =    -0.27604915    0.56504141  -38.27526565
     atom   36 type  3   force =     0.85463408   -0.59816934   47.16047481
     The local contribution  to forces
     atom    1 type  1   force =    -0.15665485    0.03308598   -4.77248633
     atom    2 type  2   force =     0.65382579    0.08616228  -38.95392437
     atom    3 type  2   force =     0.22273504    0.14007774   36.46530042
     atom    4 type  1   force =     1.03753273   -0.50507275    1.23413071
     atom    5 type  2   force =     0.78747233   -1.19705210  -38.11434710
     atom    6 type  2   force =    -0.27389448    0.64239497   38.31813864
     atom    7 type  1   force =     2.45098819    2.03775184   -1.16349401
     atom    8 type  2   force =     1.67161776   -0.42622425  -36.81815997
     atom    9 type  2   force =    -0.19996077   -0.07626927   38.42731190
     atom   10 type  1   force =     1.00752279    0.17765078   -4.42599955
     atom   11 type  2   force =     0.47547551    1.34435717  -38.69631290
     atom   12 type  2   force =    -0.36893646   -0.71393023   38.08343407
     atom   13 type  1   force =    -0.86189422    0.60906230   -0.93653415
     atom   14 type  2   force =    -0.21129903    0.38058533  -38.14876325
     atom   15 type  2   force =    -0.28812594    0.18730372   37.14092316
     atom   16 type  1   force =    -1.68105421   -3.42735978    1.68041831
     atom   17 type  2   force =    -3.22365267    1.00203890  -35.42248197
     atom   18 type  2   force =    -0.20842483    0.89269440   39.33270544
     atom   19 type  1   force =    -3.06891286    0.58577067    1.66117949
     atom   20 type  2   force =    -0.43436703    0.02267349   39.09776564
     atom   21 type  1   force =    -0.24701945   -0.17848729   -0.30360011
     atom   22 type  2   force =    -0.63825645    1.12805917  -37.84977486
     atom   23 type  2   force =     0.04484896   -0.69592354   38.56221248
     atom   24 type  1   force =     0.77998638    0.50559319   -3.96503688
     atom   25 type  2   force =    -0.48550731    0.49689173  -38.61830571
     atom   26 type  2   force =     0.27719064    0.21169924   37.59497287
     atom   27 type  1   force =     0.65503931    0.01456875    9.57053398
     atom   28 type  2   force =     1.98899032    0.52432818  -36.43599685
     atom   29 type  2   force =     0.60623456    0.61499704   38.04140096
     atom   30 type  1   force =     0.75684966   -0.38692006    1.78650202
     atom   31 type  2   force =    -0.45096592   -4.57570153  -33.40035670
     atom   32 type  2   force =     0.54040554   -0.41578301   39.25110911
     atom   33 type  1   force =    -0.53302042    0.36424242   -1.00695884
     atom   34 type  2   force =     0.01966393    0.75537519  -38.75655162
     atom   35 type  2   force =     0.27164840   -0.54674485   38.03403926
     atom   36 type  3   force =    -0.81288877   -0.25734329  -46.27982090
     The core correction contribution to forces
     atom    1 type  1   force =     0.00000000    0.00000000    0.00000000
     atom    2 type  2   force =     0.00011440   -0.00003478    0.02092967
     atom    3 type  2   force =     0.00064520    0.00023776   -0.02083707
     atom    4 type  1   force =     0.00000000    0.00000000    0.00000000
     atom    5 type  2   force =    -0.00050552    0.00179288    0.02042193
     atom    6 type  2   force =     0.00035071   -0.00107948   -0.02101732
     atom    7 type  1   force =     0.00000000    0.00000000    0.00000000
     atom    8 type  2   force =    -0.00020874    0.00031156    0.02059443
     atom    9 type  2   force =    -0.00034137    0.00008227   -0.02089686
     atom   10 type  1   force =     0.00000000    0.00000000    0.00000000
     atom   11 type  2   force =    -0.00047056   -0.00046377    0.02079632
     atom   12 type  2   force =     0.00115158    0.00136325   -0.02073468
     atom   13 type  1   force =     0.00000000    0.00000000    0.00000000
     atom   14 type  2   force =    -0.00054773    0.00014152    0.02077911
     atom   15 type  2   force =     0.00057252    0.00051855   -0.02064619
     atom   16 type  1   force =     0.00000000    0.00000000    0.00000000
     atom   17 type  2   force =     0.00227331   -0.00153424    0.01704828
     atom   18 type  2   force =     0.00000969   -0.00064152   -0.02097842
     atom   19 type  1   force =     0.00000000    0.00000000    0.00000000
     atom   20 type  2   force =     0.00037917    0.00035564   -0.02095724
     atom   21 type  1   force =     0.00000000    0.00000000    0.00000000
     atom   22 type  2   force =     0.00027962   -0.00035405    0.02065800
     atom   23 type  2   force =    -0.00056094    0.00141394   -0.02092854
     atom   24 type  1   force =     0.00000000    0.00000000    0.00000000
     atom   25 type  2   force =     0.00002641    0.00010629    0.02082535
     atom   26 type  2   force =    -0.00028584    0.00074853   -0.02072682
     atom   27 type  1   force =     0.00000000    0.00000000    0.00000000
     atom   28 type  2   force =     0.00248782    0.00287669    0.02178075
     atom   29 type  2   force =    -0.00040530   -0.00056453   -0.02046319
     atom   30 type  1   force =     0.00000000    0.00000000    0.00000000
     atom   31 type  2   force =    -0.00208507    0.02163758   -0.00104554
     atom   32 type  2   force =    -0.00027684    0.00067078   -0.02130274
     atom   33 type  1   force =     0.00000000    0.00000000    0.00000000
     atom   34 type  2   force =     0.00034052    0.00097201    0.02113710
     atom   35 type  2   force =    -0.00004118    0.00108077   -0.02113674
     atom   36 type  3   force =     0.00063111   -0.01169534    0.00871470
     The Hubbard contrib.    to forces
     atom    1 type  1   force =     0.00000000    0.00000000    0.00000000
     atom    2 type  2   force =     0.00000000    0.00000000    0.00000000
     atom    3 type  2   force =     0.00000000    0.00000000    0.00000000
     atom    4 type  1   force =     0.00000000    0.00000000    0.00000000
     atom    5 type  2   force =     0.00000000    0.00000000    0.00000000
     atom    6 type  2   force =     0.00000000    0.00000000    0.00000000
     atom    7 type  1   force =     0.00000000    0.00000000    0.00000000
     atom    8 type  2   force =     0.00000000    0.00000000    0.00000000
     atom    9 type  2   force =     0.00000000    0.00000000    0.00000000
     atom   10 type  1   force =     0.00000000    0.00000000    0.00000000
     atom   11 type  2   force =     0.00000000    0.00000000    0.00000000
     atom   12 type  2   force =     0.00000000    0.00000000    0.00000000
     atom   13 type  1   force =     0.00000000    0.00000000    0.00000000
     atom   14 type  2   force =     0.00000000    0.00000000    0.00000000
     atom   15 type  2   force =     0.00000000    0.00000000    0.00000000
     atom   16 type  1   force =     0.00000000    0.00000000    0.00000000
     atom   17 type  2   force =     0.00000000    0.00000000    0.00000000
     atom   18 type  2   force =     0.00000000    0.00000000    0.00000000
     atom   19 type  1   force =     0.00000000    0.00000000    0.00000000
     atom   20 type  2   force =     0.00000000    0.00000000    0.00000000
     atom   21 type  1   force =     0.00000000    0.00000000    0.00000000
     atom   22 type  2   force =     0.00000000    0.00000000    0.00000000
     atom   23 type  2   force =     0.00000000    0.00000000    0.00000000
     atom   24 type  1   force =     0.00000000    0.00000000    0.00000000
     atom   25 type  2   force =     0.00000000    0.00000000    0.00000000
     atom   26 type  2   force =     0.00000000    0.00000000    0.00000000
     atom   27 type  1   force =     0.00000000    0.00000000    0.00000000
     atom   28 type  2   force =     0.00000000    0.00000000    0.00000000
     atom   29 type  2   force =     0.00000000    0.00000000    0.00000000
     atom   30 type  1   force =     0.00000000    0.00000000    0.00000000
     atom   31 type  2   force =     0.00000000    0.00000000    0.00000000
     atom   32 type  2   force =     0.00000000    0.00000000    0.00000000
     atom   33 type  1   force =     0.00000000    0.00000000    0.00000000
     atom   34 type  2   force =     0.00000000    0.00000000    0.00000000
     atom   35 type  2   force =     0.00000000    0.00000000    0.00000000
     atom   36 type  3   force =     0.00000000    0.00000000    0.00000000
     The SCF correction term to forces
     atom    1 type  1   force =     0.00027520   -0.00059833   -0.00052092
     atom    2 type  2   force =    -0.00017210    0.00002860   -0.00036762
     atom    3 type  2   force =     0.00002329   -0.00013913   -0.00005273
     atom    4 type  1   force =     0.00033138   -0.00005660   -0.00085396
     atom    5 type  2   force =    -0.00008268   -0.00002669   -0.00021531
     atom    6 type  2   force =     0.00000844    0.00006112   -0.00018461
     atom    7 type  1   force =    -0.00023749    0.00010646   -0.00081880
     atom    8 type  2   force =    -0.00007503    0.00011287   -0.00032122
     atom    9 type  2   force =     0.00002816    0.00009214   -0.00022151
     atom   10 type  1   force =    -0.00023544    0.00006419   -0.00112384
     atom   11 type  2   force =    -0.00004265    0.00008415   -0.00027180
     atom   12 type  2   force =     0.00007777    0.00008331   -0.00014602
     atom   13 type  1   force =    -0.00004500    0.00034020   -0.00073697
     atom   14 type  2   force =     0.00010198   -0.00009463   -0.00029733
     atom   15 type  2   force =    -0.00001624   -0.00016767   -0.00010820
     atom   16 type  1   force =    -0.00078755    0.00037554   -0.00062757
     atom   17 type  2   force =    -0.00004064    0.00010471   -0.00039779
     atom   18 type  2   force =    -0.00017322    0.00015898   -0.00001618
     atom   19 type  1   force =     0.00051213   -0.00008380   -0.00104622
     atom   20 type  2   force =    -0.00013932   -0.00000022   -0.00002910
     atom   21 type  1   force =     0.00004046   -0.00004378   -0.00076634
     atom   22 type  2   force =     0.00008053    0.00010047   -0.00031834
     atom   23 type  2   force =     0.00001850    0.00003069   -0.00014050
     atom   24 type  1   force =    -0.00023242    0.00032751   -0.00097795
     atom   25 type  2   force =     0.00008279    0.00000525   -0.00016193
     atom   26 type  2   force =    -0.00005075    0.00000091   -0.00031161
     atom   27 type  1   force =     0.00045741   -0.00045060   -0.00110474
     atom   28 type  2   force =     0.00006302   -0.00013588   -0.00034419
     atom   29 type  2   force =     0.00018837   -0.00001639   -0.00012693
     atom   30 type  1   force =    -0.00036179    0.00034282   -0.00103937
     atom   31 type  2   force =     0.00013734   -0.00009117   -0.00031445
     atom   32 type  2   force =     0.00010804   -0.00012900   -0.00033902
     atom   33 type  1   force =     0.00015971   -0.00020949   -0.00097559
     atom   34 type  2   force =    -0.00002719   -0.00001905   -0.00026102
     atom   35 type  2   force =    -0.00009282    0.00007550   -0.00022346
     atom   36 type  3   force =     0.00022817   -0.00075885   -0.00061628

     Total force =     0.201862     Total SCF correction =     0.003915
     Energy error            =      4.5E-02 Ry
     Gradient error          =      1.5E-01 Ry/Bohr

     number of scf cycles    =   2
     number of bfgs steps    =   1

     energy             old  =   -2246.1981411159 Ry
     energy             new  =   -2246.2428544416 Ry

     CASE: energy            _new < energy            _old


     WARNING: bfgs curvature condition failed, Theta= 0.922
     new trust radius        =       0.1547716598 bohr
     new conv_thr            =       0.0000001481 Ry


ATOMIC_POSITIONS (angstrom)
Mo            6.5857944289        1.7638009886        2.8298401827
S             8.1628092768        0.8262436376        4.4348160669
S             8.1814327772        0.8204039758        1.2728001494
Mo            8.0980843642        4.4928919893        2.7128116362
S             6.4985111498        3.7139886803        4.3394717115
S             6.5587122485        3.5200801093        1.1214960307
Mo            6.4956716000        7.2082647340        2.6661663738
S             8.0792787973        6.3452247913        4.2580723336
S             8.0994097744        6.3098705424        1.0939081753
Mo            8.1508656672        9.9096318388        2.8191330686
S             6.4998624164        8.9416047544        4.3777133942
S             6.6158273672        9.0495803116        1.1472000556
Mo            3.4375722293        1.7490033035        2.7639997173
S             4.9827568447        0.8163306258        4.3635936889
S             5.0436281969        0.8486863776        1.2173019648
Mo            4.9703647566        4.5313825826        2.6371249316
S             3.4319236544        3.6629849025        4.2633899677
S             3.4368906803        3.5414583139        1.0692063330
Mo            3.4747042892        7.1938528754        2.6331442161
S             4.9815339929        6.3224941794        1.0350981572
Mo            5.0074516731        9.9045370309        2.7423561855
S             3.4684839112        8.9482814278        4.3220013433
S             3.4093718165        9.0702827863        1.1035849061
Mo            0.2759999299        1.7487562246        2.8294110089
S             1.8659765192        0.8095966754        4.4052372426
S             1.8498904208        0.8518671484        1.2048575461
Mo            1.8653397398        4.4642208149        2.5992957738
S             0.2457268851        3.6315163217        4.3092350642
S             0.2327209315        3.5264062073        1.1651986788
Mo            0.2524781442        7.2158659430        2.7135318716
S             1.9287355321        6.2443352988        4.2919786924
S             1.8529847658        6.3194283383        1.0535546617
Mo            1.8558716899        9.9242107784        2.7664079390
S             0.2964367838        9.0538927896        4.4028736372
S             0.2673568653        9.0519369276        1.1626057625
O             2.1133891136        5.0053210722        5.3919214026



     Writing config-only to output data dir ./MoS2-V-O.save/
     NEW-OLD atomic charge density approx. for the potential

     negative rho (up, down):  1.753E-04 0.000E+00

     total cpu time spent up to now is      209.7 secs

     Self-consistent Calculation

     iteration #  1     ecut=    80.00 Ry     beta= 0.70
     Davidson diagonalization with overlap
     ethr =  1.00E-06,  avg # of iterations = 11.0

     negative rho (up, down):  1.140E-04 0.000E+00

     total cpu time spent up to now is      222.4 secs

     total energy              =   -2246.27984594 Ry
     estimated scf accuracy    <       0.01197648 Ry

     iteration #  2     ecut=    80.00 Ry     beta= 0.70
     Davidson diagonalization with overlap
     ethr =  3.84E-06,  avg # of iterations =  6.0

     negative rho (up, down):  1.190E-04 0.000E+00

     total cpu time spent up to now is      233.2 secs

     total energy              =   -2246.28211413 Ry
     estimated scf accuracy    <       0.00814455 Ry

     iteration #  3     ecut=    80.00 Ry     beta= 0.70
     Davidson diagonalization with overlap
     ethr =  2.61E-06,  avg # of iterations =  4.0

     negative rho (up, down):  9.605E-05 0.000E+00

     total cpu time spent up to now is      249.9 secs

     total energy              =   -2246.28270336 Ry
     estimated scf accuracy    <       0.00048631 Ry

     iteration #  4     ecut=    80.00 Ry     beta= 0.70
     Davidson diagonalization with overlap
     ethr =  1.56E-07,  avg # of iterations =  6.0

     negative rho (up, down):  9.637E-05 0.000E+00

     total cpu time spent up to now is      262.7 secs

     total energy              =   -2246.28277006 Ry
     estimated scf accuracy    <       0.00002833 Ry

     iteration #  5     ecut=    80.00 Ry     beta= 0.70
     Davidson diagonalization with overlap
     ethr =  9.08E-09,  avg # of iterations =  5.0

     negative rho (up, down):  1.010E-04 0.000E+00

     total cpu time spent up to now is      278.2 secs

     total energy              =   -2246.28277868 Ry
     estimated scf accuracy    <       0.00000656 Ry

     iteration #  6     ecut=    80.00 Ry     beta= 0.70
     Davidson diagonalization with overlap
     ethr =  2.10E-09,  avg # of iterations =  2.0

     negative rho (up, down):  1.097E-04 0.000E+00

     total cpu time spent up to now is      289.6 secs

     total energy              =   -2246.28277940 Ry
     estimated scf accuracy    <       0.00000130 Ry

     iteration #  7     ecut=    80.00 Ry     beta= 0.70
     Davidson diagonalization with overlap
     ethr =  4.16E-10,  avg # of iterations =  5.0

     negative rho (up, down):  1.188E-04 0.000E+00

     total cpu time spent up to now is      298.9 secs

     total energy              =   -2246.28277965 Ry
     estimated scf accuracy    <       0.00000071 Ry

     iteration #  8     ecut=    80.00 Ry     beta= 0.70
     Davidson diagonalization with overlap
     ethr =  2.28E-10,  avg # of iterations =  2.0

     negative rho (up, down):  1.409E-04 0.000E+00

     total cpu time spent up to now is      309.0 secs

     total energy              =   -2246.28277970 Ry
     estimated scf accuracy    <       0.00000026 Ry

     iteration #  9     ecut=    80.00 Ry     beta= 0.70
     Davidson diagonalization with overlap
     ethr =  8.28E-11,  avg # of iterations =  5.0

     negative rho (up, down):  2.003E-04 0.000E+00

     total cpu time spent up to now is      312.3 secs

     End of self-consistent calculation

          k = 0.0000 0.0000 0.0000 (105382 PWs)   bands (ev):

   -62.9755 -62.9677 -62.9545 -62.9402 -62.9395 -62.9247 -62.9138 -62.9103
   -62.9011 -62.8906 -62.8627 -62.8183 -37.3360 -37.2776 -37.2526 -37.2306
   -37.2153 -37.1996 -37.1803 -37.1753 -37.1687 -37.1565 -37.1519 -37.1373
   -37.1273 -37.1189 -37.1162 -37.1101 -37.1036 -37.0937 -37.0860 -37.0790
   -37.0750 -37.0658 -37.0571 -37.0328 -37.0247 -37.0080 -37.0057 -36.9961
   -36.9905 -36.9718 -36.9585 -36.9524 -36.9442 -36.8857 -36.8577 -36.8411
   -21.0623 -16.0183 -15.3130 -15.1861 -15.0167 -14.9630 -14.8584 -14.7088
   -14.5315 -14.5131 -14.5016 -14.4370 -14.4303 -14.3829 -14.3209 -14.2978
   -14.2179 -14.2070 -14.1328 -13.9830 -13.9601 -13.9455 -13.9231 -13.8725
    -8.0289  -7.7925  -7.6312  -7.5214  -7.4497  -7.3456  -7.3030  -7.2499
    -7.2053  -6.9890  -6.9324  -6.8857  -6.8057  -6.7617  -6.6814  -6.6522
    -6.5240  -6.5073  -6.3949  -6.3293  -6.1892  -6.0980  -5.9552  -5.9196
    -5.8920  -5.8448  -5.8364  -5.8140  -5.7646  -5.7314  -5.6653  -5.6451
    -5.6124  -5.5793  -5.4960  -5.3386  -5.2364  -5.1917  -5.1272  -5.0763
    -5.0654  -5.0610  -4.9875  -4.8795  -4.8002  -4.6161  -4.5237  -4.4219
    -4.3617  -4.3086  -4.2087  -4.1673  -4.1351  -4.0382  -3.9214  -3.8775
    -3.8559  -3.7771  -3.6935  -3.6490  -3.6218  -3.5894  -3.5726  -3.5369
    -3.4966  -3.4854  -3.3506  -3.3116  -3.0713  -2.9728  -2.9495  -2.9240
    -2.9092  -2.8499  -2.8105  -2.7856  -2.7437  -2.6972  -2.4711  -2.4055
    -2.1768  -2.1101  -1.9541  -1.6916  -0.8853  -0.8682  -0.8515  -0.2681
    -0.2122  -0.1386  -0.1174  -0.0028   0.0503   0.0990   0.1642   0.2149
     0.2419   0.2659   0.3227   0.3769   0.4258   0.4907   0.5018   0.5219
     0.6416   0.6498   0.6733   0.6946   0.7192   0.7784   0.8341   0.8822
     0.9131   0.9937   1.0875

     the Fermi energy is    -1.2939 ev

!    total energy              =   -2246.28277967 Ry
     estimated scf accuracy    <       0.00000004 Ry
     smearing contrib. (-TS)   =      -0.00000224 Ry
     internal energy E=F+TS    =   -2246.28277743 Ry

     The total energy is F=E-TS. E is the sum of the following terms:
     one-electron contribution =  -18441.27920865 Ry
     hartree contribution      =    9208.58774829 Ry
     xc contribution           =    -392.01164426 Ry
     ewald contribution        =    7388.28747562 Ry
     one-center paw contrib.   =      -9.86714843 Ry

     convergence has been achieved in   9 iterations

     negative rho (up, down):  2.003E-04 0.000E+00

     Forces acting on atoms (cartesian axes, Ry/au):

     atom    1 type  1   force =    -0.00446215   -0.00699911   -0.00471592
     atom    2 type  2   force =    -0.00525744    0.00468175   -0.00183275
     atom    3 type  2   force =    -0.01092240    0.00466839   -0.01333247
     atom    4 type  1   force =     0.00298024    0.00957169   -0.00004809
     atom    5 type  2   force =    -0.00203895   -0.00586699   -0.00728172
     atom    6 type  2   force =    -0.00031656    0.00246592    0.00287496
     atom    7 type  1   force =     0.00182263   -0.00782758    0.00388447
     atom    8 type  2   force =    -0.00460393   -0.00530892    0.00943574
     atom    9 type  2   force =     0.01176568    0.00337520    0.00406624
     atom   10 type  1   force =    -0.00065658    0.00629230    0.00119514
     atom   11 type  2   force =     0.00296298   -0.00040330   -0.00847083
     atom   12 type  2   force =    -0.00420587   -0.00016047   -0.00122603
     atom   13 type  1   force =     0.00507347   -0.00041073   -0.00173877
     atom   14 type  2   force =     0.00415549   -0.00122496    0.00609022
     atom   15 type  2   force =    -0.00340572   -0.00007569   -0.00709019
     atom   16 type  1   force =    -0.00081633    0.00652255    0.00154417
     atom   17 type  2   force =     0.00682499   -0.01614219   -0.02233402
     atom   18 type  2   force =     0.01011557   -0.00879239   -0.00687365
     atom   19 type  1   force =     0.00534812   -0.00858208    0.01387174
     atom   20 type  2   force =     0.00162730   -0.00265362   -0.00667190
     atom   21 type  1   force =    -0.00234954    0.00217258    0.00275228
     atom   22 type  2   force =    -0.00068176   -0.00167605   -0.00355866
     atom   23 type  2   force =     0.00241020   -0.00380614    0.00369901
     atom   24 type  1   force =    -0.00523029   -0.00809102   -0.00616330
     atom   25 type  2   force =     0.00672176    0.00964172   -0.00718681
     atom   26 type  2   force =    -0.00525374   -0.00377334   -0.00188234
     atom   27 type  1   force =    -0.00036073   -0.00639896   -0.00507679
     atom   28 type  2   force =    -0.00125260   -0.00817400   -0.01627481
     atom   29 type  2   force =    -0.00857946   -0.00613447   -0.01957596
     atom   30 type  1   force =     0.00033155   -0.01122170    0.02012462
     atom   31 type  2   force =     0.02317257   -0.06883126    0.02619945
     atom   32 type  2   force =    -0.00617112    0.00852990    0.00666656
     atom   33 type  1   force =     0.00067277   -0.00126631    0.00607721
     atom   34 type  2   force =    -0.00240132   -0.01924038   -0.01305845
     atom   35 type  2   force =    -0.00463741    0.00296081    0.00525771
     atom   36 type  3   force =    -0.01238142    0.14217886    0.04065395
     The non-local contrib.  to forces
     atom    1 type  1   force =     0.00280453    0.03001450   -0.01598946
     atom    2 type  2   force =    -0.00249988   -0.00545501   -0.27127475
     atom    3 type  2   force =    -0.01320113   -0.00846456    0.26232314
     atom    4 type  1   force =     0.00215039   -0.00460875    0.00613099
     atom    5 type  2   force =     0.00469651   -0.03229569   -0.25669340
     atom    6 type  2   force =    -0.00657207    0.00684684    0.27051459
     atom    7 type  1   force =    -0.01976968    0.00172474   -0.02863032
     atom    8 type  2   force =     0.00298293   -0.00483290   -0.25716045
     atom    9 type  2   force =     0.00683092   -0.00051684    0.27127943
     atom   10 type  1   force =     0.00013842    0.00873904   -0.00124695
     atom   11 type  2   force =     0.00965838    0.00342941   -0.26476414
     atom   12 type  2   force =    -0.01442906   -0.01785143    0.25811529
     atom   13 type  1   force =     0.00391232    0.03808332   -0.00780891
     atom   14 type  2   force =     0.00842316   -0.01191104   -0.26690939
     atom   15 type  2   force =    -0.00513472   -0.00963553    0.26189792
     atom   16 type  1   force =    -0.00087350    0.00614372   -0.03806226
     atom   17 type  2   force =    -0.02476360    0.01980555   -0.20297292
     atom   18 type  2   force =     0.00591195   -0.00197599    0.26379822
     atom   19 type  1   force =     0.00988610   -0.00400770   -0.01060847
     atom   20 type  2   force =    -0.00010817   -0.00931251    0.25633674
     atom   21 type  1   force =     0.00398818    0.03003839    0.00534022
     atom   22 type  2   force =    -0.00631905   -0.00219276   -0.26002006
     atom   23 type  2   force =     0.00848819   -0.02156881    0.26674647
     atom   24 type  1   force =    -0.00007185    0.02109286   -0.01042966
     atom   25 type  2   force =     0.00224830   -0.00728468   -0.27116039
     atom   26 type  2   force =     0.00263516   -0.01400048    0.26395810
     atom   27 type  1   force =     0.00282813    0.00089983    0.03379469
     atom   28 type  2   force =    -0.03050663   -0.03196261   -0.27624399
     atom   29 type  2   force =    -0.00339082   -0.00147775    0.25536580
     atom   30 type  1   force =    -0.00155476    0.00056495   -0.00334198
     atom   31 type  2   force =     0.03565054   -0.37887571    0.15531052
     atom   32 type  2   force =     0.00161375   -0.01188145    0.27920834
     atom   33 type  1   force =    -0.00255353    0.02457595    0.00639733
     atom   34 type  2   force =    -0.00281960   -0.02291085   -0.27457562
     atom   35 type  2   force =    -0.00162529   -0.01544866    0.26940031
     atom   36 type  3   force =    -0.12147072    1.25729781   -1.05658011
     The ionic contribution  to forces
[...]
     atom   28 type  2   force =     0.00019849   -0.01208959   -0.27852270
     atom   29 type  2   force =     0.00207992   -0.00623149    0.26644966
     atom   30 type  1   force =     0.00495009    0.00310298    0.01932946
     atom   31 type  2   force =     0.00209369   -0.03572937    0.29899139
     atom   32 type  2   force =     0.00778022   -0.01348574    0.28132638
     atom   33 type  1   force =    -0.00079262    0.00454087    0.00136066
     atom   34 type  2   force =    -0.00096837   -0.00923520   -0.27691389
     atom   35 type  2   force =    -0.00018660   -0.01448691    0.26407705
     atom   36 type  3   force =    -0.05677935    0.05355487   -2.30806896
     The ionic contribution  to forces
     atom    1 type  1   force =    -0.06570498    0.52588771    1.84119250
     atom    2 type  2   force =    -0.29556376    0.06208838   38.75257315
     atom    3 type  2   force =     0.06260464   -0.05547089  -37.81592092
     atom    4 type  1   force =    -0.60293268   -0.25417482   -0.85048002
     atom    5 type  2   force =    -0.78348144    0.84621293   38.00641325
     atom    6 type  2   force =     0.21456040   -0.50488246  -38.46079046
     atom    7 type  1   force =    -2.52051181   -1.54810617    0.94677165
     atom    8 type  2   force =    -2.00646305    0.06288271   37.60960569
     atom    9 type  2   force =     0.32815432   -0.03384173  -38.67455057
     atom   10 type  1   force =    -0.73551229    0.17327550    2.05619028
     atom   11 type  2   force =    -0.40908344   -1.09845191   38.23935053
     atom   12 type  2   force =     0.28108564    0.48512310  -38.40395331
     atom   13 type  1   force =     0.25409179    0.14988113    1.95468815
     atom   14 type  2   force =     0.10446084   -0.06915501   38.48042522
     atom   15 type  2   force =     0.03033803   -0.09948566  -37.95134835
     atom   16 type  1   force =     0.63018355    2.73622149    0.39789459
     atom   17 type  2   force =     1.45953135    0.08973046   37.63034625
     atom   18 type  2   force =    -0.11829874   -0.52328874  -38.79343263
     atom   19 type  1   force =     3.32724813   -1.38081382   -2.33988427
     atom   20 type  2   force =     0.11339734   -0.10287058  -39.63142024
     atom   21 type  1   force =     0.35473527    0.40546342   -0.09429607
     atom   22 type  2   force =     1.06179219   -0.31751741   37.87275976
     atom   23 type  2   force =    -0.24242194    0.58736012  -38.80081305
     atom   24 type  1   force =    -0.16005295   -0.13794540    2.08691682
     atom   25 type  2   force =     0.18197980    0.04671524   38.60618343
     atom   26 type  2   force =    -0.10995264   -0.07238867  -37.70578251
     atom   27 type  1   force =     0.00987627   -0.90273495   -3.95501722
     atom   28 type  2   force =    -0.63233455   -0.44024566   37.55542153
     atom   29 type  2   force =    -0.10727037   -0.27225114  -38.34793730
     atom   30 type  1   force =    -1.06291477   -0.02665420   -1.44716392
     atom   31 type  2   force =     1.02332959    0.27188123   28.00327357
     atom   32 type  2   force =    -0.40869012    0.02472120  -38.65429605
     atom   33 type  1   force =     0.35020187    0.63923635    1.76492253
     atom   34 type  2   force =    -0.55047079    0.57386663   38.33030875
     atom   35 type  2   force =    -0.02084697    0.36448378  -38.15162029
     atom   36 type  3   force =     1.04493625   -0.20475218   49.94346952
     The local contribution  to forces
     atom    1 type  1   force =     0.06618510   -0.54925247   -1.83401618
     atom    2 type  2   force =     0.29346555   -0.05079604  -38.50421847
     atom    3 type  2   force =    -0.05940057    0.06526011   37.57025586
     atom    4 type  1   force =     0.59706291    0.24811766    0.84802861
     atom    5 type  2   force =     0.78150917   -0.82476132  -37.76892821
     atom    6 type  2   force =    -0.21404823    0.50638186   38.21331145
     atom    7 type  1   force =     2.53702299    1.54376080   -0.92051269
     atom    8 type  2   force =     1.99797684   -0.06253520  -37.36209610
     atom    9 type  2   force =    -0.31957441    0.04696869   38.43134121
     atom   10 type  1   force =     0.73627402   -0.18055541   -2.05941002
     atom   11 type  2   force =     0.40258410    1.10078545  -37.99658398
     atom   12 type  2   force =    -0.27253243   -0.47091181   38.16032705
     atom   13 type  1   force =    -0.26031142   -0.17586165   -1.94801728
     atom   14 type  2   force =    -0.10253148    0.07907397  -38.23011622
     atom   15 type  2   force =    -0.03042927    0.10873377   37.70893711
     atom   16 type  1   force =    -0.62923155   -2.76701457   -0.35971830
     atom   17 type  2   force =    -1.45740825   -0.06756406  -37.39089700
     atom   18 type  2   force =     0.11806000    0.52455355   38.54661119
     atom   19 type  1   force =    -3.33623938    1.38977352    2.34474159
     atom   20 type  2   force =    -0.11373134    0.11341728   39.39117739
     atom   21 type  1   force =    -0.35560230   -0.43264170    0.09003826
     atom   22 type  2   force =    -1.05727281    0.32006485  -37.62867487
     atom   23 type  2   force =     0.23391338   -0.57221142   38.55895444
     atom   24 type  1   force =     0.16539307    0.12449981   -2.08522507
     atom   25 type  2   force =    -0.18271531   -0.03678934  -38.35687110
     atom   26 type  2   force =     0.10659502    0.08201091   37.45777082
     atom   27 type  1   force =    -0.00828308    0.88110312    3.93442256
     atom   28 type  2   force =     0.63135211    0.45106184  -37.29864177
     atom   29 type  2   force =     0.10577609    0.27892672   38.10114690
     atom   30 type  1   force =     1.05878131    0.02317870    1.42751288
     atom   31 type  2   force =    -1.02604909   -0.23870663  -28.29231278
     atom   32 type  2   force =     0.40178176   -0.01271410   38.39496430
     atom   33 type  1   force =    -0.35003548   -0.64309693   -1.76562826
     atom   34 type  2   force =     0.55121663   -0.56541792  -38.07451854
     atom   35 type  2   force =     0.02120529   -0.35069985   37.90791917
     atom   36 type  3   force =    -0.98935883    0.15167612  -47.66191536
     The core correction contribution to forces
     atom    1 type  1   force =     0.00000000    0.00000000    0.00000000
     atom    2 type  2   force =    -0.00018741    0.00049645    0.02100098
     atom    3 type  2   force =     0.00023565    0.00044463   -0.02087477
     atom    4 type  1   force =     0.00000000    0.00000000    0.00000000
     atom    5 type  2   force =    -0.00032327    0.00096679    0.02052330
     atom    6 type  2   force =     0.00014422   -0.00041470   -0.02096650
     atom    7 type  1   force =     0.00000000    0.00000000    0.00000000
     atom    8 type  2   force =    -0.00044167    0.00015872    0.02118899
     atom    9 type  2   force =     0.00075332    0.00069088   -0.02074771
     atom   10 type  1   force =     0.00000000    0.00000000    0.00000000
     atom   11 type  2   force =    -0.00018190   -0.00017329    0.02084732
     atom   12 type  2   force =     0.00077128    0.00103346   -0.02079643
     atom   13 type  1   force =     0.00000000    0.00000000    0.00000000
     atom   14 type  2   force =     0.00009167    0.00015990    0.02106789
     atom   15 type  2   force =    -0.00006348    0.00049092   -0.02074175
     atom   16 type  1   force =     0.00000000    0.00000000    0.00000000
     atom   17 type  2   force =     0.00030100    0.00116319    0.02083608
     atom   18 type  2   force =    -0.00014991   -0.00040008   -0.02096462
     atom   19 type  1   force =     0.00000000    0.00000000    0.00000000
     atom   20 type  2   force =     0.00002891    0.00037967   -0.02109618
     atom   21 type  1   force =     0.00000000    0.00000000    0.00000000
     atom   22 type  2   force =     0.00008304   -0.00017038    0.02101132
     atom   23 type  2   force =    -0.00074614    0.00123602   -0.02081482
     atom   24 type  1   force =     0.00000000    0.00000000    0.00000000
     atom   25 type  2   force =     0.00000016    0.00040395    0.02100010
     atom   26 type  2   force =    -0.00020587    0.00048419   -0.02091830
     atom   27 type  1   force =     0.00000000    0.00000000    0.00000000
     atom   28 type  2   force =     0.00001085    0.00091610    0.02147989
     atom   29 type  2   force =    -0.00015559    0.00009358   -0.02078609
     atom   30 type  1   force =     0.00000000    0.00000000    0.00000000
     atom   31 type  2   force =    -0.00002218    0.00196858   -0.00987706
     atom   32 type  2   force =    -0.00073559    0.00076791   -0.02143452
     atom   33 type  1   force =     0.00000000    0.00000000    0.00000000
     atom   34 type  2   force =     0.00009514    0.00037770    0.02151280
     atom   35 type  2   force =     0.00007209    0.00087626   -0.02083931
     atom   36 type  3   force =     0.00061581   -0.00055050    0.02446181
     The Hubbard contrib.    to forces
     atom    1 type  1   force =     0.00000000    0.00000000    0.00000000
     atom    2 type  2   force =     0.00000000    0.00000000    0.00000000
     atom    3 type  2   force =     0.00000000    0.00000000    0.00000000
     atom    4 type  1   force =     0.00000000    0.00000000    0.00000000
     atom    5 type  2   force =     0.00000000    0.00000000    0.00000000
     atom    6 type  2   force =     0.00000000    0.00000000    0.00000000
     atom    7 type  1   force =     0.00000000    0.00000000    0.00000000
     atom    8 type  2   force =     0.00000000    0.00000000    0.00000000
     atom    9 type  2   force =     0.00000000    0.00000000    0.00000000
     atom   10 type  1   force =     0.00000000    0.00000000    0.00000000
     atom   11 type  2   force =     0.00000000    0.00000000    0.00000000
     atom   12 type  2   force =     0.00000000    0.00000000    0.00000000
     atom   13 type  1   force =     0.00000000    0.00000000    0.00000000
     atom   14 type  2   force =     0.00000000    0.00000000    0.00000000
     atom   15 type  2   force =     0.00000000    0.00000000    0.00000000
     atom   16 type  1   force =     0.00000000    0.00000000    0.00000000
     atom   17 type  2   force =     0.00000000    0.00000000    0.00000000
     atom   18 type  2   force =     0.00000000    0.00000000    0.00000000
     atom   19 type  1   force =     0.00000000    0.00000000    0.00000000
     atom   20 type  2   force =     0.00000000    0.00000000    0.00000000
     atom   21 type  1   force =     0.00000000    0.00000000    0.00000000
     atom   22 type  2   force =     0.00000000    0.00000000    0.00000000
     atom   23 type  2   force =     0.00000000    0.00000000    0.00000000
     atom   24 type  1   force =     0.00000000    0.00000000    0.00000000
     atom   25 type  2   force =     0.00000000    0.00000000    0.00000000
     atom   26 type  2   force =     0.00000000    0.00000000    0.00000000
     atom   27 type  1   force =     0.00000000    0.00000000    0.00000000
     atom   28 type  2   force =     0.00000000    0.00000000    0.00000000
     atom   29 type  2   force =     0.00000000    0.00000000    0.00000000
     atom   30 type  1   force =     0.00000000    0.00000000    0.00000000
     atom   31 type  2   force =     0.00000000    0.00000000    0.00000000
     atom   32 type  2   force =     0.00000000    0.00000000    0.00000000
     atom   33 type  1   force =     0.00000000    0.00000000    0.00000000
     atom   34 type  2   force =     0.00000000    0.00000000    0.00000000
     atom   35 type  2   force =     0.00000000    0.00000000    0.00000000
     atom   36 type  3   force =     0.00000000    0.00000000    0.00000000
     The SCF correction term to forces
     atom    1 type  1   force =     0.00000642   -0.00001294   -0.00004039
     atom    2 type  2   force =    -0.00000983   -0.00002271   -0.00002180
     atom    3 type  2   force =    -0.00001184   -0.00001013   -0.00000692
     atom    4 type  1   force =    -0.00003323   -0.00000002   -0.00005281
     atom    5 type  2   force =    -0.00000005   -0.00000940   -0.00002875
     atom    6 type  2   force =    -0.00000208   -0.00000932   -0.00001206
     atom    7 type  1   force =    -0.00000168    0.00002800   -0.00002657
     atom    8 type  2   force =    -0.00001979    0.00001369   -0.00001831
     atom    9 type  2   force =    -0.00000976    0.00000327   -0.00001141
     atom   10 type  1   force =    -0.00001557   -0.00000149   -0.00002665
     atom   11 type  2   force =     0.00000230    0.00000499   -0.00001645
     atom   12 type  2   force =     0.00000369    0.00000971    0.00000404
     atom   13 type  1   force =     0.00002457   -0.00003767   -0.00005501
     atom   14 type  2   force =     0.00000981   -0.00001877   -0.00001858
     atom   15 type  2   force =     0.00000901   -0.00000852   -0.00001248
     atom   16 type  1   force =     0.00002843    0.00000756   -0.00005940
     atom   17 type  2   force =     0.00001340   -0.00000530   -0.00002310
     atom   18 type  2   force =     0.00000990   -0.00000144   -0.00001974
     atom   19 type  1   force =     0.00002617    0.00003928   -0.00003874
     atom   20 type  2   force =     0.00000830   -0.00000136   -0.00000871
     atom   21 type  1   force =     0.00001137   -0.00000300   -0.00002400
     atom   22 type  2   force =     0.00000886    0.00001269   -0.00001679
     atom   23 type  2   force =     0.00000118    0.00001277   -0.00000563
     atom   24 type  1   force =    -0.00001748   -0.00004008   -0.00005572
     atom   25 type  2   force =    -0.00000122   -0.00002469   -0.00001604
     atom   26 type  2   force =     0.00000050   -0.00001598   -0.00001486
     atom   27 type  1   force =     0.00000176   -0.00001620   -0.00007755
     atom   28 type  2   force =    -0.00001146   -0.00000793   -0.00002517
     atom   29 type  2   force =    -0.00000777   -0.00000375   -0.00001931
     atom   30 type  1   force =    -0.00001951    0.00004221   -0.00004503
     atom   31 type  2   force =     0.00000696    0.00002190   -0.00003432
     atom   32 type  2   force =     0.00000063    0.00000889   -0.00002164
     atom   33 type  1   force =     0.00000019    0.00000075   -0.00003767
     atom   34 type  2   force =    -0.00000897    0.00001755   -0.00002268
     atom   35 type  2   force =    -0.00000384    0.00001429   -0.00000344
     atom   36 type  3   force =     0.00002578    0.00004754   -0.00001248

     Total force =     0.006522     Total SCF correction =     0.000235
     Energy error            =      9.1E-05 Ry
     Gradient error          =      2.3E-03 Ry/Bohr

     bfgs converged in  26 scf cycles and  25 bfgs steps
     (criteria: energy <  1.0E-04 Ry, force <  1.0E-02 Ry/Bohr)

     End of BFGS Geometry Optimization

     Final energy             =   -2246.4507220422 Ry

     File ./MoS2-V-O.bfgs deleted, as requested
Begin final coordinates

ATOMIC_POSITIONS (angstrom)
Mo            6.5669996100        1.7112358549        2.7628095085
S             8.1345501755        0.8072963077        4.3748670483
S             8.1506112638        0.8014201281        1.1864771693
Mo            8.1246434145        4.4531609698        2.7129826891
S             6.5240958604        3.6201004387        4.3055239157
S             6.5571167405        3.5169539619        1.1120197004
Mo            6.5183867893        7.1436791361        2.6622151656
S             8.0645596420        6.2684778197        4.2985162852
S             8.1327871668        6.2775457907        1.1082873226
Mo            8.1485322594        9.8965344610        2.7729299718
S             6.5243973722        8.9113944039        4.3245635750
S             6.5979316346        8.9968134818        1.1279339639
Mo            3.4406964890        1.7246494206        2.7671415631
S             5.0018888465        0.7737021179        4.3503407811
S             4.9999068660        0.8063858122        1.1701560854
Mo            4.9984046856        4.5068100467        2.6567702209
S             3.4683429377        3.6400152842        4.3131239048
S             3.4570715797        3.5138819597        1.1024683674
Mo            3.5036966461        7.1637300314        2.6372292971
S             5.0100366041        6.2665033520        1.0230767083
Mo            5.0004776071        9.8703849119        2.7267598215
S             3.4839333490        8.8939348638        4.3295921622
S             3.4070466159        9.0131612025        1.1122158024
Mo            0.2677581800        1.7092861153        2.7816075218
S             1.8668824428        0.8080663745        4.3760154575
S             1.8551390330        0.8114054806        1.1922186219
Mo            1.8718970768        4.4304312048        2.6906859930
S             0.2795867524        3.5806065059        4.3235188552
S             0.2543773517        3.5042288351        1.1424082035
Mo            0.2422259541        7.1894151906        2.7344333356
S             1.9131847009        6.2844534848        4.2032488022
S             1.8431100693        6.2886496432        1.1166080812
Mo            1.8654764788        9.8932199000        2.7753443227
S             0.2762555284        8.9887018012        4.3713427181
S             0.2775109059        9.0263560290        1.1729764917
O             1.9443306045        6.2456429772        5.7019304376
End final coordinates



     Writing all to output data dir ./MoS2-V-O.save/
 
     init_run     :      4.60s CPU      4.90s WALL (       1 calls)
     electrons    :   2369.23s CPU   2606.98s WALL (      26 calls)
     update_pot   :     76.29s CPU     79.77s WALL (      25 calls)
     forces       :     70.87s CPU     76.32s WALL (      26 calls)

     Called by init_run:
     wfcinit      :      0.50s CPU      0.54s WALL (       1 calls)
     potinit      :      2.34s CPU      2.49s WALL (       1 calls)
     hinit0       :      0.45s CPU      0.48s WALL (       1 calls)

     Called by electrons:
     c_bands      :    347.04s CPU    353.56s WALL (     238 calls)
     sum_band     :    145.60s CPU    162.50s WALL (     238 calls)
     v_of_rho     :    220.30s CPU    252.47s WALL (     253 calls)
     newd         :     75.72s CPU     89.43s WALL (     253 calls)
     PAW_pot      :     10.08s CPU     10.11s WALL (     278 calls)
     mix_rho      :   1596.49s CPU   1764.06s WALL (     238 calls)

     Called by c_bands:
     init_us_2    :      5.72s CPU      5.90s WALL (     502 calls)
     init_us_2:cp :      5.72s CPU      5.90s WALL (     502 calls)
     regterg      :    329.86s CPU    336.16s WALL (     238 calls)

     Called by *egterg:
     rdiaghg      :     21.53s CPU     21.69s WALL (    1208 calls)
     h_psi        :    217.21s CPU    219.25s WALL (    1245 calls)
     s_psi        :     19.71s CPU     19.78s WALL (    1245 calls)
     g_psi        :      1.09s CPU      1.10s WALL (    1006 calls)

     Called by h_psi:
     h_psi:calbec :     21.76s CPU     21.85s WALL (    1245 calls)
     vloc_psi     :    173.25s CPU    175.08s WALL (    1245 calls)
     add_vuspsi   :     19.45s CPU     19.54s WALL (    1245 calls)

     General routines
     calbec       :     31.87s CPU     32.01s WALL (    1612 calls)
     fft          :    151.54s CPU    174.93s WALL (   16951 calls)
     ffts         :    721.59s CPU    883.25s WALL (  386868 calls)
     fftw         :    109.07s CPU    110.08s WALL (  146076 calls)
     interpolate  :      3.16s CPU      3.62s WALL (     253 calls)
 
     Parallel routines
 
     PWSCF        :  42m12.00s CPU  46m22.03s WALL

 
   This run was terminated on:  17: 4:25   1Nov2023            

=------------------------------------------------------------------------------=
   JOB DONE.
=------------------------------------------------------------------------------=
