
     Program PWSCF v.7.2 starts on  1Nov2023 at 11:43:55 

     This program is part of the open-source Quantum ESPRESSO suite
     for quantum simulation of materials; please cite
         "P. Giannozzi et al., J. Phys.:Condens. Matter 21 395502 (2009);
         "P. Giannozzi et al., J. Phys.:Condens. Matter 29 465901 (2017);
         "P. Giannozzi et al., J. Chem. Phys. 152 154105 (2020);
          URL http://www.quantum-espresso.org", 
     in publications or presentations arising from this work. More details at
     http://www.quantum-espresso.org/quote

     Parallel version (MPI & OpenMP), running on      48 processor cores
     Number of MPI processes:                48
     Threads/MPI process:                     1

     MPI processes distributed on     1 nodes
     49321 MiB available memory on the printing compute node when the environment starts
 
     Waiting for input...
     Reading input from standard input
Warning: card &CELL ignored
Warning: card CELL_DYNAMICS = 'BFGS', ignored
Warning: card CELL_DOFREE = '2DXY' ignored
Warning: card / ignored

     Current dimensions of program PWSCF are:
     Max number of different atomic species (ntypx) = 10
     Max number of k-points (npk) =  40000
     Max angular momentum in pseudopotentials (lmaxx) =  4
     file O.pbe-n-kjpaw_psl.0.1.UPF: wavefunction(s)  2P renormalized

     IMPORTANT: XC functional enforced from input :
     Exchange-correlation= RVV10
                           (   1   4  13   4  26   0   0)
     Any further DFT definition will be discarded
     Please, verify this is what you really want


     gamma-point specific algorithms are used
     signal trapping enabled: kill the code with -SIGUSR1 to stop cleanly the simulation 
 
     R & G space division:  proc/nbgrp/npool/nimage =      48
     Subspace diagonalization in iterative solution of the eigenvalue problem:
     one sub-group per band group will be used
     scalapack distributed-memory algorithm (size of sub-group:  2*  2 procs)

 
     Parallelization info
     --------------------
     sticks:   dense  smooth     PW     G-vecs:    dense   smooth      PW
     Min         396     194     47               101632    35090    4376
     Max         398     196     50               101674    35128    4410
     Sum       19091    9389   2349              4879585  1685513  210763
 
     Using Slab Decomposition
 


     bravais-lattice index     =            0
     lattice parameter (alat)  =      17.8707  a.u.
     unit-cell volume          =   17436.2743 (a.u.)^3
     number of atoms/cell      =           36
     number of atomic types    =            3
     number of electrons       =       312.00
     number of Kohn-Sham states=          187
     kinetic-energy cutoff     =      80.0000  Ry
     charge density cutoff     =     650.0000  Ry
     scf convergence threshold =      1.0E-06
     mixing beta               =       0.7000
     number of iterations used =            8  local-TF  mixing
     energy convergence thresh.=      1.0E-04
     force convergence thresh. =      1.0E-02
     Exchange-correlation= RVV10
                           (   1   4  13   4  26   0   0)
     nstep                     =          200


     celldm(1)=  17.870686  celldm(2)=   0.000000  celldm(3)=   0.000000
     celldm(4)=   0.000000  celldm(5)=   0.000000  celldm(6)=   0.000000

     crystal axes: (cart. coord. in units of alat)
               a(1) = (   1.000000   0.000000   0.000000 )  
               a(2) = (   0.000000   1.155671   0.000000 )  
               a(3) = (   0.000000   0.000000   2.643601 )  

     reciprocal axes: (cart. coord. in units 2 pi/alat)
               b(1) = (  1.000000  0.000000  0.000000 )  
               b(2) = (  0.000000  0.865298  0.000000 )  
               b(3) = (  0.000000  0.000000  0.378272 )  


     PseudoPot. # 1 for Mo read from file:
     ../pseudo/Mo_ONCV_PBE-1.0.oncvpsp.upf
     MD5 check sum: 1b5d28e075c9ccadda658a603575cd1f
     Pseudo is Norm-conserving, Zval = 14.0
     Generated using ONCVPSP code by D. R. Hamann
     Using radial grid of 1526 points,  6 beta functions with: 
                l(1) =   0
                l(2) =   0
                l(3) =   1
                l(4) =   1
                l(5) =   2
                l(6) =   2

     PseudoPot. # 2 for S  read from file:
     ../pseudo/s_pbe_v1.4.uspp.F.UPF
     MD5 check sum: 88d86576ff6df21479756cfb9bdac1df
     Pseudo is Ultrasoft + core correction, Zval =  6.0
     Generated by new atomic code, or converted to UPF format
     Using radial grid of  907 points,  6 beta functions with: 
                l(1) =   0
                l(2) =   0
                l(3) =   1
                l(4) =   1
                l(5) =   2
                l(6) =   2
     Q(r) pseudized with  8 coefficients,  rinner =    1.300   1.300   1.300
                                                       1.300   1.300

     PseudoPot. # 3 for O  read from file:
     ../pseudo/O.pbe-n-kjpaw_psl.0.1.UPF
     MD5 check sum: 0234752ac141de4415c5fc33072bef88
     Pseudo is Projector augmented-wave + core cor, Zval =  6.0
     Generated using "atomic" code by A. Dal Corso  v.5.0.99 svn rev. 10869
     Shape of augmentation charge: BESSEL
     Using radial grid of 1095 points,  4 beta functions with: 
                l(1) =   0
                l(2) =   0
                l(3) =   1
                l(4) =   1
     Q(r) pseudized with 0 coefficients 


     atomic species   valence    mass     pseudopotential
        Mo            14.00    95.94000     Mo( 1.00)
        S              6.00    32.06500     S ( 1.00)
        O              6.00    15.99940     O ( 1.00)

     No symmetry found



   Cartesian axes

     site n.     atom                  positions (alat units)
         1           Mo  tau(   1) = (   0.6952221   0.1890506   0.2985846  )
         2           S   tau(   2) = (   0.8646417   0.0856217   0.4689279  )
         3           S   tau(   3) = (   0.8663890   0.0857843   0.1351291  )
         4           Mo  tau(   4) = (   0.8560186   0.4753274   0.2873942  )
         5           S   tau(   5) = (   0.6873294   0.3936244   0.4596353  )
         6           S   tau(   6) = (   0.6929804   0.3713468   0.1185692  )
         7           Mo  tau(   7) = (   0.6862796   0.7633098   0.2825370  )
         8           S   tau(   8) = (   0.8545980   0.6708292   0.4486168  )
         9           S   tau(   9) = (   0.8545123   0.6666874   0.1146125  )
        10           Mo  tau(  10) = (   0.8629403   1.0471007   0.3006803  )
        11           S   tau(  11) = (   0.6868280   0.9456650   0.4634891  )
        12           S   tau(  12) = (   0.6998113   0.9568511   0.1205389  )
        13           Mo  tau(  13) = (   0.3618216   0.1847309   0.2935964  )
        14           S   tau(  14) = (   0.5260962   0.0863870   0.4600448  )
        15           S   tau(  15) = (   0.5348379   0.0894875   0.1297123  )
        16           Mo  tau(  16) = (   0.5265817   0.4772436   0.2784130  )
        17           S   tau(  17) = (   0.3624753   0.3882513   0.4525556  )
        18           S   tau(  18) = (   0.3635411   0.3752055   0.1119148  )
        19           Mo  tau(  19) = (   0.3652268   0.7630864   0.2781795  )
        20           S   tau(  20) = (   0.5269494   0.6690381   0.1096838  )
        21           Mo  tau(  21) = (   0.5300192   1.0470394   0.2900995  )
        22           S   tau(  22) = (   0.3670346   0.9457522   0.4574073  )
        23           S   tau(  23) = (   0.3604225   0.9585725   0.1159032  )
        24           Mo  tau(  24) = (   0.0313099   0.1847895   0.3013130  )
        25           S   tau(  25) = (   0.1956761   0.0838230   0.4650863  )
        26           S   tau(  26) = (   0.1967693   0.0903508   0.1278874  )
        27           Mo  tau(  27) = (   0.1967578   0.4753919   0.2813011  )
        28           S   tau(  28) = (   0.0287851   0.3864324   0.4586755  )
        29           S   tau(  29) = (   0.0244514   0.3729871   0.1239344  )
        30           Mo  tau(  30) = (   0.0286728   0.7631204   0.2856894  )
        31           S   tau(  31) = (   0.2011512   0.6675435   0.4465001  )
        32           S   tau(  32) = (   0.1969214   0.6672839   0.1104564  )
        33           Mo  tau(  33) = (   0.1950294   1.0511147   0.2932237  )
        34           S   tau(  34) = (   0.0312912   0.9612169   0.4667423  )
        35           S   tau(  35) = (   0.0292670   0.9563028   0.1216485  )
        36           O   tau(  36) = (   0.3333333   0.1284079   0.5650415  )

     number of k points=     1  Gaussian smearing, width (Ry)=  0.0100
                       cart. coord. in units 2pi/alat
        k(    1) = (   0.0000000   0.0000000   0.0000000), wk =   2.0000000

     Dense  grid:  2439793 G-vectors     FFT dimensions: ( 150, 180, 384)

     Smooth grid:   842757 G-vectors     FFT dimensions: ( 108, 120, 270)

     Estimated max dynamical RAM per process >     269.22 MB

     Estimated total dynamical RAM >      12.62 GB

     Initial potential from superposition of free atoms

     starting charge     311.9873, renormalised to     312.0000

     negative rho (up, down):  2.752E-04 0.000E+00


---------------------------------------------------------------------------------
Carrying out rVV10 run using the following parameters:
Nqs =      20    Nr_points =    1024   r_max =   100.000
b_value =  6.30000    beta =  0.00901
     q_mesh =  0.00010000  0.00030000  0.00058939  0.00100810
               0.00161396  0.00249058  0.00375900  0.00559430
               0.00824984  0.01209221  0.01765183  0.02569619
               0.03733578  0.05417739  0.07854596  0.11380545
               0.16482331  0.23864234  0.34545298  0.50000000

Gradients computed in Reciprocal space

---------------------------------------------------------------------------------


     Starting wfcs are  216 randomized atomic wfcs
     Checking if some PAW data can be deallocated... 

     total cpu time spent up to now is        5.5 secs

     Self-consistent Calculation

     iteration #  1     ecut=    80.00 Ry     beta= 0.70
     Davidson diagonalization with overlap
     ethr =  1.00E-02,  avg # of iterations =  2.0

     Threshold (ethr) on eigenvalues was too large:
     Diagonalizing with lowered threshold

     Davidson diagonalization with overlap
     ethr =  4.27E-04,  avg # of iterations =  3.0

     negative rho (up, down):  3.808E-08 0.000E+00

     total cpu time spent up to now is       19.1 secs

     total energy              =   -2246.20502371 Ry
     estimated scf accuracy    <       1.58578613 Ry

     iteration #  2     ecut=    80.00 Ry     beta= 0.70
     Davidson diagonalization with overlap
     ethr =  5.08E-04,  avg # of iterations =  4.0

     total cpu time spent up to now is       24.2 secs

     total energy              =   -2246.19825513 Ry
     estimated scf accuracy    <       0.78719516 Ry

     iteration #  3     ecut=    80.00 Ry     beta= 0.70
     Davidson diagonalization with overlap
     ethr =  2.52E-04,  avg # of iterations =  5.0

     total cpu time spent up to now is       28.2 secs

     total energy              =   -2246.18728626 Ry
     estimated scf accuracy    <       0.26956388 Ry

     iteration #  4     ecut=    80.00 Ry     beta= 0.70
     Davidson diagonalization with overlap
     ethr =  8.64E-05,  avg # of iterations =  2.0

     total cpu time spent up to now is       32.1 secs

     total energy              =   -2246.22516413 Ry
     estimated scf accuracy    <       0.03801333 Ry

     iteration #  5     ecut=    80.00 Ry     beta= 0.70
     Davidson diagonalization with overlap
     ethr =  1.22E-05,  avg # of iterations = 14.0

     total cpu time spent up to now is       36.8 secs

     total energy              =   -2246.22810600 Ry
     estimated scf accuracy    <       0.01839976 Ry

     iteration #  6     ecut=    80.00 Ry     beta= 0.70
     Davidson diagonalization with overlap
     ethr =  5.90E-06,  avg # of iterations =  2.0

     total cpu time spent up to now is       40.5 secs

     total energy              =   -2246.22775324 Ry
     estimated scf accuracy    <       0.01211841 Ry

     iteration #  7     ecut=    80.00 Ry     beta= 0.70
     Davidson diagonalization with overlap
     ethr =  3.88E-06,  avg # of iterations =  1.0

     total cpu time spent up to now is       44.1 secs

     total energy              =   -2246.22701239 Ry
     estimated scf accuracy    <       0.00833944 Ry

     iteration #  8     ecut=    80.00 Ry     beta= 0.70
     Davidson diagonalization with overlap
     ethr =  2.67E-06,  avg # of iterations =  1.0

     negative rho (up, down):  1.486E-03 0.000E+00

     total cpu time spent up to now is       50.5 secs

     total energy              =   -2246.22539542 Ry
     estimated scf accuracy    <       0.00543323 Ry

     iteration #  9     ecut=    80.00 Ry     beta= 0.70
     Davidson diagonalization with overlap
     ethr =  1.74E-06,  avg # of iterations =  2.0

     negative rho (up, down):  1.474E-02 0.000E+00

     total cpu time spent up to now is       56.9 secs

     total energy              =   -2246.22526459 Ry
     estimated scf accuracy    <       0.00280560 Ry

     iteration # 10     ecut=    80.00 Ry     beta= 0.70
     Davidson diagonalization with overlap
     ethr =  8.99E-07,  avg # of iterations =  1.0

     negative rho (up, down):  2.187E-02 0.000E+00

     total cpu time spent up to now is       63.7 secs

     total energy              =   -2246.22517612 Ry
     estimated scf accuracy    <       0.00135471 Ry

     iteration # 11     ecut=    80.00 Ry     beta= 0.70
     Davidson diagonalization with overlap
     ethr =  4.34E-07,  avg # of iterations =  2.0

     negative rho (up, down):  2.092E-02 0.000E+00

     total cpu time spent up to now is       69.7 secs

     total energy              =   -2246.22526214 Ry
     estimated scf accuracy    <       0.00044991 Ry

     iteration # 12     ecut=    80.00 Ry     beta= 0.70
     Davidson diagonalization with overlap
     ethr =  1.44E-07,  avg # of iterations =  2.0

     negative rho (up, down):  7.238E-03 0.000E+00

     total cpu time spent up to now is       76.9 secs

     total energy              =   -2246.22524149 Ry
     estimated scf accuracy    <       0.00008997 Ry

     iteration # 13     ecut=    80.00 Ry     beta= 0.70
     Davidson diagonalization with overlap
     ethr =  2.88E-08,  avg # of iterations =  6.0

     negative rho (up, down):  2.023E-03 0.000E+00

     total cpu time spent up to now is       86.6 secs

     total energy              =   -2246.22529110 Ry
     estimated scf accuracy    <       0.00001351 Ry

     iteration # 14     ecut=    80.00 Ry     beta= 0.70
     Davidson diagonalization with overlap
     ethr =  4.33E-09,  avg # of iterations =  9.0

     negative rho (up, down):  7.178E-04 0.000E+00

     total cpu time spent up to now is       98.3 secs

     total energy              =   -2246.22529526 Ry
     estimated scf accuracy    <       0.00000413 Ry

     iteration # 15     ecut=    80.00 Ry     beta= 0.70
     Davidson diagonalization with overlap
     ethr =  1.32E-09,  avg # of iterations =  2.0

     negative rho (up, down):  3.563E-04 0.000E+00

     total cpu time spent up to now is      105.8 secs

     total energy              =   -2246.22529636 Ry
     estimated scf accuracy    <       0.00000151 Ry

     iteration # 16     ecut=    80.00 Ry     beta= 0.70
     Davidson diagonalization with overlap
     ethr =  4.84E-10,  avg # of iterations =  2.0

     negative rho (up, down):  1.997E-04 0.000E+00

     total cpu time spent up to now is      109.2 secs

     End of self-consistent calculation

          k = 0.0000 0.0000 0.0000 (105382 PWs)   bands (ev):

   -62.9902 -62.9685 -62.9457 -62.9434 -62.9390 -62.9319 -62.9130 -62.8704
   -62.8593 -62.8448 -62.8220 -62.8083 -37.3187 -37.2651 -37.2544 -37.2359
   -37.2198 -37.1980 -37.1835 -37.1733 -37.1664 -37.1553 -37.1496 -37.1452
   -37.1313 -37.1215 -37.1138 -37.1118 -37.0910 -37.0830 -37.0725 -37.0483
   -37.0333 -37.0174 -37.0122 -37.0066 -37.0048 -36.9938 -36.9900 -36.9818
   -36.9774 -36.9644 -36.9601 -36.9347 -36.9244 -36.8628 -36.8104 -36.7942
   -21.3196 -15.9895 -15.2623 -15.1925 -15.1246 -14.9913 -14.8327 -14.6785
   -14.5417 -14.5300 -14.4903 -14.4665 -14.4393 -14.3499 -14.2829 -14.2304
   -14.2015 -14.1837 -14.1462 -14.0176 -13.9265 -13.8954 -13.8821 -13.7712
    -8.2818  -7.8973  -7.6816  -7.5170  -7.4076  -7.3337  -7.2787  -7.2387
    -7.1906  -6.9950  -6.8740  -6.8644  -6.8399  -6.7588  -6.7018  -6.5929
    -6.5586  -6.5194  -6.4017  -6.3553  -6.0993  -6.0521  -5.9826  -5.9501
    -5.8839  -5.8805  -5.7845  -5.7277  -5.7093  -5.6642  -5.6566  -5.5887
    -5.5705  -5.5248  -5.4800  -5.3799  -5.3077  -5.2349  -5.1212  -5.0997
    -5.0540  -5.0068  -4.9160  -4.8504  -4.7115  -4.5862  -4.4686  -4.4256
    -4.3625  -4.3221  -4.2123  -4.1787  -4.0781  -3.9570  -3.9303  -3.8907
    -3.7879  -3.7700  -3.7216  -3.6740  -3.6349  -3.5957  -3.5590  -3.5285
    -3.5071  -3.4581  -3.3650  -3.3066  -3.0985  -3.0689  -2.9540  -2.8972
    -2.8817  -2.8253  -2.7797  -2.7541  -2.7056  -2.6452  -2.4683  -2.2847
    -2.1441  -2.0157  -1.9424  -1.3597  -1.0460  -0.8528  -0.6682  -0.2662
    -0.2251  -0.1602  -0.0635  -0.0534   0.0583   0.1269   0.1659   0.1744
     0.1938   0.2476   0.3703   0.4327   0.4599   0.4891   0.4936   0.5515
     0.6137   0.6341   0.6867   0.6935   0.7713   0.7907   0.8313   0.8903
     0.9545   1.0663   1.2321

     the Fermi energy is    -1.2029 ev

!    total energy              =   -2246.22529643 Ry
     estimated scf accuracy    <       0.00000060 Ry
     smearing contrib. (-TS)   =      -0.00299437 Ry
     internal energy E=F+TS    =   -2246.22230206 Ry

     The total energy is F=E-TS. E is the sum of the following terms:
     one-electron contribution =  -18462.02660241 Ry
     hartree contribution      =    9219.11534178 Ry
     xc contribution           =    -392.05268047 Ry
     ewald contribution        =    7398.60942721 Ry
     one-center paw contrib.   =      -9.86778816 Ry

     convergence has been achieved in  16 iterations

     negative rho (up, down):  1.997E-04 0.000E+00

     Forces acting on atoms (cartesian axes, Ry/au):

     atom    1 type  1   force =     0.02157070   -0.02846499   -0.00218716
     atom    2 type  2   force =    -0.02596668    0.01110755    0.00114155
     atom    3 type  2   force =    -0.01284401    0.00718637   -0.00532028
     atom    4 type  1   force =     0.00527814    0.00792040   -0.00406454
     atom    5 type  2   force =    -0.00062697   -0.00507542   -0.00338030
     atom    6 type  2   force =     0.00311441    0.01003518   -0.00373413
     atom    7 type  1   force =     0.00517875   -0.01358675   -0.00934141
     atom    8 type  2   force =     0.00129781   -0.00362068    0.01748502
     atom    9 type  2   force =     0.01308170    0.00579847    0.01258912
     atom   10 type  1   force =    -0.01474136    0.01101746   -0.02111020
     atom   11 type  2   force =     0.00502616   -0.00102137   -0.00765700
     atom   12 type  2   force =     0.00042209   -0.00019095    0.00521609
     atom   13 type  1   force =     0.02310592    0.02519465   -0.07724120
     atom   14 type  2   force =     0.05216658   -0.00693531   -0.02188803
     atom   15 type  2   force =    -0.01213484    0.00545136   -0.00778587
     atom   16 type  1   force =    -0.00630357    0.01473558    0.00771580
     atom   17 type  2   force =     0.01084675    0.02062192   -0.00883806
     atom   18 type  2   force =    -0.00220511   -0.01119874    0.01506790
     atom   19 type  1   force =     0.00245882   -0.01371162   -0.00411801
     atom   20 type  2   force =     0.00228502   -0.00425872    0.00001964
     atom   21 type  1   force =    -0.00565271    0.00731974   -0.00026060
     atom   22 type  2   force =    -0.00199683   -0.00321074   -0.00025361
     atom   23 type  2   force =    -0.00309955    0.00347454    0.00768082
     atom   24 type  1   force =     0.00901743    0.03441851   -0.01518663
     atom   25 type  2   force =     0.03830354    0.00559015    0.03999296
     atom   26 type  2   force =    -0.01026361    0.00027553   -0.00340870
     atom   27 type  1   force =     0.00025032   -0.00469954    0.00369529
     atom   28 type  2   force =    -0.00226373   -0.00110018   -0.00384210
     atom   29 type  2   force =    -0.00155848   -0.00445111   -0.00395242
     atom   30 type  1   force =    -0.00499098    0.01103505   -0.00506415
     atom   31 type  2   force =     0.00166002   -0.00183625    0.01733546
     atom   32 type  2   force =    -0.00880591    0.00893063    0.00775664
     atom   33 type  1   force =     0.04037693   -0.01186448   -0.00029499
     atom   34 type  2   force =    -0.00009540   -0.04718799   -0.00957621
     atom   35 type  2   force =    -0.01112155    0.00606103    0.01232757
     atom   36 type  3   force =    -0.11076980   -0.03375926    0.07048170
     The non-local contrib.  to forces
     atom    1 type  1   force =    -0.01516388    0.02402668   -0.00806228
     atom    2 type  2   force =    -0.02427007    0.00603807   -0.26741216
     atom    3 type  2   force =    -0.01327468   -0.00367993    0.26944022
     atom    4 type  1   force =    -0.00136201    0.00558827    0.00610412
     atom    5 type  2   force =     0.00675461   -0.02903811   -0.25090394
     atom    6 type  2   force =    -0.00013685    0.01590285    0.25696367
     atom    7 type  1   force =    -0.02085005    0.00148289   -0.01767884
     atom    8 type  2   force =     0.00515665   -0.00126092   -0.25599937
     atom    9 type  2   force =     0.00693428   -0.00705883    0.27778254
     atom   10 type  1   force =    -0.00240274   -0.00780745   -0.00437010
     atom   11 type  2   force =     0.01591563    0.00601295   -0.26046528
     atom   12 type  2   force =    -0.01290018   -0.01544912    0.26379325
     atom   13 type  1   force =     0.00258720    0.02258407   -0.00522929
     atom   14 type  2   force =    -0.01992366    0.00741863   -0.21261733
     atom   15 type  2   force =    -0.01711434   -0.00601702    0.26386328
     atom   16 type  1   force =    -0.00220007    0.02133171   -0.03468593
     atom   17 type  2   force =     0.00138175    0.02074483   -0.25428968
     atom   18 type  2   force =    -0.00215574   -0.01031582    0.27688612
     atom   19 type  1   force =     0.01743741   -0.00547051   -0.01746200
     atom   20 type  2   force =    -0.00113195   -0.02125093    0.26605798
     atom   21 type  1   force =     0.01041436    0.02508388    0.00170679
     atom   22 type  2   force =    -0.01035026    0.00294236   -0.26299684
     atom   23 type  2   force =    -0.00063199   -0.01329291    0.26653230
     atom   24 type  1   force =     0.00141214    0.00291762    0.00555445
     atom   25 type  2   force =     0.41488374    0.15322321    0.08807068
     atom   26 type  2   force =    -0.00272761   -0.01489888    0.26005056
     atom   27 type  1   force =     0.00501517    0.01012180    0.01236070
     atom   28 type  2   force =    -0.00250354   -0.02793520   -0.27749468
     atom   29 type  2   force =     0.00302716   -0.00616334    0.26614991
     atom   30 type  1   force =    -0.00059007    0.01387433    0.00941660
     atom   31 type  2   force =    -0.00770137    0.00183615   -0.25343011
     atom   32 type  2   force =    -0.00266405   -0.01020352    0.27519386
     atom   33 type  1   force =    -0.01868459    0.01207452   -0.00454001
     atom   34 type  2   force =    -0.00571089   -0.03720108   -0.27325243
     atom   35 type  2   force =    -0.00305367   -0.01253024    0.26980977
     atom   36 type  3   force =    -1.25815422   -0.48407508   -0.91208077
     The ionic contribution  to forces
     atom    1 type  1   force =     1.54415082    0.54921312    3.76327989
     atom    2 type  2   force =    -0.87506455    0.29386332   38.95493145
     atom    3 type  2   force =    -0.21129441   -0.02294213  -36.76816956
     atom    4 type  1   force =     0.01733622    1.14019720   -0.42067425
     atom    5 type  2   force =    -0.47216360    2.05861001   38.42013041
     atom    6 type  2   force =     0.46195642   -0.33610030  -38.66168350
     atom    7 type  1   force =    -2.38469008   -2.97009210    1.60224229
     atom    8 type  2   force =    -1.00767515    0.09177022   37.20391833
     atom    9 type  2   force =     0.33325686   -0.00694806  -38.46796275
     atom   10 type  1   force =    -1.25915900   -0.95148671    4.40312718
     atom   11 type  2   force =    -0.22629717   -2.08809112   38.88480022
     atom   12 type  2   force =     0.52907755    0.53602313  -38.42349869
     atom   13 type  1   force =     1.11490642    2.28254178   -3.95478491
     atom   14 type  2   force =     3.74124790   -0.83730097   36.35419556
     atom   15 type  2   force =     0.42473040   -0.12890703  -37.83479094
     atom   16 type  1   force =     0.55725898    5.04839854   -1.13205410
     atom   17 type  2   force =     1.07265506    3.86513100   36.78841384
     atom   18 type  2   force =    -0.12851883   -0.35604713  -39.45094995
     atom   19 type  1   force =     2.78148590   -2.79295269   -0.56710149
     atom   20 type  2   force =     0.29036321   -0.15737699  -39.00155206
     atom   21 type  1   force =     1.15207489   -1.44954562   -1.17671452
     atom   22 type  2   force =     0.60228755   -3.14564828   37.84565281
     atom   23 type  2   force =    -0.06425056    0.39580813  -39.04282045
     atom   24 type  1   force =    -2.23911060    1.54737708    3.40228761
     atom   25 type  2   force =    -4.90237286   -1.54344052   35.09069106
     atom   26 type  2   force =    -0.51255002   -0.00899495  -38.48316832
     atom   27 type  1   force =    -0.48086640    1.69881021   -4.02685278
     atom   28 type  2   force =    -0.62914580    1.73230233   37.80175420
     atom   29 type  2   force =    -0.41459878   -0.23824508  -37.94318465
     atom   30 type  1   force =    -0.62120428   -1.11882090   -1.03147746
     atom   31 type  2   force =     1.08432954    0.09933071   37.06975669
     atom   32 type  2   force =    -0.53088752    0.03925147  -39.17288924
     atom   33 type  1   force =    -0.24625240   -2.73054204   -0.72389683
     atom   34 type  2   force =    -0.23905053   -2.07451407   39.05539590
     atom   35 type  2   force =    -0.41382530    0.29903916  -38.41808845
     atom   36 type  3   force =     2.15186012    1.28032929   48.06173748
     The local contribution  to forces
     atom    1 type  1   force =    -1.50759385   -0.60176635   -3.75814447
     atom    2 type  2   force =     0.87256140   -0.28852457  -38.70717571
     atom    3 type  2   force =     0.21116868    0.03368874   36.51382084
     atom    4 type  1   force =    -0.01062486   -1.13804650    0.40956711
     atom    5 type  2   force =     0.46536655   -2.03640397  -38.19309873
     atom    6 type  2   force =    -0.45894039    0.33151670   38.42107225
     atom    7 type  1   force =     2.41060624    2.95497366   -1.59478781
     atom    8 type  2   force =     1.00403778   -0.09453748  -36.95115306
     atom    9 type  2   force =    -0.32692427    0.01934822   38.22327572
     atom   10 type  1   force =     1.24681598    0.97050609   -4.42071261
     atom   11 type  2   force =     0.21611556    2.08174555  -38.65289016
     atom   12 type  2   force =    -0.51694245   -0.52194841   38.18530894
     atom   13 type  1   force =    -1.09441967   -2.28007902    3.88230388
     atom   14 type  2   force =    -3.66949276    0.82356822  -36.18239767
     atom   15 type  2   force =    -0.42072292    0.14000984   37.58346591
     atom   16 type  1   force =    -0.56146267   -5.05512898    1.17363355
     atom   17 type  2   force =    -1.06320651   -3.86422339  -36.56397256
     atom   18 type  2   force =     0.12847482    0.35525918   39.20987413
     atom   19 type  1   force =    -2.79643436    2.78471832    0.57960622
     atom   20 type  2   force =    -0.28715918    0.17350119   38.75617514
     atom   21 type  1   force =    -1.16828642    1.43215071    1.17392935
     atom   22 type  2   force =    -0.59436212    3.14012605  -37.60390765
     atom   23 type  2   force =     0.06192143   -0.38007656   38.80432080
     atom   24 type  1   force =     2.24697855   -1.51601144   -3.42366384
     atom   25 type  2   force =     4.54924837    1.40469068  -35.14013327
     atom   26 type  2   force =     0.50520296    0.02339291   38.24006651
     atom   27 type  1   force =     0.47613706   -1.71386936    4.01729790
     atom   28 type  2   force =     0.62928933   -1.70763069  -37.54941352
     atom   29 type  2   force =     0.41043436    0.24013413   37.69327688
     atom   30 type  1   force =     0.61687275    1.11600021    1.01606352
     atom   31 type  2   force =    -1.07543073   -0.10304332  -36.81974528
     atom   32 type  2   force =     0.52485935   -0.02076610   38.92605020
     atom   33 type  1   force =     0.30542951    2.70695504    0.72746927
     atom   34 type  2   force =     0.24417885    2.06353130  -38.81306026
     atom   35 type  2   force =     0.40584146   -0.28137924   38.18118596
     atom   36 type  3   force =    -1.01897854   -0.83539952  -47.08881561
     The core correction contribution to forces
     atom    1 type  1   force =     0.00000000    0.00000000    0.00000000
     atom    2 type  2   force =     0.00083078   -0.00025732    0.02060781
     atom    3 type  2   force =     0.00053022    0.00012429   -0.02087275
     atom    4 type  1   force =     0.00000000    0.00000000    0.00000000
     atom    5 type  2   force =    -0.00065271    0.00163816    0.02028394
     atom    6 type  2   force =     0.00021834   -0.00134275   -0.02055686
     atom    7 type  1   force =     0.00000000    0.00000000    0.00000000
     atom    8 type  2   force =    -0.00019441    0.00038305    0.02050875
     atom    9 type  2   force =    -0.00014425    0.00041600   -0.02103727
     atom   10 type  1   force =     0.00000000    0.00000000    0.00000000
     atom   11 type  2   force =    -0.00073517   -0.00056871    0.02071807
     atom   12 type  2   force =     0.00118027    0.00128059   -0.02089240
     atom   13 type  1   force =     0.00000000    0.00000000    0.00000000
     atom   14 type  2   force =     0.00014703   -0.00053768    0.01876044
     atom   15 type  2   force =     0.00092723    0.00038941   -0.02071782
     atom   16 type  1   force =     0.00000000    0.00000000    0.00000000
     atom   17 type  2   force =     0.00000946   -0.00123474    0.02083183
     atom   18 type  2   force =    -0.00001156   -0.00017821   -0.02116749
     atom   19 type  1   force =     0.00000000    0.00000000    0.00000000
     atom   20 type  2   force =     0.00019915    0.00081095   -0.02118550
     atom   21 type  1   force =     0.00000000    0.00000000    0.00000000
     atom   22 type  2   force =     0.00037854   -0.00045263    0.02083406
     atom   23 type  2   force =    -0.00015076    0.00114060   -0.02081678
     atom   24 type  1   force =     0.00000000    0.00000000    0.00000000
     atom   25 type  2   force =    -0.02327773   -0.00882088    0.00125488
     atom   26 type  2   force =    -0.00012924    0.00079356   -0.02075272
     atom   27 type  1   force =     0.00000000    0.00000000    0.00000000
     atom   28 type  2   force =     0.00016990    0.00206517    0.02112433
     atom   29 type  2   force =    -0.00040255   -0.00020079   -0.02067651
     atom   30 type  1   force =     0.00000000    0.00000000    0.00000000
     atom   31 type  2   force =     0.00047899    0.00001216    0.02055018
     atom   32 type  2   force =    -0.00013977    0.00061274   -0.02109812
     atom   33 type  1   force =     0.00000000    0.00000000    0.00000000
     atom   34 type  2   force =     0.00056734    0.00111689    0.02116652
     atom   35 type  2   force =    -0.00006620    0.00098684   -0.02106310
     atom   36 type  3   force =     0.01440145    0.00535533    0.00921667
     The Hubbard contrib.    to forces
     atom    1 type  1   force =     0.00000000    0.00000000    0.00000000
     atom    2 type  2   force =     0.00000000    0.00000000    0.00000000
     atom    3 type  2   force =     0.00000000    0.00000000    0.00000000
     atom    4 type  1   force =     0.00000000    0.00000000    0.00000000
     atom    5 type  2   force =     0.00000000    0.00000000    0.00000000
     atom    6 type  2   force =     0.00000000    0.00000000    0.00000000
     atom    7 type  1   force =     0.00000000    0.00000000    0.00000000
     atom    8 type  2   force =     0.00000000    0.00000000    0.00000000
     atom    9 type  2   force =     0.00000000    0.00000000    0.00000000
     atom   10 type  1   force =     0.00000000    0.00000000    0.00000000
     atom   11 type  2   force =     0.00000000    0.00000000    0.00000000
     atom   12 type  2   force =     0.00000000    0.00000000    0.00000000
     atom   13 type  1   force =     0.00000000    0.00000000    0.00000000
     atom   14 type  2   force =     0.00000000    0.00000000    0.00000000
     atom   15 type  2   force =     0.00000000    0.00000000    0.00000000
     atom   16 type  1   force =     0.00000000    0.00000000    0.00000000
     atom   17 type  2   force =     0.00000000    0.00000000    0.00000000
     atom   18 type  2   force =     0.00000000    0.00000000    0.00000000
     atom   19 type  1   force =     0.00000000    0.00000000    0.00000000
     atom   20 type  2   force =     0.00000000    0.00000000    0.00000000
     atom   21 type  1   force =     0.00000000    0.00000000    0.00000000
     atom   22 type  2   force =     0.00000000    0.00000000    0.00000000
     atom   23 type  2   force =     0.00000000    0.00000000    0.00000000
     atom   24 type  1   force =     0.00000000    0.00000000    0.00000000
     atom   25 type  2   force =     0.00000000    0.00000000    0.00000000
     atom   26 type  2   force =     0.00000000    0.00000000    0.00000000
     atom   27 type  1   force =     0.00000000    0.00000000    0.00000000
     atom   28 type  2   force =     0.00000000    0.00000000    0.00000000
     atom   29 type  2   force =     0.00000000    0.00000000    0.00000000
     atom   30 type  1   force =     0.00000000    0.00000000    0.00000000
     atom   31 type  2   force =     0.00000000    0.00000000    0.00000000
     atom   32 type  2   force =     0.00000000    0.00000000    0.00000000
     atom   33 type  1   force =     0.00000000    0.00000000    0.00000000
     atom   34 type  2   force =     0.00000000    0.00000000    0.00000000
     atom   35 type  2   force =     0.00000000    0.00000000    0.00000000
     atom   36 type  3   force =     0.00000000    0.00000000    0.00000000
     The SCF correction term to forces
     atom    1 type  1   force =     0.00017793    0.00006236    0.00071975
     atom    2 type  2   force =    -0.00002392   -0.00001116    0.00017021
     atom    3 type  2   force =     0.00002650   -0.00000380    0.00044101
     atom    4 type  1   force =    -0.00007091    0.00018222    0.00091852
     atom    5 type  2   force =     0.00006850    0.00011929    0.00018806
     atom    6 type  2   force =     0.00001720    0.00005948    0.00045036
     atom    7 type  1   force =     0.00011296    0.00004960    0.00086300
     atom    8 type  2   force =    -0.00002674    0.00002525    0.00019042
     atom    9 type  2   force =    -0.00004059    0.00004194    0.00051092
     atom   10 type  1   force =     0.00000472   -0.00019368    0.00082538
     atom   11 type  2   force =     0.00002764   -0.00011924    0.00016019
     atom   12 type  2   force =     0.00000723   -0.00009633    0.00048503
     atom   13 type  1   force =     0.00003229    0.00014861    0.00044917
     atom   14 type  2   force =     0.00018839   -0.00008272    0.00015101
     atom   15 type  2   force =     0.00004511   -0.00002304    0.00037374
     atom   16 type  1   force =     0.00010052    0.00013511    0.00080231
     atom   17 type  2   force =     0.00000731    0.00020502    0.00015855
     atom   18 type  2   force =     0.00000652    0.00008403    0.00040513
     atom   19 type  1   force =    -0.00002981   -0.00000595    0.00081930
     atom   20 type  2   force =     0.00001411    0.00005786    0.00050412
     atom   21 type  1   force =     0.00014479   -0.00036844    0.00079782
     atom   22 type  2   force =     0.00004978   -0.00017743    0.00014406
     atom   23 type  2   force =     0.00001266   -0.00010393    0.00044499
     atom   24 type  1   force =    -0.00026234    0.00013604    0.00061519
     atom   25 type  2   force =    -0.00017766   -0.00006153    0.00008965
     atom   26 type  2   force =    -0.00005938   -0.00001632    0.00037532
     atom   27 type  1   force =    -0.00003519    0.00023860    0.00086952
     atom   28 type  2   force =    -0.00007330    0.00009900    0.00016762
     atom   29 type  2   force =    -0.00001835    0.00002476    0.00046199
     atom   30 type  1   force =    -0.00006905   -0.00001779    0.00091324
     atom   31 type  2   force =    -0.00001609    0.00002885    0.00018402
     atom   32 type  2   force =     0.00002640    0.00003684    0.00047999
     atom   33 type  1   force =    -0.00011526   -0.00035119    0.00065262
     atom   34 type  2   force =    -0.00007984   -0.00012023    0.00015410
     atom   35 type  2   force =    -0.00001753   -0.00005470    0.00046343
     atom   36 type  3   force =     0.00010171    0.00003152    0.00040398

     Total force =     0.212332     Total SCF correction =     0.003339

     BFGS Geometry Optimization
     Energy error            =      0.0E+00 Ry
     Gradient error          =      1.1E-01 Ry/Bohr

     number of scf cycles    =   1
     number of bfgs steps    =   0

     energy             new  =   -2246.2252964269 Ry

     new trust radius        =       0.1355629269 bohr
     new conv_thr            =       0.0000010000 Ry


ATOMIC_POSITIONS (angstrom)
Mo            6.5859631320        1.7727432077        2.8224856387
S             8.1629683621        0.8155818883        4.4351424371
S             8.1864363284        0.8150446088        1.2750680530
Mo            8.0979556342        4.4992482396        2.7156675299
S             6.4995774802        3.7197256890        4.3448718724
S             6.5549978737        3.5170479415        1.1193042138
Mo            6.4927221750        7.2112474830        2.6669412226
S             8.0824145003        6.3419550129        4.2517142386
S             8.0878401833        6.3077707355        1.0905248761
Mo            8.1528182588        9.9080106005        2.8322907268
S             6.4978273267        8.9423863267        4.3790536217
S             6.6181705606        9.0486101654        1.1426675368
Mo            3.4338867878        1.7602882843        2.7355968809
S             5.0027708557        0.8132711992        4.3389504442
S             5.0514122746        0.8491468455        1.2225383579
Mo            4.9764209767        4.5209757373        2.6369675743
S             3.4335815142        3.6825123355        4.2750326815
S             3.4367536871        3.5423025782        1.0663252712
Mo            3.4551628895        7.2090686601        2.6284977053
S             4.9844433735        6.3246786676        1.0372641233
Mo            5.0092726364        9.9054734907        2.7432630586
S             3.4699014382        8.9420522209        4.3254571094
S             3.4067889551        9.0668286287        1.1001328154
Mo            0.3008623047        1.7657230240        2.8414082919
S             1.8707315738        0.7956521885        4.4193728045
S             1.8553687650        0.8545717215        1.2075970474
Mo            1.8608237739        4.4931798692        2.6621528445
S             0.2710159337        3.6538166334        4.3355509469
S             0.2304064952        3.5248938016        1.1699263521
Mo            0.2685110392        7.2224855937        2.6990165930
S             1.9031166926        6.3118271341        4.2316176507
S             1.8575783256        6.3150696972        1.0486639228
Mo            1.8657132140        9.9338607391        2.7727901489
S             0.2958624181        9.0650270200        4.4088019558
S             0.2708861265        9.0467330735        1.1569242511
O             3.0936364791        1.1964575899        5.3807590725



     Writing config-only to output data dir ./MoS2-V-O.save/
     NEW-OLD atomic charge density approx. for the potential

     negative rho (up, down):  1.526E-04 0.000E+00

     total cpu time spent up to now is      116.4 secs

     Self-consistent Calculation

     iteration #  1     ecut=    80.00 Ry     beta= 0.70
     Davidson diagonalization with overlap
     c_bands:  1 eigenvalues not converged
     ethr =  1.00E-06,  avg # of iterations = 20.0

     negative rho (up, down):  2.163E-04 0.000E+00

     total cpu time spent up to now is      129.9 secs

     total energy              =   -2246.26167000 Ry
     estimated scf accuracy    <       0.01694078 Ry

     iteration #  2     ecut=    80.00 Ry     beta= 0.70
     Davidson diagonalization with overlap
     ethr =  5.43E-06,  avg # of iterations =  5.0

     negative rho (up, down):  3.194E-04 0.000E+00

     total cpu time spent up to now is      140.0 secs

     total energy              =   -2246.26426441 Ry
     estimated scf accuracy    <       0.00559815 Ry

     iteration #  3     ecut=    80.00 Ry     beta= 0.70
     Davidson diagonalization with overlap
     ethr =  1.79E-06,  avg # of iterations =  4.0

     negative rho (up, down):  4.438E-04 0.000E+00

     total cpu time spent up to now is      157.6 secs

     total energy              =   -2246.26491122 Ry
     estimated scf accuracy    <       0.00040379 Ry

     iteration #  4     ecut=    80.00 Ry     beta= 0.70
     Davidson diagonalization with overlap
     ethr =  1.29E-07,  avg # of iterations =  3.0

     negative rho (up, down):  4.891E-04 0.000E+00

     total cpu time spent up to now is      169.6 secs

     total energy              =   -2246.26495946 Ry
     estimated scf accuracy    <       0.00005025 Ry

     iteration #  5     ecut=    80.00 Ry     beta= 0.70
     Davidson diagonalization with overlap
     ethr =  1.61E-08,  avg # of iterations =  5.0

     negative rho (up, down):  4.985E-04 0.000E+00

     total cpu time spent up to now is      186.4 secs

     total energy              =   -2246.26496787 Ry
     estimated scf accuracy    <       0.00002126 Ry

     iteration #  6     ecut=    80.00 Ry     beta= 0.70
     Davidson diagonalization with overlap
     ethr =  6.82E-09,  avg # of iterations =  2.0

     negative rho (up, down):  4.865E-04 0.000E+00

     total cpu time spent up to now is      196.3 secs

     total energy              =   -2246.26496880 Ry
     estimated scf accuracy    <       0.00000544 Ry

     iteration #  7     ecut=    80.00 Ry     beta= 0.70
     Davidson diagonalization with overlap
     ethr =  1.74E-09,  avg # of iterations =  5.0

     negative rho (up, down):  2.031E-04 0.000E+00

     total cpu time spent up to now is      199.8 secs

     End of self-consistent calculation

          k = 0.0000 0.0000 0.0000 (105382 PWs)   bands (ev):

   -62.9879 -62.9821 -62.9533 -62.9513 -62.9419 -62.9311 -62.8873 -62.8783
   -62.8770 -62.8678 -62.8361 -62.8270 -37.3272 -37.2656 -37.2546 -37.2370
   -37.2294 -37.2016 -37.1871 -37.1841 -37.1670 -37.1627 -37.1519 -37.1466
   -37.1298 -37.1278 -37.1189 -37.1057 -37.0974 -37.0809 -37.0613 -37.0486
   -37.0429 -37.0315 -37.0283 -37.0174 -37.0159 -37.0092 -37.0001 -36.9953
   -36.9864 -36.9720 -36.9678 -36.9499 -36.9367 -36.8738 -36.8237 -36.8150
   -21.5839 -16.0024 -15.2716 -15.1796 -15.0473 -15.0074 -14.8361 -14.6063
   -14.5382 -14.5336 -14.5009 -14.4853 -14.4476 -14.3652 -14.2947 -14.2203
   -14.2138 -14.1832 -14.1543 -14.0171 -13.9412 -13.9232 -13.8778 -13.6853
    -8.1448  -7.8851  -7.6367  -7.5272  -7.4153  -7.3538  -7.2991  -7.2509
    -7.2061  -7.0062  -6.8799  -6.8762  -6.8527  -6.7761  -6.6936  -6.5957
    -6.5675  -6.5366  -6.4073  -6.3682  -6.1004  -6.0593  -5.9755  -5.9572
    -5.9006  -5.8808  -5.7842  -5.7448  -5.7227  -5.6857  -5.6606  -5.5989
    -5.5774  -5.5462  -5.4747  -5.3808  -5.3029  -5.2287  -5.1376  -5.0930
    -5.0699  -5.0341  -4.9102  -4.8630  -4.7177  -4.5983  -4.4605  -4.4250
    -4.3619  -4.3342  -4.2236  -4.2015  -4.0761  -3.9817  -3.9265  -3.8829
    -3.8029  -3.7705  -3.7161  -3.6931  -3.6257  -3.5854  -3.5640  -3.5441
    -3.4876  -3.4771  -3.3916  -3.2991  -3.0717  -3.0451  -2.9635  -2.9047
    -2.8747  -2.8449  -2.8067  -2.7812  -2.7047  -2.6497  -2.4799  -2.2992
    -2.1408  -2.0620  -1.9773  -1.4585  -1.0240  -0.8590  -0.6435  -0.2643
    -0.2226  -0.1575  -0.0620  -0.0544   0.0371   0.1344   0.1713   0.1820
     0.2057   0.2565   0.3640   0.4245   0.4540   0.4785   0.5054   0.5464
     0.6141   0.6443   0.6830   0.7091   0.7764   0.7925   0.8494   0.8916
     0.9251   1.0546   1.2200

     the Fermi energy is    -1.2413 ev

!    total energy              =   -2246.26496946 Ry
     estimated scf accuracy    <       0.00000081 Ry
     smearing contrib. (-TS)   =      -0.00088341 Ry
     internal energy E=F+TS    =   -2246.26408605 Ry

     The total energy is F=E-TS. E is the sum of the following terms:
     one-electron contribution =  -18456.12732575 Ry
     hartree contribution      =    9216.07130704 Ry
     xc contribution           =    -392.07518004 Ry
     ewald contribution        =    7395.73135451 Ry
     one-center paw contrib.   =      -9.86424182 Ry

     convergence has been achieved in   7 iterations

     negative rho (up, down):  2.031E-04 0.000E+00

     Forces acting on atoms (cartesian axes, Ry/au):

     atom    1 type  1   force =     0.01128966   -0.01292111   -0.00760816
     atom    2 type  2   force =    -0.01314257    0.00916589   -0.00369480
     atom    3 type  2   force =    -0.00666967    0.00635935   -0.00849720
     atom    4 type  1   force =     0.00468682    0.00452818    0.00029197
     atom    5 type  2   force =     0.00053663   -0.00574299   -0.00571490
     atom    6 type  2   force =     0.00183446    0.00758642    0.00012338
     atom    7 type  1   force =     0.00417331   -0.00825730   -0.00212618
     atom    8 type  2   force =     0.00151671   -0.00315165    0.01201684
     atom    9 type  2   force =     0.01153340    0.00521819    0.00731006
     atom   10 type  1   force =    -0.00416303    0.00835210   -0.00671502
     atom   11 type  2   force =     0.00348540   -0.00190977   -0.00931176
     atom   12 type  2   force =    -0.00213414   -0.00042641    0.00137702
     atom   13 type  1   force =     0.01217417    0.01253102   -0.04343981
     atom   14 type  2   force =     0.03244638    0.00030436   -0.01904533
     atom   15 type  2   force =    -0.00225203    0.00240009   -0.01535940
     atom   16 type  1   force =    -0.00144698    0.01163656    0.00247578
     atom   17 type  2   force =     0.00877493    0.00794977   -0.00509101
     atom   18 type  2   force =     0.00081843   -0.00097508    0.00485174
     atom   19 type  1   force =     0.00266637   -0.00853598   -0.00019170
     atom   20 type  2   force =     0.00188241   -0.00380130   -0.00300378
     atom   21 type  1   force =    -0.00515427    0.00147266   -0.00161114
     atom   22 type  2   force =     0.00225057   -0.00395760    0.00072232
     atom   23 type  2   force =    -0.00030672    0.00051240    0.00363237
     atom   24 type  1   force =     0.00607486    0.01504542    0.00246448
     atom   25 type  2   force =     0.04322166    0.01197567    0.00786259
     atom   26 type  2   force =    -0.00884885   -0.00136176   -0.00665444
     atom   27 type  1   force =    -0.00058851   -0.00274350    0.00457837
     atom   28 type  2   force =    -0.00103724    0.00164459   -0.00222274
     atom   29 type  2   force =    -0.00078702   -0.00026458   -0.00733634
     atom   30 type  1   force =    -0.00351459    0.00224063    0.00325048
     atom   31 type  2   force =     0.00001470   -0.00135837    0.01124910
     atom   32 type  2   force =    -0.00776243    0.00674447    0.00567078
     atom   33 type  1   force =     0.01950942   -0.00390622    0.00759190
     atom   34 type  2   force =    -0.00072050   -0.03405117   -0.01525479
     atom   35 type  2   force =    -0.00655674    0.00843094    0.00865058
     atom   36 type  3   force =    -0.10380501   -0.03073389    0.07875874
     The non-local contrib.  to forces
     atom    1 type  1   force =    -0.01224997    0.01961266   -0.00908765
     atom    2 type  2   force =    -0.01090280    0.00338446   -0.27023020
     atom    3 type  2   force =    -0.00715430   -0.00446640    0.26692051
     atom    4 type  1   force =    -0.00103760    0.00740500    0.00523573
     atom    5 type  2   force =     0.00760602   -0.02998417   -0.25385228
     atom    6 type  2   force =    -0.00140538    0.01300549    0.26111356
     atom    7 type  1   force =    -0.01864911   -0.00013436   -0.01948737
     atom    8 type  2   force =     0.00554055   -0.00062593   -0.25905683
     atom    9 type  2   force =     0.00543314   -0.00718998    0.27427884
     atom   10 type  1   force =    -0.00514248   -0.00643408   -0.00492748
     atom   11 type  2   force =     0.01320529    0.00530611   -0.26325491
     atom   12 type  2   force =    -0.01385223   -0.01632888    0.26272215
     atom   13 type  1   force =    -0.00031397    0.02627462    0.00576287
     atom   14 type  2   force =     0.00463637   -0.00095090   -0.23298019
     atom   15 type  2   force =    -0.00978382   -0.00927523    0.25947951
     atom   16 type  1   force =    -0.00406601    0.02007849   -0.03650321
     atom   17 type  2   force =    -0.00026962    0.01211913   -0.25224416
     atom   18 type  2   force =    -0.00159563   -0.00344961    0.27076784
     atom   19 type  1   force =     0.01925666   -0.00338698   -0.01742241
     atom   20 type  2   force =    -0.00158543   -0.01940473    0.26399803
     atom   21 type  1   force =     0.00740560    0.02776500    0.00190801
     atom   22 type  2   force =    -0.00691188    0.00073174   -0.26309887
     atom   23 type  2   force =     0.00236521   -0.01703580    0.26458803
     atom   24 type  1   force =    -0.00085443    0.00024698    0.00300317
     atom   25 type  2   force =     0.39290900    0.14873220    0.10086807
     atom   26 type  2   force =    -0.00045963   -0.01435893    0.26050481
     atom   27 type  1   force =     0.00490474    0.00664911    0.01041949
     atom   28 type  2   force =    -0.00212943   -0.02386235   -0.27519738
     atom   29 type  2   force =     0.00283673   -0.00271650    0.26472591
     atom   30 type  1   force =    -0.00052800    0.01447917    0.00918701
     atom   31 type  2   force =    -0.00908702    0.00149218   -0.25814328
     atom   32 type  2   force =    -0.00175285   -0.01165524    0.27433133
     atom   33 type  1   force =    -0.01615868    0.01362450   -0.00605297
     atom   34 type  2   force =    -0.00431381   -0.02600871   -0.27900940
     atom   35 type  2   force =    -0.00033909   -0.01092812    0.26852569
     atom   36 type  3   force =    -1.45064726   -0.51848561   -1.01950318
     The ionic contribution  to forces
     atom    1 type  1   force =     1.38802346    0.99472749    3.75981682
     atom    2 type  2   force =    -0.55605758    0.19348784   38.96980840
     atom    3 type  2   force =    -0.03565406   -0.03796697  -36.79807366
     atom    4 type  1   force =    -0.12732598    1.04550247   -0.39384005
     atom    5 type  2   force =    -0.49963340    1.97310826   38.34744260
     atom    6 type  2   force =     0.42051724   -0.35472593  -38.54848048
     atom    7 type  1   force =    -2.40799498   -2.75225103    1.51152644
     atom    8 type  2   force =    -1.01442393    0.11467905   37.33756480
     atom    9 type  2   force =     0.33538622   -0.01352283  -38.45321628
     atom   10 type  1   force =    -0.70834035   -0.87732025    4.19425585
     atom   11 type  2   force =    -0.21071310   -2.10732188   38.83556155
     atom   12 type  2   force =     0.46701573    0.48275878  -38.38703745
     atom   13 type  1   force =     0.90633362    1.84577591   -4.78832398
     atom   14 type  2   force =     3.06452876   -0.57929634   36.43881107
     atom   15 type  2   force =     0.56928378   -0.20682826  -37.92023896
     atom   16 type  1   force =     0.81720642    4.84087495   -0.76926961
     atom   17 type  2   force =     1.08845722    3.49437892   36.85207790
     atom   18 type  2   force =    -0.10435058   -0.12247380  -39.48707545
     atom   19 type  1   force =     2.75395680   -2.64635379   -0.58510596
     atom   20 type  2   force =     0.28363805   -0.13243650  -39.06816741
     atom   21 type  1   force =     1.10551749   -1.58034641   -0.98028514
     atom   22 type  2   force =     0.66094933   -3.13251097   37.90532103
     atom   23 type  2   force =    -0.04072582    0.32318444  -39.04217973
     atom   24 type  1   force =    -1.99858883    0.80761399    3.46488060
     atom   25 type  2   force =    -5.19797884   -1.60987063   34.52154817
     atom   26 type  2   force =    -0.68299244   -0.18800593  -38.34250198
     atom   27 type  1   force =    -0.54956862    1.83879056   -3.78806296
     atom   28 type  2   force =    -0.62836734    1.69525063   37.87047250
     atom   29 type  2   force =    -0.43061112   -0.15795687  -38.02977507
     atom   30 type  1   force =    -0.52678690   -1.10839952   -1.04030483
     atom   31 type  2   force =     1.04539997    0.12320848   37.15048415
     atom   32 type  2   force =    -0.53485938    0.02643623  -39.12286811
     atom   33 type  1   force =    -0.78758142   -2.23306855   -0.36714713
     atom   34 type  2   force =    -0.27382537   -1.78303871   38.88295488
     atom   35 type  2   force =    -0.32857376    0.40721811  -38.25957767
     atom   36 type  3   force =     2.73873970    1.41669908   48.12900514
     The local contribution  to forces
     atom    1 type  1   force =    -1.36465694   -1.02744192   -3.75750656
     atom    2 type  2   force =     0.55334088   -0.18746324  -38.72370647
     atom    3 type  2   force =     0.03574287    0.04862150   36.54369202
     atom    4 type  1   force =     0.13298119   -1.04873041    0.38956719
     atom    5 type  2   force =     0.49320161   -1.95065996  -38.11927199
     atom    6 type  2   force =    -0.41749740    0.35040352   38.30832975
     atom    7 type  1   force =     2.43068263    2.74425827   -1.49346387
     atom    8 type  2   force =     1.01060074   -0.11760217  -37.08676086
     atom    9 type  2   force =    -0.32923711    0.02550369   38.20734952
     atom   10 type  1   force =     0.70940232    0.89240189   -4.19535947
     atom   11 type  2   force =     0.20150206    2.10083513  -38.60205233
     atom   12 type  2   force =    -0.45645964   -0.46801044   38.14670397
     atom   13 type  1   force =    -0.89384724   -1.85977554    4.73987271
     atom   14 type  2   force =    -3.03515972    0.58048993  -36.24425303
     atom   15 type  2   force =    -0.56247581    0.21806732   37.66617234
     atom   16 type  1   force =    -0.81459949   -4.84959373    0.80901430
     atom   17 type  2   force =    -1.07948294   -3.49760404  -36.62517219
     atom   18 type  2   force =     0.10682281    0.12512000   39.24237631
     atom   19 type  1   force =    -2.77060433    2.64138279    0.60312619
     atom   20 type  2   force =    -0.28038913    0.14729830   38.82243981
     atom   21 type  1   force =    -1.11820849    1.55446893    0.97763223
     atom   22 type  2   force =    -0.65211892    3.12848644  -37.66199171
     atom   23 type  2   force =     0.03823018   -0.30672221   38.80224489
     atom   24 type  1   force =     2.00559323   -0.79304464   -3.46465513
     atom   25 type  2   force =     4.87044735    1.48157955  -34.61429619
     atom   26 type  2   force =     0.67497267    0.20031734   38.09628360
     atom   27 type  1   force =     0.54416594   -1.84836976    3.78299907
     atom   28 type  2   force =     0.62942080   -1.67178546  -37.61818900
     atom   29 type  2   force =     0.42738816    0.16055996   37.77860111
     atom   30 type  1   force =     0.52396465    1.09629519    1.03507102
     atom   31 type  2   force =    -1.03674598   -0.12614034  -36.90139377
     atom   32 type  2   force =     0.52907030   -0.00869260   38.87542004
     atom   33 type  1   force =     0.82328145    2.21579112    0.38155954
     atom   34 type  2   force =     0.27709192    1.77438862  -38.64021589
     atom   35 type  2   force =     0.32255084   -0.38869537   38.02088463
     atom   36 type  3   force =    -1.40846216   -0.93464002  -47.04060194
     The core correction contribution to forces
     atom    1 type  1   force =     0.00000000    0.00000000    0.00000000
     atom    2 type  2   force =     0.00037024   -0.00018684    0.02075292
     atom    3 type  2   force =     0.00035905    0.00018924   -0.02082299
     atom    4 type  1   force =     0.00000000    0.00000000    0.00000000
     atom    5 type  2   force =    -0.00069574    0.00160948    0.02032917
     atom    6 type  2   force =     0.00020570   -0.00123567   -0.02063267
     atom    7 type  1   force =     0.00000000    0.00000000    0.00000000
     atom    8 type  2   force =    -0.00019826    0.00036989    0.02063171
     atom    9 type  2   force =    -0.00005178    0.00040904   -0.02098127
     atom   10 type  1   force =     0.00000000    0.00000000    0.00000000
     atom   11 type  2   force =    -0.00059720   -0.00055985    0.02080497
     atom   12 type  2   force =     0.00113947    0.00129820   -0.02086015
     atom   13 type  1   force =     0.00000000    0.00000000    0.00000000
     atom   14 type  2   force =    -0.00145445    0.00000882    0.01989282
     atom   15 type  2   force =     0.00073157    0.00046045   -0.02057956
     atom   16 type  1   force =     0.00000000    0.00000000    0.00000000
     atom   17 type  2   force =     0.00005960   -0.00100025    0.02074910
     atom   18 type  2   force =    -0.00003272   -0.00029313   -0.02106695
     atom   19 type  1   force =     0.00000000    0.00000000    0.00000000
     atom   20 type  2   force =     0.00021867    0.00072524   -0.02115694
     atom   21 type  1   force =     0.00000000    0.00000000    0.00000000
     atom   22 type  2   force =     0.00028795   -0.00042004    0.02089882
     atom   23 type  2   force =    -0.00022760    0.00125684   -0.02081974
     atom   24 type  1   force =     0.00000000    0.00000000    0.00000000
     atom   25 type  2   force =    -0.02208795   -0.00847704    0.00009390
     atom   26 type  2   force =    -0.00038384    0.00061779   -0.02073635
     atom   27 type  1   force =     0.00000000    0.00000000    0.00000000
     atom   28 type  2   force =     0.00012750    0.00189821    0.02110910
     atom   29 type  2   force =    -0.00039680   -0.00026174   -0.02070580
     atom   30 type  1   force =     0.00000000    0.00000000    0.00000000
     atom   31 type  2   force =     0.00050486    0.00005256    0.02069149
     atom   32 type  2   force =    -0.00020797    0.00064356   -0.02107331
     atom   33 type  1   force =     0.00000000    0.00000000    0.00000000
     atom   34 type  2   force =     0.00045433    0.00072044    0.02134132
     atom   35 type  2   force =    -0.00011886    0.00099545   -0.02098719
     atom   36 type  3   force =     0.01635623    0.00571116    0.01041629
     The Hubbard contrib.    to forces
     atom    1 type  1   force =     0.00000000    0.00000000    0.00000000
     atom    2 type  2   force =     0.00000000    0.00000000    0.00000000
     atom    3 type  2   force =     0.00000000    0.00000000    0.00000000
     atom    4 type  1   force =     0.00000000    0.00000000    0.00000000
     atom    5 type  2   force =     0.00000000    0.00000000    0.00000000
     atom    6 type  2   force =     0.00000000    0.00000000    0.00000000
     atom    7 type  1   force =     0.00000000    0.00000000    0.00000000
     atom    8 type  2   force =     0.00000000    0.00000000    0.00000000
     atom    9 type  2   force =     0.00000000    0.00000000    0.00000000
     atom   10 type  1   force =     0.00000000    0.00000000    0.00000000
     atom   11 type  2   force =     0.00000000    0.00000000    0.00000000
     atom   12 type  2   force =     0.00000000    0.00000000    0.00000000
     atom   13 type  1   force =     0.00000000    0.00000000    0.00000000
     atom   14 type  2   force =     0.00000000    0.00000000    0.00000000
     atom   15 type  2   force =     0.00000000    0.00000000    0.00000000
     atom   16 type  1   force =     0.00000000    0.00000000    0.00000000
     atom   17 type  2   force =     0.00000000    0.00000000    0.00000000
     atom   18 type  2   force =     0.00000000    0.00000000    0.00000000
     atom   19 type  1   force =     0.00000000    0.00000000    0.00000000
     atom   20 type  2   force =     0.00000000    0.00000000    0.00000000
     atom   21 type  1   force =     0.00000000    0.00000000    0.00000000
     atom   22 type  2   force =     0.00000000    0.00000000    0.00000000
     atom   23 type  2   force =     0.00000000    0.00000000    0.00000000
     atom   24 type  1   force =     0.00000000    0.00000000    0.00000000
     atom   25 type  2   force =     0.00000000    0.00000000    0.00000000
     atom   26 type  2   force =     0.00000000    0.00000000    0.00000000
     atom   27 type  1   force =     0.00000000    0.00000000    0.00000000
     atom   28 type  2   force =     0.00000000    0.00000000    0.00000000
     atom   29 type  2   force =     0.00000000    0.00000000    0.00000000
     atom   30 type  1   force =     0.00000000    0.00000000    0.00000000
     atom   31 type  2   force =     0.00000000    0.00000000    0.00000000
     atom   32 type  2   force =     0.00000000    0.00000000    0.00000000
     atom   33 type  1   force =     0.00000000    0.00000000    0.00000000
     atom   34 type  2   force =     0.00000000    0.00000000    0.00000000
     atom   35 type  2   force =     0.00000000    0.00000000    0.00000000
     atom   36 type  3   force =     0.00000000    0.00000000    0.00000000
     The SCF correction term to forces
     atom    1 type  1   force =     0.00017537    0.00018123   -0.00081290
     atom    2 type  2   force =     0.00010896   -0.00005575   -0.00030157
     atom    3 type  2   force =     0.00003904   -0.00001744   -0.00019520
     atom    4 type  1   force =     0.00007149    0.00035168   -0.00065303
     atom    5 type  2   force =     0.00006043    0.00018398   -0.00034454
     atom    6 type  2   force =     0.00001657    0.00013959   -0.00018892
     atom    7 type  1   force =     0.00013705   -0.00012960   -0.00068351
     atom    8 type  2   force =    -0.00000011    0.00002809   -0.00034409
     atom    9 type  2   force =     0.00000520    0.00001885   -0.00010289
     atom   10 type  1   force =    -0.00008025   -0.00029488   -0.00066604
     atom   11 type  2   force =     0.00009063   -0.00016870   -0.00035316
     atom   12 type  2   force =     0.00002479   -0.00014349   -0.00013362
     atom   13 type  1   force =     0.00000403    0.00025660   -0.00073354
     atom   14 type  2   force =    -0.00010229    0.00005343   -0.00049812
     atom   15 type  2   force =    -0.00000547   -0.00002361   -0.00017487
     atom   16 type  1   force =     0.00001437    0.00027743   -0.00074783
     atom   17 type  2   force =     0.00001295    0.00005659   -0.00048380
     atom   18 type  2   force =    -0.00002316    0.00012205   -0.00013215
     atom   19 type  1   force =     0.00005951   -0.00017742   -0.00077164
     atom   20 type  2   force =     0.00000253    0.00001697   -0.00009940
     atom   21 type  1   force =     0.00013340   -0.00041428   -0.00084836
     atom   22 type  2   force =     0.00004636   -0.00024419   -0.00038909
     atom   23 type  2   force =     0.00005359   -0.00017029   -0.00018322
     atom   24 type  1   force =    -0.00007283    0.00022966   -0.00074628
     atom   25 type  2   force =    -0.00006561    0.00001216   -0.00033348
     atom   26 type  2   force =     0.00001666    0.00006854   -0.00018665
     atom   27 type  1   force =    -0.00008830    0.00018717   -0.00075937
     atom   28 type  2   force =    -0.00008650    0.00014414   -0.00040008
     atom   29 type  2   force =    -0.00000173    0.00011115   -0.00016461
     atom   30 type  1   force =    -0.00016206   -0.00013364   -0.00068485
     atom   31 type  2   force =    -0.00005486    0.00002933   -0.00037160
     atom   32 type  2   force =    -0.00001027    0.00001310   -0.00012130
     atom   33 type  1   force =    -0.00002966   -0.00025272   -0.00074966
     atom   34 type  2   force =    -0.00012530   -0.00011224   -0.00030782
     atom   35 type  2   force =    -0.00007360   -0.00015856   -0.00017701
     atom   36 type  3   force =     0.00021075   -0.00001793   -0.00053969

     Total force =     0.169780     Total SCF correction =     0.003174
     Energy error            =      4.0E-02 Ry
     Gradient error          =      1.0E-01 Ry/Bohr

     number of scf cycles    =   2
     number of bfgs steps    =   1

     energy             old  =   -2246.2252964269 Ry
     energy             new  =   -2246.2649694599 Ry

     CASE: energy            _new < energy            _old

     new trust radius        =       0.1491192196 bohr
     new conv_thr            =       0.0000001038 Ry


ATOMIC_POSITIONS (angstrom)
Mo            6.5941133818        1.7628595110        2.8188099078
S             8.1533545703        0.8212566335        4.4336815616
S             8.1816065576        0.8189052672        1.2705394753
Mo            8.1007982484        4.5024096300        2.7151982964
S             6.4997218144        3.7164472954        4.3418552357
S             6.5562647456        3.5218686349        1.1188092651
Mo            6.4953237956        7.2056085562        2.6646296791
S             8.0832740513        6.3400329947        4.2595840042
S             8.0948490435        6.3109241464        1.0955994567
Mo            8.1488143878        9.9133133399        2.8262248997
S             6.5001032417        8.9413941702        4.3738221894
S             6.6172918428        9.0483940955        1.1440419356
Mo            3.4426528142        1.7695189050        2.7050837411
S             5.0247488638        0.8123850986        4.3273345081
S             5.0486343014        0.8510068631        1.2146219340
Mo            4.9748557535        4.5282733792        2.6391940888
S             3.4390455429        3.6890506548        4.2714881757
S             3.4367900838        3.5402252466        1.0706807882
Mo            3.4567000518        7.2032885103        2.6278073836
S             4.9856093713        6.3223763938        1.0359428280
Mo            5.0061688481        9.9071995230        2.7425144669
S             3.4705998159        8.9398352156        4.3257382272
S             3.4061977566        9.0675656631        1.1028640525
Mo            0.3048669213        1.7774190375        2.8402605825
S             1.8954203119        0.8017539130        4.4287224252
S             1.8499579362        0.8540119384        1.2041620455
Mo            1.8606011608        4.4912790630        2.6647147914
S             0.2702256545        3.6543797825        4.3340058530
S             0.2298302723        3.5241223505        1.1661107569
Mo            0.2662274325        7.2250967488        2.6997045295
S             1.9033673847        6.3109581758        4.2391269629
S             1.8528608784        6.3193567328        1.0523049274
Mo            1.8802536959        9.9303933060        2.7760935576
S             0.2955307596        9.0430739736        4.4006682686
S             0.2663595347        9.0513414137        1.1625513097
O             3.0315795185        1.1779424689        5.4258477606



     Writing config-only to output data dir ./MoS2-V-O.save/
     NEW-OLD atomic charge density approx. for the potential

     negative rho (up, down):  1.408E-04 0.000E+00

     total cpu time spent up to now is      207.0 secs

     Self-consistent Calculation

     iteration #  1     ecut=    80.00 Ry     beta= 0.70
     Davidson diagonalization with overlap
     ethr =  1.00E-06,  avg # of iterations = 11.0

     negative rho (up, down):  1.565E-04 0.000E+00

     total cpu time spent up to now is      225.0 secs

     total energy              =   -2246.29253440 Ry
     estimated scf accuracy    <       0.00960929 Ry

     iteration #  2     ecut=    80.00 Ry     beta= 0.70
     Davidson diagonalization with overlap
     ethr =  3.08E-06,  avg # of iterations =  5.0

     negative rho (up, down):  2.110E-04 0.000E+00

     total cpu time spent up to now is      235.5 secs

     total energy              =   -2246.29428356 Ry
     estimated scf accuracy    <       0.00347271 Ry

     iteration #  3     ecut=    80.00 Ry     beta= 0.70
     Davidson diagonalization with overlap
     ethr =  1.11E-06,  avg # of iterations =  4.0

     negative rho (up, down):  2.478E-04 0.000E+00

     total cpu time spent up to now is      251.2 secs

     total energy              =   -2246.29455443 Ry
     estimated scf accuracy    <       0.00030093 Ry

     iteration #  4     ecut=    80.00 Ry     beta= 0.70
     Davidson diagonalization with overlap
     ethr =  9.65E-08,  avg # of iterations =  3.0

     negative rho (up, down):  2.688E-04 0.000E+00

     total cpu time spent up to now is      262.0 secs

     total energy              =   -2246.29459271 Ry
     estimated scf accuracy    <       0.00004107 Ry

     iteration #  5     ecut=    80.00 Ry     beta= 0.70
     Davidson diagonalization with overlap
     ethr =  1.32E-08,  avg # of iterations =  5.0

     negative rho (up, down):  2.831E-04 0.000E+00

     total cpu time spent up to now is      277.2 secs

     total energy              =   -2246.29459902 Ry
     estimated scf accuracy    <       0.00001105 Ry

     iteration #  6     ecut=    80.00 Ry     beta= 0.70
     Davidson diagonalization with overlap
     ethr =  3.54E-09,  avg # of iterations =  3.0

     negative rho (up, down):  2.928E-04 0.000E+00

     total cpu time spent up to now is      290.3 secs

     total energy              =   -2246.29460034 Ry
     estimated scf accuracy    <       0.00000111 Ry

     iteration #  7     ecut=    80.00 Ry     beta= 0.70
     Davidson diagonalization with overlap
     ethr =  3.55E-10,  avg # of iterations =  9.0

     negative rho (up, down):  2.877E-04 0.000E+00

     total cpu time spent up to now is      303.9 secs

     total energy              =   -2246.29460082 Ry
     estimated scf accuracy    <       0.00000023 Ry

     iteration #  8     ecut=    80.00 Ry     beta= 0.70
     Davidson diagonalization with overlap
     ethr =  7.36E-11,  avg # of iterations =  4.0

     negative rho (up, down):  2.048E-04 0.000E+00

     total cpu time spent up to now is      307.4 secs

     End of self-consistent calculation

          k = 0.0000 0.0000 0.0000 (105382 PWs)   bands (ev):

   -62.9956 -62.9760 -62.9593 -62.9528 -62.9449 -62.9363 -62.9031 -62.8891
   -62.8857 -62.8556 -62.8447 -62.8155 -37.3334 -37.2695 -37.2536 -37.2401
   -37.2327 -37.2058 -37.1892 -37.1861 -37.1655 -37.1642 -37.1542 -37.1412
   -37.1352 -37.1300 -37.1226 -37.1163 -37.1044 -37.0841 -37.0705 -37.0596
   -37.0491 -37.0438 -37.0376 -37.0273 -37.0182 -37.0115 -36.9990 -36.9910
   -36.9750 -36.9697 -36.9591 -36.9552 -36.9422 -36.8748 -36.8347 -36.8283
   -21.9694 -16.0133 -15.2800 -15.1865 -15.0188 -15.0070 -14.8441 -14.5795
   -14.5427 -14.5181 -14.4964 -14.4910 -14.4538 -14.3757 -14.3085 -14.2285
   -14.2114 -14.1849 -14.1450 -14.0196 -13.9546 -13.9329 -13.8833 -13.6213
    -8.0734  -7.8925  -7.6190  -7.5455  -7.4321  -7.3661  -7.3166  -7.2679
    -7.2206  -7.0212  -6.8996  -6.8805  -6.8719  -6.7875  -6.7045  -6.5987
    -6.5749  -6.5523  -6.4158  -6.3839  -6.1053  -6.0739  -5.9789  -5.9617
    -5.9154  -5.8830  -5.7881  -5.7565  -5.7320  -5.7054  -5.6645  -5.6125
    -5.5852  -5.5726  -5.4743  -5.3868  -5.3051  -5.2280  -5.1543  -5.0893
    -5.0808  -5.0589  -4.9185  -4.8643  -4.7234  -4.6123  -4.4641  -4.4416
    -4.3639  -4.3441  -4.2310  -4.2215  -4.0809  -4.0022  -3.9316  -3.8748
    -3.8198  -3.7730  -3.7137  -3.7073  -3.6327  -3.5863  -3.5627  -3.5501
    -3.4987  -3.4601  -3.4096  -3.2926  -3.0578  -3.0457  -2.9807  -2.9154
    -2.8681  -2.8462  -2.8218  -2.7980  -2.7028  -2.6534  -2.5021  -2.3150
    -2.1326  -2.1034  -2.0093  -1.6026  -1.0020  -0.8670  -0.6140  -0.2665
    -0.2252  -0.1560  -0.0677  -0.0445   0.0224   0.1357   0.1576   0.1944
     0.2218   0.2623   0.3571   0.4210   0.4464   0.4731   0.5122   0.5384
     0.6073   0.6513   0.6764   0.7176   0.7753   0.8033   0.8618   0.8887
     0.9059   1.0500   1.2037

     the Fermi energy is    -1.3023 ev

!    total energy              =   -2246.29460104 Ry
     estimated scf accuracy    <       0.00000006 Ry
     smearing contrib. (-TS)   =      -0.00008654 Ry
     internal energy E=F+TS    =   -2246.29451450 Ry

     The total energy is F=E-TS. E is the sum of the following terms:
     one-electron contribution =  -18449.72658426 Ry
     hartree contribution      =    9212.81182561 Ry
     xc contribution           =    -392.10728353 Ry
     ewald contribution        =    7392.58877670 Ry
     one-center paw contrib.   =      -9.86124902 Ry

     convergence has been achieved in   8 iterations

     negative rho (up, down):  2.048E-04 0.000E+00

     Forces acting on atoms (cartesian axes, Ry/au):

     atom    1 type  1   force =     0.00423216   -0.00159731   -0.01174785
     atom    2 type  2   force =    -0.00347516    0.00746782   -0.00476369
     atom    3 type  2   force =    -0.00125379    0.00524486   -0.00918809
     atom    4 type  1   force =     0.00411075    0.00196080    0.00196540
     atom    5 type  2   force =     0.00115447   -0.00582163   -0.00672012
     atom    6 type  2   force =     0.00129716    0.00647453    0.00230592
     atom    7 type  1   force =     0.00333521   -0.00515341    0.00126472
     atom    8 type  2   force =     0.00116026   -0.00328592    0.00867460
     atom    9 type  2   force =     0.00963231    0.00461975    0.00394655
     atom   10 type  1   force =     0.00119468    0.00595097   -0.00057277
     atom   11 type  2   force =     0.00235514   -0.00222116   -0.00919411
     atom   12 type  2   force =    -0.00325726   -0.00050275   -0.00019467
     atom   13 type  1   force =     0.00576013    0.00264296   -0.01721043
     atom   14 type  2   force =     0.01534963    0.00419726   -0.01258190
     atom   15 type  2   force =     0.00420300   -0.00110775   -0.01919473
     atom   16 type  1   force =     0.00215589    0.00811319   -0.00112371
     atom   17 type  2   force =     0.00681309   -0.00088405   -0.00246152
     atom   18 type  2   force =     0.00183949    0.00794650   -0.00299554
     atom   19 type  1   force =     0.00248662   -0.00440009    0.00139549
     atom   20 type  2   force =     0.00178189   -0.00246177   -0.00438545
     atom   21 type  1   force =    -0.00244266   -0.00166507   -0.00409171
     atom   22 type  2   force =     0.00484145   -0.00462636    0.00187740
     atom   23 type  2   force =     0.00116873   -0.00176404    0.00168856
     atom   24 type  1   force =     0.00078452    0.00114397    0.00919843
     atom   25 type  2   force =     0.03476488    0.01323642   -0.02501943
     atom   26 type  2   force =    -0.00753994   -0.00219024   -0.00694662
     atom   27 type  1   force =    -0.00123474    0.00016858    0.00384506
     atom   28 type  2   force =    -0.00006912    0.00359530    0.00003045
     atom   29 type  2   force =     0.00075803    0.00229804   -0.00731835
     atom   30 type  1   force =    -0.00198686   -0.00237027    0.00605603
     atom   31 type  2   force =    -0.00057350   -0.00140534    0.00742480
     atom   32 type  2   force =    -0.00639159    0.00473353    0.00478017
     atom   33 type  1   force =     0.00412195    0.00050740    0.00967488
     atom   34 type  2   force =    -0.00073502   -0.02291087   -0.01511149
     atom   35 type  2   force =    -0.00297498    0.00860015    0.00683902
     atom   36 type  3   force =    -0.08336684   -0.02453403    0.08985468
     The non-local contrib.  to forces
     atom    1 type  1   force =    -0.00934586    0.01766701   -0.00825100
     atom    2 type  2   force =     0.00024975    0.00103796   -0.27139602
     atom    3 type  2   force =    -0.00283202   -0.00527114    0.26543803
     atom    4 type  1   force =    -0.00044892    0.00848686    0.00491981
     atom    5 type  2   force =     0.00807487   -0.03032562   -0.25631526
     atom    6 type  2   force =    -0.00220728    0.01009584    0.26408223
     atom    7 type  1   force =    -0.01709877   -0.00108649   -0.02105085
     atom    8 type  2   force =     0.00546620   -0.00051348   -0.26084273
     atom    9 type  2   force =     0.00355013   -0.00775470    0.27165219
     atom   10 type  1   force =    -0.00582229   -0.00455498   -0.00445109
     atom   11 type  2   force =     0.01147364    0.00497262   -0.26463849
     atom   12 type  2   force =    -0.01377888   -0.01691814    0.26285529
     atom   13 type  1   force =    -0.00575076    0.02590904    0.01701065
     atom   14 type  2   force =     0.01652391   -0.00596888   -0.24703173
     atom   15 type  2   force =    -0.00438172   -0.01226488    0.25646217
     atom   16 type  1   force =    -0.00540946    0.02038808   -0.03741678
     atom   17 type  2   force =    -0.00126575    0.00467379   -0.25136616
     atom   18 type  2   force =    -0.00164026    0.00308230    0.26535370
     atom   19 type  1   force =     0.02058436   -0.00232779   -0.01759559
     atom   20 type  2   force =    -0.00157497   -0.01732116    0.26276523
     atom   21 type  1   force =     0.00445393    0.02959521    0.00204779
     atom   22 type  2   force =    -0.00487732   -0.00071461   -0.26264954
     atom   23 type  2   force =     0.00409677   -0.01968691    0.26346077
     atom   24 type  1   force =     0.00003428   -0.00151763    0.00178197
     atom   25 type  2   force =     0.34848566    0.13650043    0.11582215
     atom   26 type  2   force =     0.00241037   -0.01323313    0.26195559
     atom   27 type  1   force =     0.00407097    0.00399091    0.00894755
     atom   28 type  2   force =    -0.00193918   -0.02136499   -0.27291717
     atom   29 type  2   force =     0.00315788   -0.00032316    0.26467225
     atom   30 type  1   force =    -0.00066092    0.01463266    0.00910832
     atom   31 type  2   force =    -0.00977274    0.00083421   -0.26140273
     atom   32 type  2   force =    -0.00033853   -0.01302049    0.27403231
     atom   33 type  1   force =    -0.01299647    0.01567012   -0.00539403
     atom   34 type  2   force =    -0.00238683   -0.01658137   -0.28049252
     atom   35 type  2   force =     0.00166690   -0.01123929    0.26833936
     atom   36 type  3   force =    -1.55033683   -0.53353333   -1.16727628
     The ionic contribution  to forces
     atom    1 type  1   force =     1.24457077    1.27096735    3.60910589
     atom    2 type  2   force =    -0.36755772    0.11988432   38.97738847
     atom    3 type  2   force =     0.10958860   -0.05286651  -36.84109670
     atom    4 type  1   force =    -0.23252502    0.95302600   -0.35941978
     atom    5 type  2   force =    -0.53969861    1.89439839   38.27986003
[...]
     atom   28 type  2   force =     0.00060551   -0.01230542   -0.27768956
     atom   29 type  2   force =    -0.00080926   -0.00887322    0.26624366
     atom   30 type  1   force =    -0.00504112    0.01807326    0.00336632
     atom   31 type  2   force =    -0.00794799    0.00189759   -0.26795797
     atom   32 type  2   force =     0.00730653   -0.01472767    0.27142276
     atom   33 type  1   force =    -0.00117909    0.01628761    0.01646569
     atom   34 type  2   force =     0.00153320   -0.00735588   -0.27918234
     atom   35 type  2   force =     0.00103110   -0.01222573    0.26454802
     atom   36 type  3   force =     0.00002123   -0.02630831   -2.31763360
     The ionic contribution  to forces
     atom    1 type  1   force =    -0.19541177    1.02804066    0.66095192
     atom    2 type  2   force =    -1.19418018    0.04977931   38.12370609
     atom    3 type  2   force =     0.02535694   -0.15555541  -38.36678506
     atom    4 type  1   force =    -0.50132722    0.84447933   -0.68328606
     atom    5 type  2   force =    -0.84514971    1.42744904   37.88181121
     atom    6 type  2   force =     0.19330728   -0.24277483  -38.60788778
     atom    7 type  1   force =    -2.63698678   -1.99956213    2.05661875
     atom    8 type  2   force =    -1.31910433    0.11378463   38.16516319
     atom    9 type  2   force =     0.32856578    0.06044421  -38.30487437
     atom   10 type  1   force =    -1.01562337   -0.98781668    1.81522600
     atom   11 type  2   force =    -0.45228036   -1.69097048   38.28865699
     atom   12 type  2   force =     0.21283636    0.18414021  -38.28933872
     atom   13 type  1   force =     1.08734346    1.23965677   -1.51151562
     atom   14 type  2   force =     0.99626633   -0.07117015   37.81446788
     atom   15 type  2   force =     0.04292984   -0.17483593  -38.36013649
     atom   16 type  1   force =     0.35646102    3.78620629    0.17738060
     atom   17 type  2   force =     1.36625101    2.11571232   37.70625151
     atom   18 type  2   force =    -0.20018180   -0.16426586  -38.84637834
     atom   19 type  1   force =     2.78580879   -2.37974383    1.91579555
     atom   20 type  2   force =     0.02827894    0.03172524  -39.15303258
     atom   21 type  1   force =     0.54547772   -0.80954519   -0.41951581
     atom   22 type  2   force =     1.01851011   -2.29531786   37.98772640
     atom   23 type  2   force =    -0.14261489    0.21710507  -38.63012081
     atom   24 type  1   force =    -0.91832095    0.96725007   -1.93190465
     atom   25 type  2   force =     0.21002220   -0.04184755   28.67418995
     atom   26 type  2   force =    -0.05086114   -0.14459710  -38.10721038
     atom   27 type  1   force =     0.14860863    1.23777975   -0.69648693
     atom   28 type  2   force =    -0.52610315    1.50935884   37.54072148
     atom   29 type  2   force =     0.01387380    0.08454380  -38.44897716
     atom   30 type  1   force =    -0.15770868   -1.17984426    1.73265328
     atom   31 type  2   force =     1.18454785    0.14106738   38.00066501
     atom   32 type  2   force =    -0.36366636    0.05074975  -38.19345547
     atom   33 type  1   force =     0.46706455   -1.58052485   -0.71782788
     atom   34 type  2   force =    -0.59229278   -1.41812044   38.39919203
     atom   35 type  2   force =    -0.07166934    0.04072051  -38.13909140
     atom   36 type  3   force =     0.17197224    0.20649936   50.46664767
     The local contribution  to forces
     atom    1 type  1   force =     0.19594925   -1.05306014   -0.66371864
     atom    2 type  2   force =     1.19444056   -0.04192239  -37.87229286
     atom    3 type  2   force =    -0.02178232    0.16415633   38.12384613
     atom    4 type  1   force =     0.49751412   -0.85163400    0.67723910
     atom    5 type  2   force =     0.84040938   -1.40440699  -37.64404433
     atom    6 type  2   force =    -0.19362224    0.24824740   38.36132014
     atom    7 type  1   force =     2.65154637    1.99570546   -2.03028787
     atom    8 type  2   force =     1.30973647   -0.11595919  -37.91884037
     atom    9 type  2   force =    -0.32124277   -0.04752034   38.05716543
     atom   10 type  1   force =     1.01293085    0.98073237   -1.81710810
     atom   11 type  2   force =     0.44728265    1.69030889  -38.04728219
     atom   12 type  2   force =    -0.20478723   -0.17170564   38.04407682
     atom   13 type  1   force =    -1.07935500   -1.25149656    1.50108491
     atom   14 type  2   force =    -0.99620693    0.07631577  -37.56128564
     atom   15 type  2   force =    -0.04357272    0.18377878   38.12040148
     atom   16 type  1   force =    -0.35670337   -3.82014799   -0.14392333
     atom   17 type  2   force =    -1.36082306   -2.09555708  -37.46890547
     atom   18 type  2   force =     0.19942768    0.16665958   38.60187152
     atom   19 type  1   force =    -2.80513317    2.37988133   -1.88813853
     atom   20 type  2   force =    -0.02888956   -0.01814834   38.91178299
     atom   21 type  1   force =    -0.54507216    0.77964296    0.41652202
     atom   22 type  2   force =    -1.01203940    2.29471614  -37.74556357
     atom   23 type  2   force =     0.13493509   -0.20432379   38.38657976
     atom   24 type  1   force =     0.91117503   -0.97516858    1.91300540
     atom   25 type  2   force =    -0.20347592    0.03545389  -28.95983175
     atom   26 type  2   force =     0.04875918    0.15463846   37.84944976
     atom   27 type  1   force =    -0.14430231   -1.24155839    0.69347553
     atom   28 type  2   force =     0.52523231   -1.49732256  -37.28418945
     atom   29 type  2   force =    -0.01320898   -0.07634416   38.20288456
     atom   30 type  1   force =     0.16323891    1.16188964   -1.73662172
     atom   31 type  2   force =    -1.17755734   -0.14271924  -37.75408457
     atom   32 type  2   force =     0.35672222   -0.03743274   37.94325899
     atom   33 type  1   force =    -0.46649407    1.56549187    0.70146197
     atom   34 type  2   force =     0.59030050    1.42481913  -38.14190937
     atom   35 type  2   force =     0.07127745   -0.02842533   37.89420395
     atom   36 type  3   force =    -0.17293473   -0.18044570  -48.17635239
     The core correction contribution to forces
     atom    1 type  1   force =     0.00000000    0.00000000    0.00000000
     atom    2 type  2   force =     0.00004615    0.00038231    0.02130929
     atom    3 type  2   force =     0.00024480    0.00022547   -0.02077822
     atom    4 type  1   force =     0.00000000    0.00000000    0.00000000
     atom    5 type  2   force =    -0.00043696    0.00108609    0.02056913
     atom    6 type  2   force =     0.00023533   -0.00016013   -0.02093546
     atom    7 type  1   force =     0.00000000    0.00000000    0.00000000
     atom    8 type  2   force =    -0.00057494    0.00009920    0.02100609
     atom    9 type  2   force =     0.00070759    0.00078750   -0.02101198
     atom   10 type  1   force =     0.00000000    0.00000000    0.00000000
     atom   11 type  2   force =    -0.00009579   -0.00030538    0.02076454
     atom   12 type  2   force =     0.00073485    0.00094333   -0.02090772
     atom   13 type  1   force =     0.00000000    0.00000000    0.00000000
     atom   14 type  2   force =     0.00001739   -0.00006237    0.02139129
     atom   15 type  2   force =    -0.00014003    0.00036749   -0.02058631
     atom   16 type  1   force =     0.00000000    0.00000000    0.00000000
     atom   17 type  2   force =     0.00049920    0.00100768    0.02068550
     atom   18 type  2   force =    -0.00033316   -0.00032551   -0.02081692
     atom   19 type  1   force =     0.00000000    0.00000000    0.00000000
     atom   20 type  2   force =    -0.00005409    0.00070947   -0.02123317
     atom   21 type  1   force =     0.00000000    0.00000000    0.00000000
     atom   22 type  2   force =     0.00021998   -0.00018863    0.02093578
     atom   23 type  2   force =    -0.00063770    0.00096927   -0.02086946
     atom   24 type  1   force =     0.00000000    0.00000000    0.00000000
     atom   25 type  2   force =     0.00024875   -0.00040477   -0.00988289
     atom   26 type  2   force =    -0.00014830    0.00036833   -0.02133916
     atom   27 type  1   force =     0.00000000    0.00000000    0.00000000
     atom   28 type  2   force =    -0.00001048    0.00080988    0.02146611
     atom   29 type  2   force =     0.00011511    0.00031369   -0.02078032
     atom   30 type  1   force =     0.00000000    0.00000000    0.00000000
     atom   31 type  2   force =     0.00041630    0.00018718    0.02095703
     atom   32 type  2   force =    -0.00069266    0.00081968   -0.02102355
     atom   33 type  1   force =     0.00000000    0.00000000    0.00000000
     atom   34 type  2   force =    -0.00009764    0.00033263    0.02162223
     atom   35 type  2   force =    -0.00009234    0.00072473   -0.02088346
     atom   36 type  3   force =     0.00000544    0.00026221    0.02460361
     The Hubbard contrib.    to forces
     atom    1 type  1   force =     0.00000000    0.00000000    0.00000000
     atom    2 type  2   force =     0.00000000    0.00000000    0.00000000
     atom    3 type  2   force =     0.00000000    0.00000000    0.00000000
     atom    4 type  1   force =     0.00000000    0.00000000    0.00000000
     atom    5 type  2   force =     0.00000000    0.00000000    0.00000000
     atom    6 type  2   force =     0.00000000    0.00000000    0.00000000
     atom    7 type  1   force =     0.00000000    0.00000000    0.00000000
     atom    8 type  2   force =     0.00000000    0.00000000    0.00000000
     atom    9 type  2   force =     0.00000000    0.00000000    0.00000000
     atom   10 type  1   force =     0.00000000    0.00000000    0.00000000
     atom   11 type  2   force =     0.00000000    0.00000000    0.00000000
     atom   12 type  2   force =     0.00000000    0.00000000    0.00000000
     atom   13 type  1   force =     0.00000000    0.00000000    0.00000000
     atom   14 type  2   force =     0.00000000    0.00000000    0.00000000
     atom   15 type  2   force =     0.00000000    0.00000000    0.00000000
     atom   16 type  1   force =     0.00000000    0.00000000    0.00000000
     atom   17 type  2   force =     0.00000000    0.00000000    0.00000000
     atom   18 type  2   force =     0.00000000    0.00000000    0.00000000
     atom   19 type  1   force =     0.00000000    0.00000000    0.00000000
     atom   20 type  2   force =     0.00000000    0.00000000    0.00000000
     atom   21 type  1   force =     0.00000000    0.00000000    0.00000000
     atom   22 type  2   force =     0.00000000    0.00000000    0.00000000
     atom   23 type  2   force =     0.00000000    0.00000000    0.00000000
     atom   24 type  1   force =     0.00000000    0.00000000    0.00000000
     atom   25 type  2   force =     0.00000000    0.00000000    0.00000000
     atom   26 type  2   force =     0.00000000    0.00000000    0.00000000
     atom   27 type  1   force =     0.00000000    0.00000000    0.00000000
     atom   28 type  2   force =     0.00000000    0.00000000    0.00000000
     atom   29 type  2   force =     0.00000000    0.00000000    0.00000000
     atom   30 type  1   force =     0.00000000    0.00000000    0.00000000
     atom   31 type  2   force =     0.00000000    0.00000000    0.00000000
     atom   32 type  2   force =     0.00000000    0.00000000    0.00000000
     atom   33 type  1   force =     0.00000000    0.00000000    0.00000000
     atom   34 type  2   force =     0.00000000    0.00000000    0.00000000
     atom   35 type  2   force =     0.00000000    0.00000000    0.00000000
     atom   36 type  3   force =     0.00000000    0.00000000    0.00000000
     The SCF correction term to forces
     atom    1 type  1   force =    -0.00000127    0.00001137   -0.00002871
     atom    2 type  2   force =     0.00000735   -0.00000222   -0.00000717
     atom    3 type  2   force =    -0.00000230    0.00000460   -0.00000938
     atom    4 type  1   force =    -0.00000622    0.00000378   -0.00002831
     atom    5 type  2   force =     0.00001240    0.00000830   -0.00001094
     atom    6 type  2   force =     0.00000416    0.00000684   -0.00001248
     atom    7 type  1   force =     0.00000164   -0.00000581   -0.00002139
     atom    8 type  2   force =    -0.00000056   -0.00000939   -0.00000560
     atom    9 type  2   force =    -0.00000526   -0.00001168   -0.00000659
     atom   10 type  1   force =    -0.00000219   -0.00000562   -0.00001574
     atom   11 type  2   force =    -0.00000292    0.00000328   -0.00000610
     atom   12 type  2   force =    -0.00001285    0.00000028   -0.00000836
     atom   13 type  1   force =    -0.00002506   -0.00002347   -0.00001845
     atom   14 type  2   force =    -0.00000541   -0.00001149    0.00000226
     atom   15 type  2   force =    -0.00000118   -0.00000575   -0.00001759
     atom   16 type  1   force =     0.00000585    0.00000816   -0.00003470
     atom   17 type  2   force =    -0.00000607    0.00000783   -0.00000166
     atom   18 type  2   force =     0.00000027    0.00000864   -0.00002149
     atom   19 type  1   force =     0.00001214   -0.00000242   -0.00002813
     atom   20 type  2   force =    -0.00000322   -0.00000204   -0.00002205
     atom   21 type  1   force =     0.00000036   -0.00000610   -0.00001700
     atom   22 type  2   force =     0.00000275    0.00000120   -0.00000499
     atom   23 type  2   force =     0.00001369   -0.00000420   -0.00000722
     atom   24 type  1   force =     0.00001394   -0.00000148   -0.00001207
     atom   25 type  2   force =     0.00001143   -0.00000265   -0.00001990
     atom   26 type  2   force =     0.00000120    0.00000309    0.00000665
     atom   27 type  1   force =    -0.00000715    0.00001280   -0.00002874
     atom   28 type  2   force =    -0.00000381    0.00000538   -0.00001218
     atom   29 type  2   force =    -0.00000252    0.00000983   -0.00000648
     atom   30 type  1   force =     0.00001248   -0.00001984   -0.00001407
     atom   31 type  2   force =    -0.00000534   -0.00000319   -0.00000678
     atom   32 type  2   force =     0.00000072   -0.00000811   -0.00000309
     atom   33 type  1   force =     0.00001039    0.00002676    0.00000025
     atom   34 type  2   force =    -0.00000025   -0.00000513   -0.00000358
     atom   35 type  2   force =    -0.00000490    0.00000030   -0.00000278
     atom   36 type  3   force =     0.00004781   -0.00000280   -0.00002108

     Total force =     0.006874     Total SCF correction =     0.000130
     Energy error            =      7.9E-05 Ry
     Gradient error          =      2.8E-03 Ry/Bohr

     bfgs converged in  22 scf cycles and  21 bfgs steps
     (criteria: energy <  1.0E-04 Ry, force <  1.0E-02 Ry/Bohr)

     End of BFGS Geometry Optimization

     Final energy             =   -2246.4498605747 Ry

     File ./MoS2-V-O.bfgs deleted, as requested
Begin final coordinates

ATOMIC_POSITIONS (angstrom)
Mo            6.6007107374        1.7582198025        2.7464975043
S             8.1732586495        0.8711114535        4.3612444541
S             8.1710393333        0.8382171635        1.1607129633
Mo            8.1622788395        4.5098380857        2.7069131499
S             6.5608560708        3.6730803093        4.2955146731
S             6.5997237365        3.5736786544        1.0989782712
Mo            6.5504198931        7.1918588162        2.6724416020
S             8.1075553402        6.3085976434        4.3104415451
S             8.1737192630        6.3431107355        1.1178329173
Mo            8.1766488886        9.9484644831        2.7744289013
S             6.5566874466        8.9613088817        4.3280458252
S             6.6307638527        9.0407389011        1.1321071915
Mo            3.4842293596        1.7871355739        2.7419993289
S             5.0301900431        0.8331188848        4.3377083302
S             5.0330895485        0.8427764510        1.1539231682
Mo            5.0338586760        4.5503947846        2.6430620915
S             3.5154636695        3.6844009913        4.3079997935
S             3.4670401169        3.5871835912        1.0970536758
Mo            3.5180729442        7.1942646759        2.6739234868
S             5.0326832206        6.3304673179        1.0394723847
Mo            5.0308674753        9.9199958312        2.7282326747
S             3.5102560816        8.9574044797        4.3289730184
S             3.4466379902        9.0290797082        1.1207120244
Mo            0.2785833816        1.7766163385        2.7479256981
S             1.8898935798        0.8577008443        4.2703581284
S             1.8813789485        0.8468248988        1.1870982040
Mo            1.9059377275        4.5065088756        2.7152345583
S             0.3022598828        3.6216117659        4.3185021170
S             0.3052571854        3.5919364006        1.1340420646
Mo            0.2944902197        7.2275966056        2.7517684691
S             1.9472537320        6.3125999909        4.3095516519
S             1.8849487785        6.3444631031        1.1243876662
Mo            1.8881847486        9.9121439335        2.7618966251
S             0.3038629599        9.0366585113        4.3764285588
S             0.2886077270        9.0452001043        1.1741093728
O             1.8878902974        0.8809600408        5.7708177818
End final coordinates



     Writing all to output data dir ./MoS2-V-O.save/
 
     init_run     :      4.67s CPU      5.27s WALL (       1 calls)
     electrons    :   2013.08s CPU   2273.20s WALL (      22 calls)
     update_pot   :     64.12s CPU     68.28s WALL (      21 calls)
     forces       :     59.83s CPU     68.13s WALL (      22 calls)

     Called by init_run:
     wfcinit      :      0.49s CPU      0.56s WALL (       1 calls)
     potinit      :      2.39s CPU      2.66s WALL (       1 calls)
     hinit0       :      0.44s CPU      0.53s WALL (       1 calls)

     Called by electrons:
     c_bands      :    295.52s CPU    302.43s WALL (     205 calls)
     sum_band     :    114.40s CPU    146.96s WALL (     205 calls)
     v_of_rho     :    191.59s CPU    232.29s WALL (     220 calls)
     newd         :     66.14s CPU     96.70s WALL (     220 calls)
     PAW_pot      :      8.71s CPU      8.77s WALL (     241 calls)
     mix_rho      :   1358.46s CPU   1509.66s WALL (     205 calls)

     Called by c_bands:
     init_us_2    :      4.72s CPU      5.07s WALL (     432 calls)
     init_us_2:cp :      4.72s CPU      5.07s WALL (     432 calls)
     regterg      :    280.16s CPU    286.71s WALL (     205 calls)

     Called by *egterg:
     rdiaghg      :     19.11s CPU     19.32s WALL (    1076 calls)
     h_psi        :    181.83s CPU    183.31s WALL (    1105 calls)
     s_psi        :     17.17s CPU     17.22s WALL (    1105 calls)
     g_psi        :      0.89s CPU      0.90s WALL (     899 calls)

     Called by h_psi:
     h_psi:calbec :     19.42s CPU     19.50s WALL (    1105 calls)
     vloc_psi     :    143.27s CPU    144.57s WALL (    1105 calls)
     add_vuspsi   :     16.84s CPU     16.93s WALL (    1105 calls)

     General routines
     calbec       :     28.16s CPU     28.27s WALL (    1419 calls)
     fft          :    129.42s CPU    150.35s WALL (   14702 calls)
     ffts         :    609.11s CPU    755.22s WALL (  333821 calls)
     fftw         :     91.70s CPU     92.46s WALL (  126560 calls)
     interpolate  :      2.81s CPU      3.16s WALL (     220 calls)
 
     Parallel routines
 
     PWSCF        :  35m50.99s CPU  40m28.99s WALL

 
   This run was terminated on:  12:24:24   1Nov2023            

=------------------------------------------------------------------------------=
   JOB DONE.
=------------------------------------------------------------------------------=
