
     Program PWSCF v.7.2 starts on  1Nov2023 at 14:25:41 

     This program is part of the open-source Quantum ESPRESSO suite
     for quantum simulation of materials; please cite
         "P. Giannozzi et al., J. Phys.:Condens. Matter 21 395502 (2009);
         "P. Giannozzi et al., J. Phys.:Condens. Matter 29 465901 (2017);
         "P. Giannozzi et al., J. Chem. Phys. 152 154105 (2020);
          URL http://www.quantum-espresso.org", 
     in publications or presentations arising from this work. More details at
     http://www.quantum-espresso.org/quote

     Parallel version (MPI & OpenMP), running on      48 processor cores
     Number of MPI processes:                48
     Threads/MPI process:                     1

     MPI processes distributed on     1 nodes
     47057 MiB available memory on the printing compute node when the environment starts
 
     Waiting for input...
     Reading input from standard input
Warning: card &CELL ignored
Warning: card CELL_DYNAMICS = 'BFGS', ignored
Warning: card CELL_DOFREE = '2DXY' ignored
Warning: card / ignored

     Current dimensions of program PWSCF are:
     Max number of different atomic species (ntypx) = 10
     Max number of k-points (npk) =  40000
     Max angular momentum in pseudopotentials (lmaxx) =  4
     file O.pbe-n-kjpaw_psl.0.1.UPF: wavefunction(s)  2P renormalized

     IMPORTANT: XC functional enforced from input :
     Exchange-correlation= RVV10
                           (   1   4  13   4  26   0   0)
     Any further DFT definition will be discarded
     Please, verify this is what you really want


     gamma-point specific algorithms are used
     signal trapping enabled: kill the code with -SIGUSR1 to stop cleanly the simulation 
 
     R & G space division:  proc/nbgrp/npool/nimage =      48
     Subspace diagonalization in iterative solution of the eigenvalue problem:
     one sub-group per band group will be used
     scalapack distributed-memory algorithm (size of sub-group:  2*  2 procs)

 
     Parallelization info
     --------------------
     sticks:   dense  smooth     PW     G-vecs:    dense   smooth      PW
     Min         396     194     47               101632    35090    4376
     Max         398     196     50               101674    35128    4410
     Sum       19091    9389   2349              4879585  1685513  210763
 
     Using Slab Decomposition
 


     bravais-lattice index     =            0
     lattice parameter (alat)  =      17.8707  a.u.
     unit-cell volume          =   17436.2743 (a.u.)^3
     number of atoms/cell      =           36
     number of atomic types    =            3
     number of electrons       =       312.00
     number of Kohn-Sham states=          187
     kinetic-energy cutoff     =      80.0000  Ry
     charge density cutoff     =     650.0000  Ry
     scf convergence threshold =      1.0E-06
     mixing beta               =       0.7000
     number of iterations used =            8  local-TF  mixing
     energy convergence thresh.=      1.0E-04
     force convergence thresh. =      1.0E-02
     Exchange-correlation= RVV10
                           (   1   4  13   4  26   0   0)
     nstep                     =          200


     celldm(1)=  17.870686  celldm(2)=   0.000000  celldm(3)=   0.000000
     celldm(4)=   0.000000  celldm(5)=   0.000000  celldm(6)=   0.000000

     crystal axes: (cart. coord. in units of alat)
               a(1) = (   1.000000   0.000000   0.000000 )  
               a(2) = (   0.000000   1.155671   0.000000 )  
               a(3) = (   0.000000   0.000000   2.643601 )  

     reciprocal axes: (cart. coord. in units 2 pi/alat)
               b(1) = (  1.000000  0.000000  0.000000 )  
               b(2) = (  0.000000  0.865298  0.000000 )  
               b(3) = (  0.000000  0.000000  0.378272 )  


     PseudoPot. # 1 for Mo read from file:
     ../pseudo/Mo_ONCV_PBE-1.0.oncvpsp.upf
     MD5 check sum: 1b5d28e075c9ccadda658a603575cd1f
     Pseudo is Norm-conserving, Zval = 14.0
     Generated using ONCVPSP code by D. R. Hamann
     Using radial grid of 1526 points,  6 beta functions with: 
                l(1) =   0
                l(2) =   0
                l(3) =   1
                l(4) =   1
                l(5) =   2
                l(6) =   2

     PseudoPot. # 2 for S  read from file:
     ../pseudo/s_pbe_v1.4.uspp.F.UPF
     MD5 check sum: 88d86576ff6df21479756cfb9bdac1df
     Pseudo is Ultrasoft + core correction, Zval =  6.0
     Generated by new atomic code, or converted to UPF format
     Using radial grid of  907 points,  6 beta functions with: 
                l(1) =   0
                l(2) =   0
                l(3) =   1
                l(4) =   1
                l(5) =   2
                l(6) =   2
     Q(r) pseudized with  8 coefficients,  rinner =    1.300   1.300   1.300
                                                       1.300   1.300

     PseudoPot. # 3 for O  read from file:
     ../pseudo/O.pbe-n-kjpaw_psl.0.1.UPF
     MD5 check sum: 0234752ac141de4415c5fc33072bef88
     Pseudo is Projector augmented-wave + core cor, Zval =  6.0
     Generated using "atomic" code by A. Dal Corso  v.5.0.99 svn rev. 10869
     Shape of augmentation charge: BESSEL
     Using radial grid of 1095 points,  4 beta functions with: 
                l(1) =   0
                l(2) =   0
                l(3) =   1
                l(4) =   1
     Q(r) pseudized with 0 coefficients 


     atomic species   valence    mass     pseudopotential
        Mo            14.00    95.94000     Mo( 1.00)
        S              6.00    32.06500     S ( 1.00)
        O              6.00    15.99940     O ( 1.00)

     No symmetry found



   Cartesian axes

     site n.     atom                  positions (alat units)
         1           Mo  tau(   1) = (   0.6952221   0.1890506   0.2985846  )
         2           S   tau(   2) = (   0.8646417   0.0856217   0.4689279  )
         3           S   tau(   3) = (   0.8663890   0.0857843   0.1351291  )
         4           Mo  tau(   4) = (   0.8560186   0.4753274   0.2873942  )
         5           S   tau(   5) = (   0.6873294   0.3936244   0.4596353  )
         6           S   tau(   6) = (   0.6929804   0.3713468   0.1185692  )
         7           Mo  tau(   7) = (   0.6862796   0.7633098   0.2825370  )
         8           S   tau(   8) = (   0.8545980   0.6708292   0.4486168  )
         9           S   tau(   9) = (   0.8545123   0.6666874   0.1146125  )
        10           Mo  tau(  10) = (   0.8629403   1.0471007   0.3006803  )
        11           S   tau(  11) = (   0.6868280   0.9456650   0.4634891  )
        12           S   tau(  12) = (   0.6998113   0.9568511   0.1205389  )
        13           Mo  tau(  13) = (   0.3618216   0.1847309   0.2935964  )
        14           S   tau(  14) = (   0.5260962   0.0863870   0.4600448  )
        15           S   tau(  15) = (   0.5348379   0.0894875   0.1297123  )
        16           Mo  tau(  16) = (   0.5265817   0.4772436   0.2784130  )
        17           S   tau(  17) = (   0.3624753   0.3882513   0.4525556  )
        18           S   tau(  18) = (   0.3635411   0.3752055   0.1119148  )
        19           Mo  tau(  19) = (   0.3652268   0.7630864   0.2781795  )
        20           S   tau(  20) = (   0.5269494   0.6690381   0.1096838  )
        21           Mo  tau(  21) = (   0.5300192   1.0470394   0.2900995  )
        22           S   tau(  22) = (   0.3670346   0.9457522   0.4574073  )
        23           S   tau(  23) = (   0.3604225   0.9585725   0.1159032  )
        24           Mo  tau(  24) = (   0.0313099   0.1847895   0.3013130  )
        25           S   tau(  25) = (   0.1956761   0.0838230   0.4650863  )
        26           S   tau(  26) = (   0.1967693   0.0903508   0.1278874  )
        27           Mo  tau(  27) = (   0.1967578   0.4753919   0.2813011  )
        28           S   tau(  28) = (   0.0287851   0.3864324   0.4586755  )
        29           S   tau(  29) = (   0.0244514   0.3729871   0.1239344  )
        30           Mo  tau(  30) = (   0.0286728   0.7631204   0.2856894  )
        31           S   tau(  31) = (   0.2011512   0.6675435   0.4465001  )
        32           S   tau(  32) = (   0.1969214   0.6672839   0.1104564  )
        33           Mo  tau(  33) = (   0.1950294   1.0511147   0.2932237  )
        34           S   tau(  34) = (   0.0312912   0.9612169   0.4667423  )
        35           S   tau(  35) = (   0.0292670   0.9563028   0.1216485  )
        36           O   tau(  36) = (   0.7777778   0.2568157   0.5407634  )

     number of k points=     1  Gaussian smearing, width (Ry)=  0.0100
                       cart. coord. in units 2pi/alat
        k(    1) = (   0.0000000   0.0000000   0.0000000), wk =   2.0000000

     Dense  grid:  2439793 G-vectors     FFT dimensions: ( 150, 180, 384)

     Smooth grid:   842757 G-vectors     FFT dimensions: ( 108, 120, 270)

     Estimated max dynamical RAM per process >     269.22 MB

     Estimated total dynamical RAM >      12.62 GB

     Initial potential from superposition of free atoms

     starting charge     311.9873, renormalised to     312.0000

     negative rho (up, down):  2.749E-04 0.000E+00


---------------------------------------------------------------------------------
Carrying out rVV10 run using the following parameters:
Nqs =      20    Nr_points =    1024   r_max =   100.000
b_value =  6.30000    beta =  0.00901
     q_mesh =  0.00010000  0.00030000  0.00058939  0.00100810
               0.00161396  0.00249058  0.00375900  0.00559430
               0.00824984  0.01209221  0.01765183  0.02569619
               0.03733578  0.05417739  0.07854596  0.11380545
               0.16482331  0.23864234  0.34545298  0.50000000

Gradients computed in Reciprocal space

---------------------------------------------------------------------------------


     Starting wfcs are  216 randomized atomic wfcs
     Checking if some PAW data can be deallocated... 

     total cpu time spent up to now is        5.2 secs

     Self-consistent Calculation

     iteration #  1     ecut=    80.00 Ry     beta= 0.70
     Davidson diagonalization with overlap
     ethr =  1.00E-02,  avg # of iterations =  2.0

     Threshold (ethr) on eigenvalues was too large:
     Diagonalizing with lowered threshold

     Davidson diagonalization with overlap
     ethr =  4.12E-04,  avg # of iterations =  4.0

     negative rho (up, down):  3.869E-08 0.000E+00

     total cpu time spent up to now is       24.7 secs

     total energy              =   -2246.18892886 Ry
     estimated scf accuracy    <       1.53930516 Ry

     iteration #  2     ecut=    80.00 Ry     beta= 0.70
     Davidson diagonalization with overlap
     ethr =  4.93E-04,  avg # of iterations =  4.0

     total cpu time spent up to now is       29.9 secs

     total energy              =   -2246.16738524 Ry
     estimated scf accuracy    <       0.82027955 Ry

     iteration #  3     ecut=    80.00 Ry     beta= 0.70
     Davidson diagonalization with overlap
     ethr =  2.63E-04,  avg # of iterations =  2.0

     total cpu time spent up to now is       33.7 secs

     total energy              =   -2246.15191746 Ry
     estimated scf accuracy    <       0.28765655 Ry

     iteration #  4     ecut=    80.00 Ry     beta= 0.70
     Davidson diagonalization with overlap
     ethr =  9.22E-05,  avg # of iterations = 14.0

     total cpu time spent up to now is       38.2 secs

     total energy              =   -2246.19287974 Ry
     estimated scf accuracy    <       0.04494629 Ry

     iteration #  5     ecut=    80.00 Ry     beta= 0.70
     Davidson diagonalization with overlap
     ethr =  1.44E-05,  avg # of iterations =  5.0

     total cpu time spent up to now is       42.2 secs

     total energy              =   -2246.19529067 Ry
     estimated scf accuracy    <       0.02072048 Ry

     iteration #  6     ecut=    80.00 Ry     beta= 0.70
     Davidson diagonalization with overlap
     ethr =  6.64E-06,  avg # of iterations = 14.0

     total cpu time spent up to now is       46.3 secs

     total energy              =   -2246.19471605 Ry
     estimated scf accuracy    <       0.01341291 Ry

     iteration #  7     ecut=    80.00 Ry     beta= 0.70
     Davidson diagonalization with overlap
     ethr =  4.30E-06,  avg # of iterations =  1.0

     total cpu time spent up to now is       49.8 secs

     total energy              =   -2246.19367253 Ry
     estimated scf accuracy    <       0.00900195 Ry

     iteration #  8     ecut=    80.00 Ry     beta= 0.70
     Davidson diagonalization with overlap
     ethr =  2.89E-06,  avg # of iterations =  2.0

     negative rho (up, down):  2.753E-03 0.000E+00

     total cpu time spent up to now is       55.2 secs

     total energy              =   -2246.19205666 Ry
     estimated scf accuracy    <       0.00538278 Ry

     iteration #  9     ecut=    80.00 Ry     beta= 0.70
     Davidson diagonalization with overlap
     ethr =  1.73E-06,  avg # of iterations =  2.0

     negative rho (up, down):  1.650E-02 0.000E+00

     total cpu time spent up to now is       62.1 secs

     total energy              =   -2246.19187828 Ry
     estimated scf accuracy    <       0.00264409 Ry

     iteration # 10     ecut=    80.00 Ry     beta= 0.70
     Davidson diagonalization with overlap
     ethr =  8.47E-07,  avg # of iterations =  2.0

     negative rho (up, down):  2.369E-02 0.000E+00

     total cpu time spent up to now is       68.0 secs

     total energy              =   -2246.19178020 Ry
     estimated scf accuracy    <       0.00142033 Ry

     iteration # 11     ecut=    80.00 Ry     beta= 0.70
     Davidson diagonalization with overlap
     ethr =  4.55E-07,  avg # of iterations =  2.0

     negative rho (up, down):  2.327E-02 0.000E+00

     total cpu time spent up to now is       74.8 secs

     total energy              =   -2246.19184934 Ry
     estimated scf accuracy    <       0.00049498 Ry

     iteration # 12     ecut=    80.00 Ry     beta= 0.70
     Davidson diagonalization with overlap
     ethr =  1.59E-07,  avg # of iterations =  4.0

     negative rho (up, down):  7.946E-03 0.000E+00

     total cpu time spent up to now is       81.6 secs

     total energy              =   -2246.19179251 Ry
     estimated scf accuracy    <       0.00008104 Ry

     iteration # 13     ecut=    80.00 Ry     beta= 0.70
     Davidson diagonalization with overlap
     ethr =  2.60E-08,  avg # of iterations =  9.0

     negative rho (up, down):  2.622E-03 0.000E+00

     total cpu time spent up to now is       89.3 secs

     total energy              =   -2246.19184631 Ry
     estimated scf accuracy    <       0.00001457 Ry

     iteration # 14     ecut=    80.00 Ry     beta= 0.70
     Davidson diagonalization with overlap
     ethr =  4.67E-09,  avg # of iterations =  2.0

     negative rho (up, down):  5.943E-04 0.000E+00

     total cpu time spent up to now is      100.1 secs

     total energy              =   -2246.19185523 Ry
     estimated scf accuracy    <       0.00000305 Ry

     iteration # 15     ecut=    80.00 Ry     beta= 0.70
     Davidson diagonalization with overlap
     ethr =  9.78E-10,  avg # of iterations =  4.0

     negative rho (up, down):  1.868E-04 0.000E+00

     total cpu time spent up to now is      103.8 secs

     End of self-consistent calculation

          k = 0.0000 0.0000 0.0000 (105382 PWs)   bands (ev):

   -63.0180 -62.8935 -62.8830 -62.8798 -62.8683 -62.8583 -62.8314 -62.8254
   -62.8155 -62.8083 -62.7696 -62.7502 -37.3086 -37.2516 -37.2177 -37.1826
   -37.1684 -37.1639 -37.1500 -37.1158 -37.1019 -37.0910 -37.0862 -37.0724
   -37.0680 -37.0561 -37.0525 -37.0390 -37.0372 -37.0291 -37.0250 -37.0156
   -36.9874 -36.9803 -36.9654 -36.9634 -36.9538 -36.9435 -36.9331 -36.9228
   -36.9220 -36.9096 -36.8847 -36.8718 -36.8400 -36.8225 -36.7825 -36.7289
   -21.4762 -15.9529 -15.6145 -15.1462 -15.0760 -14.9701 -14.8415 -14.7643
   -14.5214 -14.4810 -14.4526 -14.4017 -14.3594 -14.3459 -14.2760 -14.2300
   -14.1489 -14.1259 -14.0615 -13.9431 -13.8902 -13.8749 -13.8498 -13.7115
    -8.7346  -7.7813  -7.6726  -7.5707  -7.3932  -7.2996  -7.2709  -7.2384
    -7.1829  -6.9460  -6.9046  -6.8221  -6.7947  -6.7164  -6.6772  -6.6212
    -6.5205  -6.4552  -6.4034  -6.2877  -6.0835  -6.0512  -5.9906  -5.8779
    -5.8693  -5.8392  -5.7676  -5.7080  -5.6815  -5.6639  -5.6314  -5.5859
    -5.5574  -5.4445  -5.4312  -5.3453  -5.2356  -5.1918  -5.0821  -5.0532
    -4.9977  -4.9610  -4.8788  -4.8165  -4.7037  -4.5899  -4.3933  -4.3489
    -4.2879  -4.2074  -4.1696  -4.1631  -4.0476  -3.9431  -3.8891  -3.8471
    -3.7785  -3.6998  -3.6639  -3.6331  -3.5718  -3.5480  -3.5043  -3.4783
    -3.4427  -3.4122  -3.2698  -3.1936  -3.0533  -3.0142  -2.9723  -2.9017
    -2.8428  -2.7769  -2.7122  -2.6969  -2.6760  -2.6686  -2.5964  -2.2818
    -2.0799  -1.9921  -1.9438  -1.4160  -1.2733  -0.7391  -0.7159  -0.2202
    -0.1740  -0.1019  -0.0195   0.0037   0.1211   0.1768   0.1946   0.2165
     0.2766   0.3429   0.4225   0.4903   0.5114   0.5355   0.5645   0.5753
     0.6451   0.6895   0.7241   0.7745   0.7902   0.8584   0.8960   0.9354
     0.9623   1.1064   1.2338

     the Fermi energy is    -1.3446 ev

!    total energy              =   -2246.19185662 Ry
     estimated scf accuracy    <       0.00000072 Ry
     smearing contrib. (-TS)   =      -0.00857021 Ry
     internal energy E=F+TS    =   -2246.18328642 Ry

     The total energy is F=E-TS. E is the sum of the following terms:
     one-electron contribution =  -18498.98491784 Ry
     hartree contribution      =    9238.00384447 Ry
     xc contribution           =    -392.07635271 Ry
     ewald contribution        =    7416.74538614 Ry
     one-center paw contrib.   =      -9.87124647 Ry

     convergence has been achieved in  15 iterations

     negative rho (up, down):  1.868E-04 0.000E+00

     Forces acting on atoms (cartesian axes, Ry/au):

     atom    1 type  1   force =    -0.00150617   -0.05730355   -0.02472442
     atom    2 type  2   force =     0.01993656   -0.02640650   -0.02630850
     atom    3 type  2   force =    -0.01221934    0.00943839   -0.00261526
     atom    4 type  1   force =     0.00654016    0.00106646   -0.00581701
     atom    5 type  2   force =     0.03135052    0.04655679    0.02717363
     atom    6 type  2   force =     0.00064692    0.01284141   -0.00026531
     atom    7 type  1   force =     0.00067300   -0.01496587   -0.00852625
     atom    8 type  2   force =     0.00460116   -0.00067285    0.01771188
     atom    9 type  2   force =     0.01114770    0.01093131    0.00978674
     atom   10 type  1   force =     0.00082556   -0.00871926   -0.03170050
     atom   11 type  2   force =     0.00461878   -0.00255405   -0.00669805
     atom   12 type  2   force =    -0.00330957   -0.00019954    0.00435931
     atom   13 type  1   force =     0.00717543    0.00842942   -0.00934801
     atom   14 type  2   force =     0.00505477   -0.00496245    0.01080481
     atom   15 type  2   force =    -0.00392085    0.00667498   -0.01004922
     atom   16 type  1   force =    -0.00871997   -0.00574939   -0.01277758
     atom   17 type  2   force =     0.00157705    0.00282383   -0.00046255
     atom   18 type  2   force =    -0.00491694   -0.00546586    0.01242677
     atom   19 type  1   force =     0.01088514   -0.00129438   -0.00586805
     atom   20 type  2   force =     0.00115770   -0.00712617    0.00159164
     atom   21 type  1   force =    -0.00825638    0.00117193    0.00153198
     atom   22 type  2   force =    -0.00240633   -0.00213234   -0.00203127
     atom   23 type  2   force =    -0.00213155    0.00164142    0.00880765
     atom   24 type  1   force =    -0.01232325    0.00219748   -0.02012769
     atom   25 type  2   force =     0.01733035    0.01754417    0.00709394
     atom   26 type  2   force =    -0.00998098   -0.00284656   -0.00506424
     atom   27 type  1   force =    -0.00625457   -0.00057415    0.00811808
     atom   28 type  2   force =     0.00891724    0.00186900   -0.01320447
     atom   29 type  2   force =     0.00160733   -0.00073682   -0.00132553
     atom   30 type  1   force =    -0.00479546    0.00620603   -0.00418945
     atom   31 type  2   force =     0.00069524   -0.00032036    0.01667370
     atom   32 type  2   force =    -0.00770188    0.00544079    0.00850125
     atom   33 type  1   force =     0.01399894   -0.00349731   -0.00972081
     atom   34 type  2   force =     0.00159639   -0.03856548   -0.00866992
     atom   35 type  2   force =    -0.00928092    0.00748929    0.01507502
     atom   36 type  3   force =    -0.05261179    0.04177018    0.05983771
     The non-local contrib.  to forces
     atom    1 type  1   force =     0.01653173    0.02589037   -0.03702653
     atom    2 type  2   force =    -0.07092075    0.15026053   -0.21390839
     atom    3 type  2   force =    -0.01697980    0.00174489    0.26814640
     atom    4 type  1   force =    -0.01497881    0.00861937    0.01174798
     atom    5 type  2   force =     0.20314277   -0.35248416   -0.07400020
     atom    6 type  2   force =    -0.00360100    0.01248567    0.25987746
     atom    7 type  1   force =    -0.02024719    0.00723744   -0.01935199
     atom    8 type  2   force =    -0.00172809    0.00031772   -0.25442858
     atom    9 type  2   force =     0.00661659   -0.00959681    0.27639757
     atom   10 type  1   force =     0.00600589    0.01911784    0.00216020
     atom   11 type  2   force =     0.01391319   -0.00359697   -0.25721958
     atom   12 type  2   force =    -0.01700045   -0.01760770    0.26101070
     atom   13 type  1   force =    -0.00726634    0.01713321   -0.00622456
     atom   14 type  2   force =    -0.00978301   -0.01969442   -0.25918317
     atom   15 type  2   force =    -0.00343250   -0.00210300    0.26652591
     atom   16 type  1   force =    -0.00621527    0.02461712   -0.02850981
     atom   17 type  2   force =    -0.00724081   -0.02719724   -0.24729038
     atom   18 type  2   force =    -0.00344401   -0.00153621    0.27280493
     atom   19 type  1   force =     0.01131003   -0.00811485   -0.01279942
     atom   20 type  2   force =    -0.00080659   -0.02335594    0.26618608
     atom   21 type  1   force =     0.00072496    0.02492758    0.00266513
     atom   22 type  2   force =    -0.00699329    0.00460320   -0.26035634
     atom   23 type  2   force =     0.00431639   -0.01351092    0.26669854
     atom   24 type  1   force =     0.01075843   -0.00334920   -0.01065090
     atom   25 type  2   force =     0.00998851    0.01016962   -0.25982704
     atom   26 type  2   force =    -0.00354537   -0.01015774    0.26506145
     atom   27 type  1   force =    -0.00390415    0.00942440    0.00904983
     atom   28 type  2   force =     0.01911824   -0.01112030   -0.27147767
     atom   29 type  2   force =     0.00557534    0.00551989    0.25896758
     atom   30 type  1   force =     0.00663875    0.01529971    0.01090561
     atom   31 type  2   force =    -0.00842733   -0.00007954   -0.25529434
     atom   32 type  2   force =    -0.00167315   -0.00709129    0.27171374
     atom   33 type  1   force =    -0.00586937    0.00558739    0.00448862
     atom   34 type  2   force =    -0.00448842   -0.03036143   -0.27335907
     atom   35 type  2   force =    -0.00478200   -0.01207570    0.27144592
     atom   36 type  3   force =    -0.47791044    0.54808534   -0.88472754
     The ionic contribution  to forces
     atom    1 type  1   force =    -1.77842698   -1.61385412   -1.35907099
     atom    2 type  2   force =     1.52685016   -3.97414690   37.38558409
     atom    3 type  2   force =    -0.00225040   -0.33212093  -37.22469977
     atom    4 type  1   force =     0.96254054    3.12547919   -2.83600317
     atom    5 type  2   force =    -4.20542149    6.45081951   35.74323836
     atom    6 type  2   force =     0.18683437   -0.25918865  -39.22912685
     atom    7 type  1   force =    -2.80816854   -2.30022257    1.41773893
     atom    8 type  2   force =    -0.80960069    0.85768213   37.08295862
     atom    9 type  2   force =     0.39113866    0.18468284  -38.64502319
     atom   10 type  1   force =    -0.70951838   -1.91894778    3.96599907
     atom   11 type  2   force =    -0.71095060   -2.13005346   38.93861408
     atom   12 type  2   force =     0.39858764    0.52454310  -38.44951541
     atom   13 type  1   force =    -0.27954029    0.65048444    1.24577703
     atom   14 type  2   force =    -1.49675813   -1.17222744   37.90136832
     atom   15 type  2   force =    -0.09758659   -0.29534288  -37.68253021
     atom   16 type  1   force =    -1.25459150    5.24550474   -1.61439433
     atom   17 type  2   force =     0.30482776    1.85297107   37.62736725
     atom   18 type  2   force =    -0.27264773   -0.54066974  -39.25076129
     atom   19 type  1   force =     2.55622688   -2.20905370   -0.23386137
     atom   20 type  2   force =     0.13175769   -0.03488087  -39.04409761
     atom   21 type  1   force =    -0.58662510   -0.96080520   -0.16285743
     atom   22 type  2   force =     0.34125628   -1.92708185   38.29239455
     atom   23 type  2   force =    -0.12828494    0.57118766  -38.77457254
     atom   24 type  1   force =     1.81498380    0.35676678    2.78402886
     atom   25 type  2   force =     1.09405721   -0.13715689   39.02830126
     atom   26 type  2   force =    -0.18274554   -0.08012825  -37.99385739
     atom   27 type  1   force =     0.49796049    1.09934916   -3.60591133
     atom   28 type  2   force =     1.99551800    2.10297295   37.44761271
     atom   29 type  2   force =     0.00908170   -0.25574598  -38.18893577
     atom   30 type  1   force =    -0.00456149   -0.54954998   -1.03240613
     atom   31 type  2   force =     1.35411703    0.24339227   37.15472655
     atom   32 type  2   force =    -0.43540697    0.11503216  -39.13926554
     atom   33 type  1   force =     1.07156225   -1.48437680    1.04512917
     atom   34 type  2   force =     0.50261338   -1.83606441   39.19536232
     atom   35 type  2   force =    -0.21107955    0.34908842  -38.35034190
     atom   36 type  3   force =     0.83425109    0.28166200   46.56103105
     The local contribution  to forces
     atom    1 type  1   force =     1.76021578    1.53078982    1.37053586
     atom    2 type  2   force =    -1.43941530    3.80516426  -37.21601906
     atom    3 type  2   force =     0.00616540    0.34004156   36.97467478
     atom    4 type  1   force =    -0.94104804   -3.13274988    2.81759370
     atom    5 type  2   force =     4.04546198   -6.07181595  -35.65215807
     atom    6 type  2   force =    -0.18301994    0.26084736   38.98962802
     atom    7 type  1   force =     2.82918512    2.27790625   -1.40778663
     atom    8 type  2   force =     0.81569220   -0.85904046  -36.83187595
     atom    9 type  2   force =    -0.38657139   -0.16467287   38.39936362
     atom   10 type  1   force =     0.70421815    1.89082683   -4.00059958
     atom   11 type  2   force =     0.70235941    2.13117345  -38.70920492
     atom   12 type  2   force =    -0.38631920   -0.50875259   38.21353903
     atom   13 type  1   force =     0.29417219   -0.65892499   -1.24964972
     atom   14 type  2   force =     1.51123242    1.18658160  -37.65246689
     atom   15 type  2   force =     0.09689028    0.30407071   37.42670665
     atom   16 type  1   force =     1.25209307   -5.27585229    1.62925123
     atom   17 type  2   force =    -0.29622566   -1.82439818  -37.40125186
     atom   18 type  2   force =     0.27119826    0.53745001   39.01128461
     atom   19 type  1   force =    -2.55651563    2.21575708    0.23979101
     atom   20 type  2   force =    -0.12990788    0.05010027   38.80064545
     atom   21 type  1   force =     0.57779085    0.93685478    0.16099203
     atom   22 type  2   force =    -0.33680126    1.92085034  -38.05521173
     atom   23 type  2   force =     0.12225625   -0.55737979   38.53734514
     atom   24 type  1   force =    -1.83812565   -0.35103262   -2.79411946
     atom   25 type  2   force =    -1.08666868    0.14527409  -38.78256582
     atom   26 type  2   force =     0.17647650    0.08692537   37.74458662
     atom   27 type  1   force =    -0.50030944   -1.10924330    3.60411322
     atom   28 type  2   force =    -2.00467968   -2.09100025  -37.21085375
     atom   29 type  2   force =    -0.01256230    0.25041391   37.94894416
     atom   30 type  1   force =    -0.00710222    0.54029006    1.01627646
     atom   31 type  2   force =    -1.34552317   -0.24380502  -36.90395092
     atom   32 type  2   force =     0.42957139   -0.10298683   38.89687119
     atom   33 type  1   force =    -1.05174752    1.47508919   -1.06016011
     atom   34 type  2   force =    -0.49717723    1.82705669  -38.95230617
     atom   35 type  2   force =     0.20656241   -0.33068725   38.11496550
     atom   36 type  3   force =    -0.41423045   -0.78144371  -45.62574450
     The core correction contribution to forces
     atom    1 type  1   force =     0.00000000    0.00000000    0.00000000
     atom    2 type  2   force =     0.00350623   -0.00779808    0.01762668
     atom    3 type  2   force =     0.00081703   -0.00021249   -0.02079826
     atom    4 type  1   force =     0.00000000    0.00000000    0.00000000
     atom    5 type  2   force =    -0.01197031    0.02027120    0.00962676
     atom    6 type  2   force =     0.00036572   -0.00116054   -0.02072266
     atom    7 type  1   force =     0.00000000    0.00000000    0.00000000
     atom    8 type  2   force =     0.00017399    0.00034027    0.02042615
     atom    9 type  2   force =    -0.00009223    0.00056306   -0.02098185
     atom   10 type  1   force =     0.00000000    0.00000000    0.00000000
     atom   11 type  2   force =    -0.00069080   -0.00014403    0.02052972
     atom   12 type  2   force =     0.00142573    0.00140419   -0.02073104
     atom   13 type  1   force =     0.00000000    0.00000000    0.00000000
     atom   14 type  2   force =     0.00039525    0.00042136    0.02059959
     atom   15 type  2   force =     0.00019541    0.00011215   -0.02082480
     atom   16 type  1   force =     0.00000000    0.00000000    0.00000000
     atom   17 type  2   force =     0.00028279    0.00147333    0.02014271
     atom   18 type  2   force =     0.00004672   -0.00056419   -0.02095806
     atom   19 type  1   force =     0.00000000    0.00000000    0.00000000
     atom   20 type  2   force =     0.00015197    0.00100340   -0.02122288
     atom   21 type  1   force =     0.00000000    0.00000000    0.00000000
     atom   22 type  2   force =     0.00017826   -0.00053811    0.02061118
     atom   23 type  2   force =    -0.00041171    0.00118913   -0.02080730
     atom   24 type  1   force =     0.00000000    0.00000000    0.00000000
     atom   25 type  2   force =    -0.00009375   -0.00069492    0.02068090
     atom   26 type  2   force =    -0.00013342    0.00052542   -0.02094076
     atom   27 type  1   force =     0.00000000    0.00000000    0.00000000
     atom   28 type  2   force =    -0.00105909    0.00105026    0.02099934
     atom   29 type  2   force =    -0.00048801   -0.00076723   -0.02035619
     atom   30 type  1   force =     0.00000000    0.00000000    0.00000000
     atom   31 type  2   force =     0.00049397    0.00012015    0.02060538
     atom   32 type  2   force =    -0.00018736    0.00048766   -0.02092847
     atom   33 type  1   force =     0.00000000    0.00000000    0.00000000
     atom   34 type  2   force =     0.00058735    0.00079146    0.02111007
     atom   35 type  2   force =     0.00000891    0.00099171   -0.02110019
     atom   36 type  3   force =     0.00530807   -0.00635300    0.00911955
     The Hubbard contrib.    to forces
     atom    1 type  1   force =     0.00000000    0.00000000    0.00000000
     atom    2 type  2   force =     0.00000000    0.00000000    0.00000000
     atom    3 type  2   force =     0.00000000    0.00000000    0.00000000
     atom    4 type  1   force =     0.00000000    0.00000000    0.00000000
     atom    5 type  2   force =     0.00000000    0.00000000    0.00000000
     atom    6 type  2   force =     0.00000000    0.00000000    0.00000000
     atom    7 type  1   force =     0.00000000    0.00000000    0.00000000
     atom    8 type  2   force =     0.00000000    0.00000000    0.00000000
     atom    9 type  2   force =     0.00000000    0.00000000    0.00000000
     atom   10 type  1   force =     0.00000000    0.00000000    0.00000000
     atom   11 type  2   force =     0.00000000    0.00000000    0.00000000
     atom   12 type  2   force =     0.00000000    0.00000000    0.00000000
     atom   13 type  1   force =     0.00000000    0.00000000    0.00000000
     atom   14 type  2   force =     0.00000000    0.00000000    0.00000000
     atom   15 type  2   force =     0.00000000    0.00000000    0.00000000
     atom   16 type  1   force =     0.00000000    0.00000000    0.00000000
     atom   17 type  2   force =     0.00000000    0.00000000    0.00000000
     atom   18 type  2   force =     0.00000000    0.00000000    0.00000000
     atom   19 type  1   force =     0.00000000    0.00000000    0.00000000
     atom   20 type  2   force =     0.00000000    0.00000000    0.00000000
     atom   21 type  1   force =     0.00000000    0.00000000    0.00000000
     atom   22 type  2   force =     0.00000000    0.00000000    0.00000000
     atom   23 type  2   force =     0.00000000    0.00000000    0.00000000
     atom   24 type  1   force =     0.00000000    0.00000000    0.00000000
     atom   25 type  2   force =     0.00000000    0.00000000    0.00000000
     atom   26 type  2   force =     0.00000000    0.00000000    0.00000000
     atom   27 type  1   force =     0.00000000    0.00000000    0.00000000
     atom   28 type  2   force =     0.00000000    0.00000000    0.00000000
     atom   29 type  2   force =     0.00000000    0.00000000    0.00000000
     atom   30 type  1   force =     0.00000000    0.00000000    0.00000000
     atom   31 type  2   force =     0.00000000    0.00000000    0.00000000
     atom   32 type  2   force =     0.00000000    0.00000000    0.00000000
     atom   33 type  1   force =     0.00000000    0.00000000    0.00000000
     atom   34 type  2   force =     0.00000000    0.00000000    0.00000000
     atom   35 type  2   force =     0.00000000    0.00000000    0.00000000
     atom   36 type  3   force =     0.00000000    0.00000000    0.00000000
     The SCF correction term to forces
     atom    1 type  1   force =     0.00017140   -0.00012947    0.00082152
     atom    2 type  2   force =    -0.00008568    0.00011383    0.00039246
     atom    3 type  2   force =     0.00002653   -0.00001451    0.00004587
     atom    4 type  1   force =     0.00002456   -0.00028208    0.00082876
     atom    5 type  2   force =     0.00013566   -0.00023366    0.00045105
     atom    6 type  2   force =     0.00006587   -0.00014228    0.00006298
     atom    7 type  1   force =    -0.00009829    0.00011315    0.00085771
     atom    8 type  2   force =     0.00006184    0.00002762    0.00061591
     atom    9 type  2   force =     0.00005418   -0.00004477    0.00001486
     atom   10 type  1   force =     0.00011800    0.00028399    0.00072410
     atom   11 type  2   force =    -0.00001432    0.00006711    0.00056692
     atom   12 type  2   force =    -0.00000519    0.00021360    0.00004030
     atom   13 type  1   force =    -0.00019204   -0.00026311    0.00073352
     atom   14 type  2   force =    -0.00003367   -0.00004341    0.00047124
     atom   15 type  2   force =     0.00001065   -0.00006185    0.00005749
     atom   16 type  1   force =    -0.00000817   -0.00001881    0.00085961
     atom   17 type  2   force =    -0.00006894   -0.00002501    0.00055400
     atom   18 type  2   force =    -0.00007208   -0.00014559    0.00004086
     atom   19 type  1   force =    -0.00013806    0.00011723    0.00098601
     atom   20 type  2   force =    -0.00003940    0.00000712    0.00006488
     atom   21 type  1   force =    -0.00014898    0.00019490    0.00071652
     atom   22 type  2   force =    -0.00004823    0.00003422    0.00051535
     atom   23 type  2   force =    -0.00000944    0.00015548    0.00012808
     atom   24 type  1   force =     0.00005826   -0.00018733    0.00059810
     atom   25 type  2   force =     0.00004516   -0.00004759    0.00048892
     atom   26 type  2   force =    -0.00003506   -0.00001122    0.00007012
     atom   27 type  1   force =    -0.00000337   -0.00010427    0.00085064
     atom   28 type  2   force =     0.00001787   -0.00003352    0.00049919
     atom   29 type  2   force =    -0.00000130   -0.00015728    0.00003896
     atom   30 type  1   force =     0.00022758    0.00016639    0.00101889
     atom   31 type  2   force =     0.00003284    0.00005192    0.00057131
     atom   32 type  2   force =    -0.00000770   -0.00000077    0.00009462
     atom   33 type  1   force =     0.00005167    0.00020305    0.00080579
     atom   34 type  2   force =     0.00005941    0.00001236    0.00050721
     atom   35 type  2   force =     0.00000740    0.00017225    0.00008997
     atom   36 type  3   force =    -0.00003197   -0.00018030    0.00014343

     Total force =     0.161858     Total SCF correction =     0.003481

     BFGS Geometry Optimization
     Energy error            =      0.0E+00 Ry
     Gradient error          =      6.0E-02 Ry/Bohr

     number of scf cycles    =   1
     number of bfgs steps    =   0

     energy             new  =   -2246.1918566238 Ry

     new trust radius        =       0.0899627733 bohr
     new conv_thr            =       0.0000010000 Ry


ATOMIC_POSITIONS (angstrom)
Mo            6.5737513799        1.7574824990        2.8105594305
S             8.1872593118        0.7957303043        4.4206164927
S             8.1867668883        0.8162363248        1.2764994896
Mo            8.0986234699        4.4956212908        2.7147401669
S             6.5164992353        3.7470482807        4.3610403127
S             6.5536921350        3.5185329382        1.1211398294
Mo            6.4903378343        7.2105176845        2.6673725871
S             8.0841625560        6.3435149358        4.2518342859
S             8.0868167576        6.3104869191        1.0890419162
Mo            8.1610559177        9.8975663792        2.8266865787
S             6.4976117512        8.9415752715        4.3795610758
S             6.6161958523        9.0486056212        1.1422141487
Mo            3.4254567354        1.7514165052        2.7715244066
S             4.9778403609        0.8143151911        4.3562507545
S             5.0557589280        0.8497943586        1.2213406412
Mo            4.9751422729        4.5101355591        2.6261229433
S             3.4286762002        3.6730939908        4.2794648087
S             3.4353186478        3.5453362907        1.0649276456
Mo            3.4596219056        7.2156395795        2.6275716233
S             4.9838468212        6.3231612779        1.0380959917
Mo            5.0078948341        9.9022202073        2.7442116472
S             3.4696847413        8.9426228812        4.3245164093
S             3.4073011985        9.0658585842        1.1007291059
Mo            0.2895693043        1.7486723886        2.8387935965
S             1.8596330380        0.8019779841        4.4019633917
S             1.8555183261        0.8529195827        1.2067209733
Mo            1.8573815352        4.4953629340        2.6644932819
S             0.2769326506        3.6553878592        4.3305965961
S             0.2320817707        3.5268593178        1.1713164423
Mo            0.2686145012        7.2199301855        2.6994794673
S             1.9026061546        6.3126293098        4.2312674655
S             1.8581625551        6.3132229547        1.0490579519
Mo            1.8517545805        9.9382884585        2.7678022208
S             0.2967576733        9.0695898565        4.4092815422
S             0.2718601489        9.0474888748        1.1583781369
O             7.3274168160        2.4507482738        5.1455342185



     Writing config-only to output data dir ./MoS2-V-O.save/
     NEW-OLD atomic charge density approx. for the potential

     negative rho (up, down):  1.670E-04 0.000E+00

     total cpu time spent up to now is      111.0 secs

     Self-consistent Calculation

     iteration #  1     ecut=    80.00 Ry     beta= 0.70
     Davidson diagonalization with overlap
     ethr =  1.00E-06,  avg # of iterations = 15.0

     negative rho (up, down):  3.516E-04 0.000E+00

     total cpu time spent up to now is      126.8 secs

     total energy              =   -2246.21410432 Ry
     estimated scf accuracy    <       0.01252200 Ry

     iteration #  2     ecut=    80.00 Ry     beta= 0.70
     Davidson diagonalization with overlap
     ethr =  4.01E-06,  avg # of iterations =  5.0

     negative rho (up, down):  4.150E-04 0.000E+00

     total cpu time spent up to now is      139.3 secs

     total energy              =   -2246.21527313 Ry
     estimated scf accuracy    <       0.00630977 Ry

     iteration #  3     ecut=    80.00 Ry     beta= 0.70
     Davidson diagonalization with overlap
     ethr =  2.02E-06,  avg # of iterations =  4.0

     negative rho (up, down):  5.633E-04 0.000E+00

     total cpu time spent up to now is      155.3 secs

     total energy              =   -2246.21591658 Ry
     estimated scf accuracy    <       0.00058928 Ry

     iteration #  4     ecut=    80.00 Ry     beta= 0.70
     Davidson diagonalization with overlap
     ethr =  1.89E-07,  avg # of iterations =  4.0

     negative rho (up, down):  6.379E-04 0.000E+00

     total cpu time spent up to now is      169.2 secs

     total energy              =   -2246.21594901 Ry
     estimated scf accuracy    <       0.00007748 Ry

     iteration #  5     ecut=    80.00 Ry     beta= 0.70
     Davidson diagonalization with overlap
     ethr =  2.48E-08,  avg # of iterations =  5.0

     negative rho (up, down):  6.271E-04 0.000E+00

     total cpu time spent up to now is      184.2 secs

     total energy              =   -2246.21596423 Ry
     estimated scf accuracy    <       0.00001374 Ry

     iteration #  6     ecut=    80.00 Ry     beta= 0.70
     Davidson diagonalization with overlap
     ethr =  4.40E-09,  avg # of iterations =  5.0

     negative rho (up, down):  5.806E-04 0.000E+00

     total cpu time spent up to now is      195.4 secs

     total energy              =   -2246.21596617 Ry
     estimated scf accuracy    <       0.00000388 Ry

     iteration #  7     ecut=    80.00 Ry     beta= 0.70
     Davidson diagonalization with overlap
     ethr =  1.24E-09,  avg # of iterations =  5.0

     negative rho (up, down):  5.023E-04 0.000E+00

     total cpu time spent up to now is      204.5 secs

     total energy              =   -2246.21596647 Ry
     estimated scf accuracy    <       0.00000122 Ry

     iteration #  8     ecut=    80.00 Ry     beta= 0.70
     Davidson diagonalization with overlap
     ethr =  3.91E-10,  avg # of iterations =  5.0

     negative rho (up, down):  1.888E-04 0.000E+00

     total cpu time spent up to now is      208.1 secs

     End of self-consistent calculation

          k = 0.0000 0.0000 0.0000 (105382 PWs)   bands (ev):

   -63.0421 -62.9057 -62.8947 -62.8876 -62.8787 -62.8688 -62.8603 -62.8332
   -62.8255 -62.8093 -62.7709 -62.7344 -37.3271 -37.2604 -37.2262 -37.2134
   -37.1775 -37.1705 -37.1596 -37.1287 -37.1218 -37.1020 -37.0969 -37.0827
   -37.0789 -37.0692 -37.0585 -37.0570 -37.0457 -37.0359 -37.0318 -37.0196
   -37.0043 -36.9869 -36.9713 -36.9669 -36.9517 -36.9484 -36.9411 -36.9324
   -36.9255 -36.9177 -36.8927 -36.8849 -36.8414 -36.8161 -36.7924 -36.7313
   -21.3012 -15.9650 -15.4680 -15.1627 -15.0628 -14.9778 -14.8315 -14.7663
   -14.5297 -14.4894 -14.4509 -14.4213 -14.3742 -14.3574 -14.2890 -14.2323
   -14.1646 -14.1422 -14.0683 -13.9390 -13.8915 -13.8857 -13.8763 -13.7072
    -8.5413  -7.7544  -7.6227  -7.5627  -7.3953  -7.3155  -7.2690  -7.2479
    -7.1854  -6.9443  -6.9096  -6.8386  -6.7956  -6.7153  -6.6855  -6.6007
    -6.5379  -6.4657  -6.4044  -6.2922  -6.0935  -6.0426  -5.9994  -5.8836
    -5.8637  -5.8349  -5.7668  -5.7257  -5.6874  -5.6812  -5.6454  -5.5947
    -5.5595  -5.4391  -5.4343  -5.3260  -5.2324  -5.1804  -5.0879  -5.0500
    -5.0144  -4.9639  -4.8982  -4.8331  -4.7067  -4.6071  -4.4105  -4.3538
    -4.2860  -4.2129  -4.1879  -4.1533  -4.0470  -3.9520  -3.9098  -3.8594
    -3.7859  -3.7047  -3.6757  -3.6466  -3.5818  -3.5548  -3.5133  -3.4820
    -3.4464  -3.4268  -3.2809  -3.2073  -3.0540  -2.9932  -2.9830  -2.8888
    -2.8349  -2.7797  -2.7335  -2.7142  -2.6843  -2.6651  -2.6098  -2.2844
    -2.0957  -2.0011  -1.9695  -1.4621  -1.2289  -0.7523  -0.7272  -0.2162
    -0.1836  -0.1116  -0.0203   0.0126   0.1139   0.1790   0.1983   0.2244
     0.2768   0.3217   0.4197   0.5005   0.5067   0.5375   0.5446   0.5769
     0.6405   0.6942   0.7191   0.7561   0.7712   0.8399   0.9070   0.9226
     0.9659   1.1000   1.2255

     the Fermi energy is    -1.3455 ev

!    total energy              =   -2246.21596641 Ry
     estimated scf accuracy    <       0.00000043 Ry
     smearing contrib. (-TS)   =      -0.00541340 Ry
     internal energy E=F+TS    =   -2246.21055301 Ry

     The total energy is F=E-TS. E is the sum of the following terms:
     one-electron contribution =  -18494.29893409 Ry
     hartree contribution      =    9235.56107074 Ry
     xc contribution           =    -392.06829238 Ry
     ewald contribution        =    7414.46596216 Ry
     one-center paw contrib.   =      -9.87035945 Ry

     convergence has been achieved in   8 iterations

     negative rho (up, down):  1.888E-04 0.000E+00

     Forces acting on atoms (cartesian axes, Ry/au):

     atom    1 type  1   force =     0.00393975   -0.03718195   -0.00603181
     atom    2 type  2   force =     0.00870876   -0.02720045   -0.03252330
     atom    3 type  2   force =    -0.01015774    0.00446949   -0.01168257
     atom    4 type  1   force =     0.01022484    0.00408038   -0.00401825
     atom    5 type  2   force =     0.03646676    0.03126855    0.03662239
     atom    6 type  2   force =     0.00134802    0.00661080    0.00019764
     atom    7 type  1   force =     0.00203232   -0.01078705   -0.00221382
     atom    8 type  2   force =     0.00439496   -0.00032689    0.01110037
     atom    9 type  2   force =     0.00888032    0.00839603    0.00599787
     atom   10 type  1   force =     0.00672003   -0.00582375   -0.01531455
     atom   11 type  2   force =     0.00481938   -0.00272366   -0.00964087
     atom   12 type  2   force =    -0.00589129   -0.00213077    0.00066901
     atom   13 type  1   force =     0.00684971    0.00694571   -0.00616012
     atom   14 type  2   force =     0.00420241   -0.00501387    0.00641794
     atom   15 type  2   force =    -0.00592436    0.00151642   -0.01381812
     atom   16 type  1   force =    -0.00436423   -0.01869380   -0.00165762
     atom   17 type  2   force =     0.00223545    0.00273922   -0.00106016
     atom   18 type  2   force =    -0.00469526   -0.00270243    0.00740990
     atom   19 type  1   force =     0.00629302   -0.00193042   -0.00013915
     atom   20 type  2   force =     0.00037685   -0.00710648   -0.00314656
     atom   21 type  1   force =    -0.00572853    0.00393089    0.00349701
     atom   22 type  2   force =    -0.00105265   -0.00236467   -0.00182917
     atom   23 type  2   force =    -0.00093540    0.00074143    0.00395029
     atom   24 type  1   force =    -0.00573597   -0.00006251   -0.01058307
     atom   25 type  2   force =     0.01187055    0.01466558    0.00005882
     atom   26 type  2   force =    -0.00705879   -0.00212993   -0.00498201
     atom   27 type  1   force =    -0.00551463    0.00078398    0.00690694
     atom   28 type  2   force =     0.00479087   -0.00043144   -0.01090311
     atom   29 type  2   force =     0.00075948    0.00059672   -0.00435472
     atom   30 type  1   force =    -0.00140775    0.00074903    0.00302401
     atom   31 type  2   force =     0.00109785    0.00082803    0.01064529
     atom   32 type  2   force =    -0.00565469    0.00432696    0.00724566
     atom   33 type  1   force =     0.00659745   -0.00191872   -0.00072990
     atom   34 type  2   force =     0.00113114   -0.02993879   -0.01270297
     atom   35 type  2   force =    -0.00530162    0.00601007    0.00695277
     atom   36 type  3   force =    -0.06431703    0.05980825    0.04279593
     The non-local contrib.  to forces
     atom    1 type  1   force =     0.02095483    0.01355252   -0.03685869
     atom    2 type  2   force =    -0.04676650    0.10848594   -0.23131555
     atom    3 type  2   force =    -0.01633304   -0.00353234    0.26335587
     atom    4 type  1   force =    -0.01343066    0.00944637    0.01084765
     atom    5 type  2   force =     0.19760742   -0.40239049   -0.06938146
     atom    6 type  2   force =    -0.00403571    0.00672890    0.26213118
     atom    7 type  1   force =    -0.02163841    0.00969897   -0.02035912
     atom    8 type  2   force =    -0.00317406    0.00262182   -0.25841169
     atom    9 type  2   force =     0.00529521   -0.01269928    0.27387906
     atom   10 type  1   force =     0.00430171    0.01944415    0.00427668
     atom   11 type  2   force =     0.01263110   -0.00535330   -0.26003596
     atom   12 type  2   force =    -0.01865679   -0.01921976    0.25863212
     atom   13 type  1   force =    -0.00618110    0.01774038   -0.00572213
     atom   14 type  2   force =    -0.01329876   -0.02151159   -0.26004479
     atom   15 type  2   force =    -0.00388834   -0.00731051    0.26440088
     atom   16 type  1   force =    -0.00757938    0.02799027   -0.03207961
     atom   17 type  2   force =    -0.00711873   -0.02839770   -0.24914640
     atom   18 type  2   force =    -0.00157973    0.00169760    0.27034274
     atom   19 type  1   force =     0.01264580   -0.00889134   -0.01379290
     atom   20 type  2   force =    -0.00126907   -0.02376109    0.26377858
     atom   21 type  1   force =    -0.00017349    0.02467035    0.00053998
     atom   22 type  2   force =    -0.00440127    0.00422348   -0.26112385
     atom   23 type  2   force =     0.00558630   -0.01480538    0.26375708
     atom   24 type  1   force =     0.00935619   -0.00290882   -0.00987456
     atom   25 type  2   force =     0.00542838    0.00807030   -0.26517270
     atom   26 type  2   force =    -0.00095043   -0.00900132    0.26609820
     atom   27 type  1   force =    -0.00525862    0.00848703    0.00828351
     atom   28 type  2   force =     0.01647858   -0.01272837   -0.27179835
     atom   29 type  2   force =     0.00429676    0.00601238    0.25802247
     atom   30 type  1   force =     0.00392102    0.01777994    0.00962700
     atom   31 type  2   force =    -0.00782030    0.00004638   -0.25966151
     atom   32 type  2   force =     0.00033413   -0.00732934    0.27137954
     atom   33 type  1   force =    -0.00534795    0.00440203    0.00273973
     atom   34 type  2   force =    -0.00497619   -0.02333389   -0.27778803
     atom   35 type  2   force =    -0.00080175   -0.01232942    0.26604383
     atom   36 type  3   force =    -0.57159795    0.77878724   -0.92141419
     The ionic contribution  to forces
     atom    1 type  1   force =    -1.63619057   -0.86255046   -1.28075465
     atom    2 type  2   force =     1.43398228   -3.60805084   37.38767665
     atom    3 type  2   force =     0.08841791   -0.30281837  -37.30468949
     atom    4 type  1   force =     0.74141549    2.82914229   -2.85351725
     atom    5 type  2   force =    -4.19577673    6.30225496   35.55967721
     atom    6 type  2   force =     0.20725249   -0.29775863  -39.04894609
     atom    7 type  1   force =    -2.83871914   -2.24912325    1.37792405
     atom    8 type  2   force =    -0.82397479    0.85497755   37.18434064
     atom    9 type  2   force =     0.38149847    0.12671923  -38.62454457
     atom   10 type  1   force =    -0.61137396   -1.85207654    3.50584850
     atom   11 type  2   force =    -0.67449915   -2.10282557   38.89515560
     atom   12 type  2   force =     0.30110462    0.47042166  -38.42764890
     atom   13 type  1   force =    -0.36107622    0.58339673    1.21779563
     atom   14 type  2   force =    -1.48674885   -1.07340459   38.01216026
     atom   15 type  2   force =    -0.19536988   -0.31066258  -37.79278406
     atom   16 type  1   force =    -0.98050921    4.96434054   -1.71520718
     atom   17 type  2   force =     0.36591356    1.81709386   37.64776102
     atom   18 type  2   force =    -0.32031354   -0.50096572  -39.20947755
     atom   19 type  1   force =     2.43520101   -2.30556227   -0.25974533
     atom   20 type  2   force =     0.11581193   -0.04142033  -39.07627107
     atom   21 type  1   force =    -0.55406742   -1.01259905    0.06418491
     atom   22 type  2   force =     0.32200307   -1.92741611   38.34390361
     atom   23 type  2   force =    -0.11538869    0.53842457  -38.77731851
     atom   24 type  1   force =     1.87621823    0.28621052    2.63529682
     atom   25 type  2   force =     0.96570532   -0.15392797   38.99509422
     atom   26 type  2   force =    -0.15570148   -0.06365629  -37.94638574
     atom   27 type  1   force =     0.55675843    1.16658834   -3.32692263
     atom   28 type  2   force =     1.88878947    1.93414953   37.41744925
     atom   29 type  2   force =     0.02180920   -0.21645912  -38.20468182
     atom   30 type  1   force =     0.14439487   -0.69278600   -1.01353775
     atom   31 type  2   force =     1.38342642    0.27217612   37.21013964
     atom   32 type  2   force =    -0.40220208    0.08257778  -39.06133955
     atom   33 type  1   force =     0.89647196   -1.24355824    1.12959239
     atom   34 type  2   force =     0.49030544   -1.63085993   39.15569202
     atom   35 type  2   force =    -0.10566178    0.33786514  -38.31758794
     atom   36 type  3   force =     0.84109332   -0.11785698   46.50166764
     The local contribution  to forces
     atom    1 type  1   force =     1.61918309    0.81218560    1.31246055
     atom    2 type  2   force =    -1.38060226    3.47765765  -37.20724456
     atom    3 type  2   force =    -0.08311173    0.31086437   37.05048157
     atom    4 type  1   force =    -0.71772585   -2.83466765    2.83931633
     atom    5 type  2   force =     4.04643482   -5.89141563  -35.46223654
     atom    6 type  2   force =    -0.20227055    0.29857917   38.80787805
     atom    7 type  1   force =     2.86240693    2.22852874   -1.35918693
     atom    8 type  2   force =     0.83134282   -0.85826150  -36.93500709
     atom    9 type  2   force =    -0.37787961   -0.10641283   38.37767235
     atom   10 type  1   force =     0.61381912    1.82696419   -3.52468146
     atom   11 type  2   force =     0.66726764    2.10556231  -38.66495560
     atom   12 type  2   force =    -0.28978443   -0.45475943   38.19039546
     atom   13 type  1   force =     0.37396915   -0.59412922   -1.21756481
     atom   14 type  2   force =     1.50369240    1.08941130  -37.76598296
     atom   15 type  2   force =     0.19318542    0.31924536   37.53548974
     atom   16 type  1   force =     0.98370587   -5.01123692    1.74626879
     atom   17 type  2   force =    -0.35687626   -1.78751470  -37.41955817
     atom   18 type  2   force =     0.31728687    0.49726383   38.96756619
     atom   19 type  1   force =    -2.44170700    2.31235314    0.27398900
     atom   20 type  2   force =    -0.11436952    0.05698777   38.83053826
     atom   21 type  1   force =     0.54848670    0.99196327   -0.06060692
     atom   22 type  2   force =    -0.31870771    1.92142057  -38.10488865
     atom   23 type  2   force =     0.10930631   -0.52408798   38.53832069
     atom   24 type  1   force =    -1.89120222   -0.28329282   -2.63528165
     atom   25 type  2   force =    -0.95931955    0.16117536  -38.75033537
     atom   26 type  2   force =     0.14984782    0.07012154   37.69640718
     atom   27 type  1   force =    -0.55700624   -1.17433632    3.32615049
     atom   28 type  2   force =    -1.89953129   -1.92293567  -37.17726223
     atom   29 type  2   force =    -0.02493064    0.21179667   37.96278923
     atom   30 type  1   force =    -0.14955302    0.67548044    1.00761032
     atom   31 type  2   force =    -1.37499421   -0.27164306  -36.96018908
     atom   32 type  2   force =     0.39648563   -0.07149351   38.81819241
     atom   33 type  1   force =    -0.88454948    1.23750386   -1.13235377
     atom   34 type  2   force =    -0.48475111    1.62371509  -38.91149734
     atom   35 type  2   force =     0.10129757   -0.32049868   38.07951239
     atom   36 type  3   force =    -0.34012481   -0.59231822  -45.54676085
     The core correction contribution to forces
     atom    1 type  1   force =     0.00000000    0.00000000    0.00000000
     atom    2 type  2   force =     0.00204366   -0.00517273    0.01884798
     atom    3 type  2   force =     0.00088684    0.00001607   -0.02070639
     atom    4 type  1   force =     0.00000000    0.00000000    0.00000000
     atom    5 type  2   force =    -0.01174449    0.02267946    0.00893970
     atom    6 type  2   force =     0.00041318   -0.00095021   -0.02072650
     atom    7 type  1   force =     0.00000000    0.00000000    0.00000000
     atom    8 type  2   force =     0.00023714    0.00023198    0.02057377
     atom    9 type  2   force =    -0.00000715    0.00070109   -0.02094389
     atom   10 type  1   force =     0.00000000    0.00000000    0.00000000
     atom   11 type  2   force =    -0.00057617   -0.00004096    0.02060100
     atom   12 type  2   force =     0.00141696    0.00145905   -0.02063714
     atom   13 type  1   force =     0.00000000    0.00000000    0.00000000
     atom   14 type  2   force =     0.00056099    0.00056807    0.02069965
     atom   15 type  2   force =     0.00011135    0.00029105   -0.02082601
     atom   16 type  1   force =     0.00000000    0.00000000    0.00000000
     atom   17 type  2   force =     0.00029319    0.00152252    0.02026171
     atom   18 type  2   force =    -0.00013111   -0.00070816   -0.02093973
     atom   19 type  1   force =     0.00000000    0.00000000    0.00000000
     atom   20 type  2   force =     0.00017289    0.00104053   -0.02117992
     atom   21 type  1   force =     0.00000000    0.00000000    0.00000000
     atom   22 type  2   force =     0.00003406   -0.00055318    0.02068416
     atom   23 type  2   force =    -0.00044238    0.00123398   -0.02075299
     atom   24 type  1   force =     0.00000000    0.00000000    0.00000000
     atom   25 type  2   force =     0.00005905   -0.00059388    0.02081285
     atom   26 type  2   force =    -0.00023373    0.00046631   -0.02095105
     atom   27 type  1   force =     0.00000000    0.00000000    0.00000000
     atom   28 type  2   force =    -0.00095957    0.00105815    0.02109483
     atom   29 type  2   force =    -0.00038948   -0.00074326   -0.02036106
     atom   30 type  1   force =     0.00000000    0.00000000    0.00000000
     atom   31 type  2   force =     0.00046872    0.00017578    0.02071399
     atom   32 type  2   force =    -0.00027371    0.00048572   -0.02090334
     atom   33 type  1   force =     0.00000000    0.00000000    0.00000000
     atom   34 type  2   force =     0.00056738    0.00057810    0.02128971
     atom   35 type  2   force =    -0.00010064    0.00099792   -0.02093975
     atom   36 type  3   force =     0.00643850   -0.00900136    0.00961850
     The Hubbard contrib.    to forces
     atom    1 type  1   force =     0.00000000    0.00000000    0.00000000
     atom    2 type  2   force =     0.00000000    0.00000000    0.00000000
     atom    3 type  2   force =     0.00000000    0.00000000    0.00000000
     atom    4 type  1   force =     0.00000000    0.00000000    0.00000000
     atom    5 type  2   force =     0.00000000    0.00000000    0.00000000
     atom    6 type  2   force =     0.00000000    0.00000000    0.00000000
     atom    7 type  1   force =     0.00000000    0.00000000    0.00000000
     atom    8 type  2   force =     0.00000000    0.00000000    0.00000000
     atom    9 type  2   force =     0.00000000    0.00000000    0.00000000
     atom   10 type  1   force =     0.00000000    0.00000000    0.00000000
     atom   11 type  2   force =     0.00000000    0.00000000    0.00000000
     atom   12 type  2   force =     0.00000000    0.00000000    0.00000000
     atom   13 type  1   force =     0.00000000    0.00000000    0.00000000
     atom   14 type  2   force =     0.00000000    0.00000000    0.00000000
     atom   15 type  2   force =     0.00000000    0.00000000    0.00000000
     atom   16 type  1   force =     0.00000000    0.00000000    0.00000000
     atom   17 type  2   force =     0.00000000    0.00000000    0.00000000
     atom   18 type  2   force =     0.00000000    0.00000000    0.00000000
     atom   19 type  1   force =     0.00000000    0.00000000    0.00000000
     atom   20 type  2   force =     0.00000000    0.00000000    0.00000000
     atom   21 type  1   force =     0.00000000    0.00000000    0.00000000
     atom   22 type  2   force =     0.00000000    0.00000000    0.00000000
     atom   23 type  2   force =     0.00000000    0.00000000    0.00000000
     atom   24 type  1   force =     0.00000000    0.00000000    0.00000000
     atom   25 type  2   force =     0.00000000    0.00000000    0.00000000
     atom   26 type  2   force =     0.00000000    0.00000000    0.00000000
     atom   27 type  1   force =     0.00000000    0.00000000    0.00000000
     atom   28 type  2   force =     0.00000000    0.00000000    0.00000000
     atom   29 type  2   force =     0.00000000    0.00000000    0.00000000
     atom   30 type  1   force =     0.00000000    0.00000000    0.00000000
     atom   31 type  2   force =     0.00000000    0.00000000    0.00000000
     atom   32 type  2   force =     0.00000000    0.00000000    0.00000000
     atom   33 type  1   force =     0.00000000    0.00000000    0.00000000
     atom   34 type  2   force =     0.00000000    0.00000000    0.00000000
     atom   35 type  2   force =     0.00000000    0.00000000    0.00000000
     atom   36 type  3   force =     0.00000000    0.00000000    0.00000000
     The SCF correction term to forces
     atom    1 type  1   force =    -0.00000775   -0.00036964   -0.00085909
     atom    2 type  2   force =     0.00005144   -0.00012050   -0.00046788
     atom    3 type  2   force =    -0.00001787   -0.00006028   -0.00010419
     atom    4 type  1   force =    -0.00003428    0.00015935   -0.00064504
     atom    5 type  2   force =    -0.00005441    0.00014022   -0.00035658
     atom    6 type  2   force =    -0.00001153    0.00001154   -0.00011907
     atom    7 type  1   force =    -0.00001719    0.00010846   -0.00057189
     atom    8 type  2   force =    -0.00003629    0.00010323   -0.00037532
     atom    9 type  2   force =    -0.00002674    0.00008778   -0.00004515
     atom   10 type  1   force =    -0.00002698   -0.00015557   -0.00073833
     atom   11 type  2   force =    -0.00000419   -0.00006617   -0.00038597
     atom   12 type  2   force =     0.00002821   -0.00003234   -0.00005260
     atom   13 type  1   force =     0.00013774   -0.00006222   -0.00064888
     atom   14 type  2   force =    -0.00000351   -0.00007709   -0.00039428
     atom   15 type  2   force =     0.00003696   -0.00004693   -0.00007873
     atom   16 type  1   force =     0.00001836    0.00021228   -0.00061968
     atom   17 type  2   force =     0.00002355    0.00003520   -0.00035838
     atom   18 type  2   force =     0.00004212    0.00000999   -0.00006181
     atom   19 type  1   force =     0.00015307    0.00017001   -0.00056998
     atom   20 type  2   force =     0.00003049    0.00004660    0.00000754
     atom   21 type  1   force =     0.00002555   -0.00010372   -0.00060103
     atom   22 type  2   force =     0.00001907   -0.00003948   -0.00038450
     atom   23 type  2   force =     0.00000293   -0.00002381   -0.00003605
     atom   24 type  1   force =    -0.00010831   -0.00007143   -0.00070374
     atom   25 type  2   force =    -0.00000280   -0.00005827   -0.00032024
     atom   26 type  2   force =    -0.00002111   -0.00006020   -0.00013066
     atom   27 type  1   force =    -0.00000834    0.00004490   -0.00058449
     atom   28 type  2   force =     0.00001353    0.00002488   -0.00036667
     atom   29 type  2   force =    -0.00002651   -0.00000998   -0.00010359
     atom   30 type  1   force =    -0.00017076    0.00027463   -0.00065562
     atom   31 type  2   force =     0.00001708    0.00007277   -0.00033781
     atom   32 type  2   force =     0.00000120    0.00008628   -0.00006345
     atom   33 type  1   force =     0.00002278   -0.00026641   -0.00068831
     atom   34 type  2   force =    -0.00001452   -0.00003819   -0.00037939
     atom   35 type  2   force =    -0.00003516   -0.00002494   -0.00005581
     atom   36 type  3   force =    -0.00012624    0.00019754   -0.00029524

     Total force =     0.145776     Total SCF correction =     0.002772
     Energy error            =      2.4E-02 Ry
     Gradient error          =      6.4E-02 Ry/Bohr

     number of scf cycles    =   2
     number of bfgs steps    =   1

     energy             old  =   -2246.1918566238 Ry
     energy             new  =   -2246.2159664144 Ry

     CASE: energy            _new < energy            _old


     WARNING: bfgs curvature condition failed, Theta= 0.964
     new trust radius        =       0.0989590507 bohr
     new conv_thr            =       0.0000000643 Ry


ATOMIC_POSITIONS (angstrom)
Mo            6.5746756505        1.7319356476        2.8027857395
S             8.1947754660        0.7806909952        4.4038727952
S             8.1805958887        0.8199071087        1.2720928936
Mo            8.1034802766        4.4971963849        2.7120677199
S             6.5357087994        3.7681479740        4.3793178131
S             6.5542817948        3.5236991743        1.1211415574
Mo            6.4911557084        7.2034963586        2.6646484138
S             8.0866712420        6.3432505668        4.2596032627
S             8.0923211001        6.3157831894        1.0932906527
Mo            8.1634309959        9.8936252633        2.8142592806
S             6.5002623232        8.9400905388        4.3748566436
S             6.6135053908        9.0478671754        1.1434567457
Mo            3.4293676387        1.7556535530        2.7673262168
S             4.9803932655        0.8115206575        4.3608753129
S             5.0529139362        0.8518567094        1.2144922251
Mo            4.9716746525        4.5027163160        2.6225791948
S             3.4297726641        3.6746472344        4.2790119419
S             3.4326382210        3.5431734761        1.0702556768
Mo            3.4642248157        7.2147086044        2.6261460663
S             4.9842414599        6.3191786294        1.0374492446
Mo            5.0040935092        9.9037715958        2.7457069247
S             3.4687770576        8.9413538552        4.3234449475
S             3.4064962061        9.0664853296        1.1040830142
Mo            0.2848088731        1.7491690386        2.8306242051
S             1.8675622124        0.8108645403        4.4036512599
S             1.8508795898        0.8515587265        1.2039128348
Mo            1.8541205305        4.4954822994        2.6686445094
S             0.2805851370        3.6556875046        4.3239519587
S             0.2327063545        3.5268796450        1.1695913733
Mo            0.2670295566        7.2216331784        2.6994753349
S             1.9031259921        6.3128226719        4.2386445347
S             1.8545156307        6.3159070891        1.0534092436
Mo            1.8571887797        9.9368430654        2.7652786223
S             0.2975003002        9.0508015902        4.4031194977
S             0.2679563566        9.0512011200        1.1641807879
O             7.2941674140        2.4799840477        5.1734991309



     Writing config-only to output data dir ./MoS2-V-O.save/
     NEW-OLD atomic charge density approx. for the potential

     negative rho (up, down):  1.683E-04 0.000E+00

     total cpu time spent up to now is      215.4 secs

     Self-consistent Calculation

     iteration #  1     ecut=    80.00 Ry     beta= 0.70
     Davidson diagonalization with overlap
     ethr =  1.00E-06,  avg # of iterations = 15.0

     negative rho (up, down):  2.721E-04 0.000E+00

     total cpu time spent up to now is      228.8 secs

     total energy              =   -2246.23569943 Ry
     estimated scf accuracy    <       0.00890264 Ry

     iteration #  2     ecut=    80.00 Ry     beta= 0.70
     Davidson diagonalization with overlap
     ethr =  2.85E-06,  avg # of iterations =  5.0

     negative rho (up, down):  2.958E-04 0.000E+00

     total cpu time spent up to now is      242.4 secs

     total energy              =   -2246.23677094 Ry
     estimated scf accuracy    <       0.00555633 Ry

     iteration #  3     ecut=    80.00 Ry     beta= 0.70
     Davidson diagonalization with overlap
     ethr =  1.78E-06,  avg # of iterations =  4.0

     negative rho (up, down):  3.619E-04 0.000E+00

     total cpu time spent up to now is      252.8 secs

     total energy              =   -2246.23731539 Ry
     estimated scf accuracy    <       0.00032729 Ry

     iteration #  4     ecut=    80.00 Ry     beta= 0.70
     Davidson diagonalization with overlap
     ethr =  1.05E-07,  avg # of iterations =  5.0

     negative rho (up, down):  3.967E-04 0.000E+00

     total cpu time spent up to now is      268.0 secs

     total energy              =   -2246.23733900 Ry
     estimated scf accuracy    <       0.00005392 Ry

     iteration #  5     ecut=    80.00 Ry     beta= 0.70
     Davidson diagonalization with overlap
     ethr =  1.73E-08,  avg # of iterations =  5.0

     negative rho (up, down):  3.925E-04 0.000E+00

     total cpu time spent up to now is      288.1 secs

     total energy              =   -2246.23734932 Ry
     estimated scf accuracy    <       0.00000591 Ry

     iteration #  6     ecut=    80.00 Ry     beta= 0.70
     Davidson diagonalization with overlap
     ethr =  1.89E-09,  avg # of iterations =  5.0

     negative rho (up, down):  3.763E-04 0.000E+00

     total cpu time spent up to now is      304.0 secs

     total energy              =   -2246.23735110 Ry
     estimated scf accuracy    <       0.00000166 Ry

     iteration #  7     ecut=    80.00 Ry     beta= 0.70
     Davidson diagonalization with overlap
     ethr =  5.32E-10,  avg # of iterations =  2.0

     negative rho (up, down):  3.468E-04 0.000E+00

     total cpu time spent up to now is      314.2 secs

     total energy              =   -2246.23735132 Ry
     estimated scf accuracy    <       0.00000052 Ry

     iteration #  8     ecut=    80.00 Ry     beta= 0.70
     Davidson diagonalization with overlap
     ethr =  1.68E-10,  avg # of iterations =  4.0

     negative rho (up, down):  3.082E-04 0.000E+00

     total cpu time spent up to now is      324.3 secs

     total energy              =   -2246.23735144 Ry
     estimated scf accuracy    <       0.00000020 Ry

     iteration #  9     ecut=    80.00 Ry     beta= 0.70
     Davidson diagonalization with overlap
     ethr =  6.33E-11,  avg # of iterations =  4.0

     negative rho (up, down):  1.891E-04 0.000E+00

     total cpu time spent up to now is      327.8 secs

     End of self-consistent calculation

          k = 0.0000 0.0000 0.0000 (105382 PWs)   bands (ev):

   -63.0759 -62.9207 -62.9054 -62.9027 -62.8898 -62.8872 -62.8746 -62.8401
   -62.8386 -62.8096 -62.7747 -62.7339 -37.3569 -37.2826 -37.2507 -37.2335
   -37.1913 -37.1802 -37.1701 -37.1437 -37.1363 -37.1160 -37.1095 -37.0951
   -37.0923 -37.0803 -37.0692 -37.0667 -37.0561 -37.0451 -37.0415 -37.0271
   -37.0199 -36.9980 -36.9810 -36.9723 -36.9633 -36.9584 -36.9512 -36.9369
   -36.9329 -36.9251 -36.9061 -36.8922 -36.8499 -36.8212 -36.8008 -36.7364
   -21.2828 -15.9802 -15.3641 -15.1806 -15.0431 -14.9890 -14.8087 -14.7635
   -14.5398 -14.5002 -14.4591 -14.4386 -14.3895 -14.3684 -14.3007 -14.2322
   -14.1784 -14.1610 -14.0769 -13.9403 -13.9180 -13.8970 -13.8752 -13.6883
    -8.3875  -7.7501  -7.6007  -7.5646  -7.4021  -7.3337  -7.2704  -7.2594
    -7.1887  -6.9561  -6.9205  -6.8564  -6.8008  -6.7162  -6.6945  -6.5872
    -6.5548  -6.4775  -6.4096  -6.3008  -6.1091  -6.0460  -6.0080  -5.8946
    -5.8643  -5.8338  -5.7686  -5.7423  -5.7034  -5.6971  -5.6574  -5.6068
    -5.5625  -5.4447  -5.4373  -5.3107  -5.2346  -5.1770  -5.1003  -5.0486
    -5.0276  -4.9680  -4.9169  -4.8538  -4.7138  -4.6267  -4.4327  -4.3670
    -4.2884  -4.2282  -4.2018  -4.1505  -4.0461  -3.9614  -3.9239  -3.8727
    -3.7986  -3.7143  -3.6878  -3.6576  -3.6016  -3.5674  -3.5189  -3.4832
    -3.4560  -3.4376  -3.2955  -3.2236  -3.0699  -2.9915  -2.9716  -2.8838
    -2.8303  -2.7830  -2.7546  -2.7297  -2.6946  -2.6545  -2.6194  -2.2892
    -2.1121  -2.0119  -1.9914  -1.5137  -1.1749  -0.7695  -0.7324  -0.2180
    -0.1948  -0.1243  -0.0301   0.0183   0.1026   0.1723   0.1958   0.2281
     0.2694   0.2988   0.4136   0.4908   0.4991   0.5278   0.5357   0.5781
     0.6346   0.6934   0.7104   0.7381   0.7519   0.8269   0.8975   0.9216
     0.9604   1.1008   1.2059

     the Fermi energy is    -1.3443 ev

!    total energy              =   -2246.23735156 Ry
     estimated scf accuracy    <       0.00000006 Ry
     smearing contrib. (-TS)   =      -0.00239398 Ry
     internal energy E=F+TS    =   -2246.23495758 Ry

     The total energy is F=E-TS. E is the sum of the following terms:
     one-electron contribution =  -18489.85887873 Ry
     hartree contribution      =    9233.27795797 Ry
     xc contribution           =    -392.07257779 Ry
     ewald contribution        =    7412.28725995 Ry
     one-center paw contrib.   =      -9.86871898 Ry

     convergence has been achieved in   9 iterations

     negative rho (up, down):  1.891E-04 0.000E+00

     Forces acting on atoms (cartesian axes, Ry/au):

     atom    1 type  1   force =     0.00510111   -0.01746093    0.00662889
     atom    2 type  2   force =     0.00293972   -0.02826893   -0.03094560
     atom    3 type  2   force =    -0.00736911    0.00024211   -0.01764423
     atom    4 type  1   force =     0.01211905    0.00523675   -0.00346493
     atom    5 type  2   force =     0.03460548    0.02281693    0.03979946
     atom    6 type  2   force =     0.00241030    0.00087363    0.00128657
     atom    7 type  1   force =     0.00279091   -0.00796433    0.00135752
     atom    8 type  2   force =     0.00370339   -0.00028400    0.00649777
     atom    9 type  2   force =     0.00687983    0.00621841    0.00320303
     atom   10 type  1   force =     0.00731112   -0.00341047   -0.00662553
     atom   11 type  2   force =     0.00486958   -0.00266200   -0.01087057
     atom   12 type  2   force =    -0.00735858   -0.00327300   -0.00095609
     atom   13 type  1   force =     0.00665528    0.00481493   -0.00353554
     atom   14 type  2   force =     0.00338398   -0.00454466    0.00331127
     atom   15 type  2   force =    -0.00636820   -0.00236328   -0.01494435
     atom   16 type  1   force =    -0.00002638   -0.02433952    0.00661772
     atom   17 type  2   force =     0.00277002    0.00203406   -0.00056113
     atom   18 type  2   force =    -0.00426021   -0.00042870    0.00338459
     atom   19 type  1   force =     0.00281353   -0.00293080    0.00290377
     atom   20 type  2   force =     0.00014865   -0.00750886   -0.00479134
     atom   21 type  1   force =    -0.00375772    0.00454290    0.00303166
     atom   22 type  2   force =    -0.00004017   -0.00231678   -0.00110101
     atom   23 type  2   force =     0.00009729   -0.00006525    0.00104999
     atom   24 type  1   force =    -0.00160775   -0.00146750   -0.00598472
     atom   25 type  2   force =     0.00779820    0.01215117   -0.00421087
     atom   26 type  2   force =    -0.00442006   -0.00155071   -0.00412619
     atom   27 type  1   force =    -0.00398675    0.00179833    0.00469659
     atom   28 type  2   force =     0.00141982   -0.00232698   -0.00777571
     atom   29 type  2   force =     0.00041020    0.00153070   -0.00626503
     atom   30 type  1   force =     0.00118857   -0.00244274    0.00620596
     atom   31 type  2   force =     0.00161931    0.00132816    0.00671580
     atom   32 type  2   force =    -0.00376206    0.00343534    0.00639769
     atom   33 type  1   force =     0.00127647   -0.00082261    0.00396921
     atom   34 type  2   force =     0.00122205   -0.02258110   -0.01333584
     atom   35 type  2   force =    -0.00120513    0.00387393    0.00110370
     atom   36 type  3   force =    -0.06937176    0.06811580    0.02897748
     The non-local contrib.  to forces
     atom    1 type  1   force =     0.02351031    0.00405568   -0.03791185
     atom    2 type  2   force =    -0.02613495    0.07184895   -0.24954555
     atom    3 type  2   force =    -0.01434972   -0.00805125    0.26007432
     atom    4 type  1   force =    -0.01292858    0.00998522    0.01098010
     atom    5 type  2   force =     0.19170015   -0.44355887   -0.06579395
     atom    6 type  2   force =    -0.00326155    0.00123472    0.26405308
     atom    7 type  1   force =    -0.02236562    0.01134959   -0.02077742
     atom    8 type  2   force =    -0.00456733    0.00455968   -0.26095040
     atom    9 type  2   force =     0.00389415   -0.01519764    0.27147623
     atom   10 type  1   force =     0.00367306    0.01827520    0.00647438
     atom   11 type  2   force =     0.01148459   -0.00622198   -0.26200078
     atom   12 type  2   force =    -0.01922059   -0.02016774    0.25754240
     atom   13 type  1   force =    -0.00516281    0.01850078   -0.00563677
     atom   14 type  2   force =    -0.01623515   -0.02199619   -0.25980527
     atom   15 type  2   force =    -0.00371132   -0.01078036    0.26325569
     atom   16 type  1   force =    -0.00477508    0.02956809   -0.03324389
     atom   17 type  2   force =    -0.00758260   -0.02984399   -0.24953991
     atom   18 type  2   force =    -0.00037884    0.00416475    0.26781527
     atom   19 type  1   force =     0.01387407   -0.00904991   -0.01412249
     atom   20 type  2   force =    -0.00149839   -0.02479676    0.26325510
     atom   21 type  1   force =    -0.00118269    0.02441978   -0.00080023
     atom   22 type  2   force =    -0.00271994    0.00398019   -0.26116591
     atom   23 type  2   force =     0.00655419   -0.01581188    0.26179997
     atom   24 type  1   force =     0.00826589   -0.00146101   -0.00901839
     atom   25 type  2   force =     0.00237670    0.00575210   -0.26856300
     atom   26 type  2   force =     0.00139574   -0.00789709    0.26716176
     atom   27 type  1   force =    -0.00642295    0.00813871    0.00796156
     atom   28 type  2   force =     0.01370333   -0.01430227   -0.27167314
     atom   29 type  2   force =     0.00360334    0.00597820    0.25760916
     atom   30 type  1   force =     0.00149220    0.02006830    0.00863657
     atom   31 type  2   force =    -0.00710404   -0.00009523   -0.26242532
     atom   32 type  2   force =     0.00220759   -0.00781691    0.27109075
     atom   33 type  1   force =    -0.00517125    0.00361814    0.00192489
     atom   34 type  2   force =    -0.00459364   -0.01785594   -0.27938561
     atom   35 type  2   force =     0.00316222   -0.01307544    0.26180242
     atom   36 type  3   force =    -0.65738775    0.98821533   -0.98048818
     The ionic contribution  to forces
[...]
     atom   28 type  2   force =     0.00192629   -0.00495918   -0.27956807
     atom   29 type  2   force =     0.00061765   -0.00932014    0.26471488
     atom   30 type  1   force =     0.00040563    0.01985729    0.00655613
     atom   31 type  2   force =    -0.00880373   -0.00040274   -0.27105113
     atom   32 type  2   force =     0.00868432   -0.01634218    0.26964661
     atom   33 type  1   force =    -0.00235119    0.00653233    0.00232797
     atom   34 type  2   force =    -0.00155151   -0.01079788   -0.27529762
     atom   35 type  2   force =     0.00025565   -0.01367837    0.26685677
     atom   36 type  3   force =     0.00687821   -0.00211897   -2.31860549
     The ionic contribution  to forces
     atom    1 type  1   force =    -0.13189720   -0.54392630   -2.21068634
     atom    2 type  2   force =     0.38906649   -0.89522533   38.22110163
     atom    3 type  2   force =     0.19419816   -0.16257506  -38.38232065
     atom    4 type  1   force =     0.88508037    0.92217368   -3.40941999
     atom    5 type  2   force =    -0.85877044    1.05117042   28.04813135
     atom    6 type  2   force =     0.15789128   -0.34116252  -38.67595000
     atom    7 type  1   force =    -2.68725140   -0.93786433    1.26528135
     atom    8 type  2   force =    -0.65807038    1.25653968   37.66427795
     atom    9 type  2   force =     0.36370611    0.18425472  -38.63100709
     atom   10 type  1   force =    -0.29909596   -0.93667599    1.92610189
     atom   11 type  2   force =    -0.47685275   -1.34084977   38.20043656
     atom   12 type  2   force =     0.19861976    0.29481409  -38.29322795
     atom   13 type  1   force =    -0.50499877    0.05187157    1.27956296
     atom   14 type  2   force =    -0.55760039   -1.05022595   37.95191660
     atom   15 type  2   force =    -0.16316018   -0.21907388  -38.37097344
     atom   16 type  1   force =    -0.59212108    3.82008334   -2.24639666
     atom   17 type  2   force =    -0.25918160    1.06737400   37.72839559
     atom   18 type  2   force =    -0.29448331   -0.43152659  -38.79421950
     atom   19 type  1   force =     2.39160477   -1.11416662    1.25016151
     atom   20 type  2   force =     0.00915740    0.20403953  -39.49856674
     atom   21 type  1   force =    -0.25898626   -0.80661722    0.03254434
     atom   22 type  2   force =     0.40158932   -1.39424017   38.31663190
     atom   23 type  2   force =    -0.21929581    0.31924474  -38.33371312
     atom   24 type  1   force =     0.61886834   -0.11143185    0.85307548
     atom   25 type  2   force =     0.20064394   -0.24061830   38.57495481
     atom   26 type  2   force =    -0.02009502   -0.16752212  -37.89901105
     atom   27 type  1   force =    -0.02117499    0.53480558   -0.19425539
     atom   28 type  2   force =     0.95433788    0.40561953   37.50361009
     atom   29 type  2   force =     0.08355659   -0.13214564  -38.33347424
     atom   30 type  1   force =     0.29826991   -0.08127720    1.55117252
     atom   31 type  2   force =     1.13422906    0.51113186   38.10113935
     atom   32 type  2   force =    -0.39820337    0.08244993  -38.36214801
     atom   33 type  1   force =     0.43989952   -0.51680389    2.27866705
     atom   34 type  2   force =     0.14199484   -0.43527694   38.75996978
     atom   35 type  2   force =     0.08427389    0.12695999  -37.86105516
     atom   36 type  3   force =    -0.54574872    1.02667299   49.98929261
     The local contribution  to forces
     atom    1 type  1   force =     0.13120137    0.51337047    2.20329368
     atom    2 type  2   force =    -0.38879682    0.90437131  -37.97109723
     atom    3 type  2   force =    -0.19041440    0.17171620   38.13678356
     atom    4 type  1   force =    -0.87617692   -0.91877191    3.38561375
     atom    5 type  2   force =     0.84751731   -1.05088441  -28.33751256
     atom    6 type  2   force =    -0.15768949    0.34547686   38.42035434
     atom    7 type  1   force =     2.69958049    0.93771381   -1.24123173
     atom    8 type  2   force =     0.65123384   -1.25646538  -37.41551664
     atom    9 type  2   force =    -0.35723605   -0.17092995   38.38181488
     atom   10 type  1   force =     0.29243036    0.93257785   -1.92571762
     atom   11 type  2   force =     0.47149198    1.34136324  -37.95989943
     atom   12 type  2   force =    -0.18923904   -0.28171021   38.04784950
     atom   13 type  1   force =     0.50223604   -0.07599073   -1.27323880
     atom   14 type  2   force =     0.55760253    1.05949499  -37.70016534
     atom   15 type  2   force =     0.16135567    0.22888105   38.13053759
     atom   16 type  1   force =     0.58125114   -3.84346177    2.26641115
     atom   17 type  2   force =     0.25921586   -1.05300116  -37.48867909
     atom   18 type  2   force =     0.29520417    0.43332629   38.55306707
     atom   19 type  1   force =    -2.40802763    1.10161096   -1.23043174
     atom   20 type  2   force =    -0.00855745   -0.19164728   39.25747598
     atom   21 type  1   force =     0.26005997    0.78226135   -0.03582784
     atom   22 type  2   force =    -0.39618498    1.39506705  -38.07653145
     atom   23 type  2   force =     0.21185822   -0.30485154   38.09157688
     atom   24 type  1   force =    -0.61722986    0.09668938   -0.85160125
     atom   25 type  2   force =    -0.20054725    0.24942194  -38.32642827
     atom   26 type  2   force =     0.01702318    0.17644038   37.65124609
     atom   27 type  1   force =     0.02317590   -0.54445081    0.18176871
     atom   28 type  2   force =    -0.95613233   -0.40020546  -37.24615132
     atom   29 type  2   force =    -0.08408617    0.14069729   38.08877432
     atom   30 type  1   force =    -0.29869169    0.06166603   -1.55779850
     atom   31 type  2   force =    -1.12581669   -0.51100603  -37.85252636
     atom   32 type  2   force =     0.39060006   -0.06693731   38.11357779
     atom   33 type  1   force =    -0.43750485    0.51006804   -2.28023678
     atom   34 type  2   force =    -0.14060933    0.44463656  -38.50551841
     atom   35 type  2   force =    -0.08404861   -0.11344418   37.61492068
     atom   36 type  3   force =     0.53931813   -1.02377060  -47.69600917
     The core correction contribution to forces
     atom    1 type  1   force =     0.00000000    0.00000000    0.00000000
     atom    2 type  2   force =     0.00000560    0.00048431    0.02123823
     atom    3 type  2   force =     0.00034359    0.00040156   -0.02089601
     atom    4 type  1   force =     0.00000000    0.00000000    0.00000000
     atom    5 type  2   force =    -0.00079782   -0.00004163   -0.00998666
     atom    6 type  2   force =     0.00013236   -0.00018688   -0.02128794
     atom    7 type  1   force =     0.00000000    0.00000000    0.00000000
     atom    8 type  2   force =    -0.00046718    0.00024171    0.02123393
     atom    9 type  2   force =     0.00056065    0.00078742   -0.02104146
     atom   10 type  1   force =     0.00000000    0.00000000    0.00000000
     atom   11 type  2   force =    -0.00003845   -0.00016523    0.02070439
     atom   12 type  2   force =     0.00081875    0.00095892   -0.02088024
     atom   13 type  1   force =     0.00000000    0.00000000    0.00000000
     atom   14 type  2   force =     0.00005775    0.00018730    0.02135268
     atom   15 type  2   force =    -0.00017926    0.00048032   -0.02068659
     atom   16 type  1   force =     0.00000000    0.00000000    0.00000000
     atom   17 type  2   force =     0.00024480    0.00061961    0.02088337
     atom   18 type  2   force =    -0.00025016   -0.00041168   -0.02075495
     atom   19 type  1   force =     0.00000000    0.00000000    0.00000000
     atom   20 type  2   force =     0.00004456    0.00068078   -0.02117298
     atom   21 type  1   force =     0.00000000    0.00000000    0.00000000
     atom   22 type  2   force =     0.00011412   -0.00021485    0.02076325
     atom   23 type  2   force =    -0.00064194    0.00101602   -0.02082701
     atom   24 type  1   force =     0.00000000    0.00000000    0.00000000
     atom   25 type  2   force =     0.00005395    0.00036528    0.02095709
     atom   26 type  2   force =    -0.00010828    0.00037438   -0.02094541
     atom   27 type  1   force =     0.00000000    0.00000000    0.00000000
     atom   28 type  2   force =    -0.00015887    0.00041984    0.02155398
     atom   29 type  2   force =    -0.00001339    0.00024195   -0.02067869
     atom   30 type  1   force =     0.00000000    0.00000000    0.00000000
     atom   31 type  2   force =     0.00044878    0.00030429    0.02113867
     atom   32 type  2   force =    -0.00083766    0.00078875   -0.02100583
     atom   33 type  1   force =     0.00000000    0.00000000    0.00000000
     atom   34 type  2   force =     0.00011024    0.00044595    0.02132150
     atom   35 type  2   force =     0.00003010    0.00075755   -0.02096089
     atom   36 type  3   force =    -0.00008516   -0.00000641    0.02460226
     The Hubbard contrib.    to forces
     atom    1 type  1   force =     0.00000000    0.00000000    0.00000000
     atom    2 type  2   force =     0.00000000    0.00000000    0.00000000
     atom    3 type  2   force =     0.00000000    0.00000000    0.00000000
     atom    4 type  1   force =     0.00000000    0.00000000    0.00000000
     atom    5 type  2   force =     0.00000000    0.00000000    0.00000000
     atom    6 type  2   force =     0.00000000    0.00000000    0.00000000
     atom    7 type  1   force =     0.00000000    0.00000000    0.00000000
     atom    8 type  2   force =     0.00000000    0.00000000    0.00000000
     atom    9 type  2   force =     0.00000000    0.00000000    0.00000000
     atom   10 type  1   force =     0.00000000    0.00000000    0.00000000
     atom   11 type  2   force =     0.00000000    0.00000000    0.00000000
     atom   12 type  2   force =     0.00000000    0.00000000    0.00000000
     atom   13 type  1   force =     0.00000000    0.00000000    0.00000000
     atom   14 type  2   force =     0.00000000    0.00000000    0.00000000
     atom   15 type  2   force =     0.00000000    0.00000000    0.00000000
     atom   16 type  1   force =     0.00000000    0.00000000    0.00000000
     atom   17 type  2   force =     0.00000000    0.00000000    0.00000000
     atom   18 type  2   force =     0.00000000    0.00000000    0.00000000
     atom   19 type  1   force =     0.00000000    0.00000000    0.00000000
     atom   20 type  2   force =     0.00000000    0.00000000    0.00000000
     atom   21 type  1   force =     0.00000000    0.00000000    0.00000000
     atom   22 type  2   force =     0.00000000    0.00000000    0.00000000
     atom   23 type  2   force =     0.00000000    0.00000000    0.00000000
     atom   24 type  1   force =     0.00000000    0.00000000    0.00000000
     atom   25 type  2   force =     0.00000000    0.00000000    0.00000000
     atom   26 type  2   force =     0.00000000    0.00000000    0.00000000
     atom   27 type  1   force =     0.00000000    0.00000000    0.00000000
     atom   28 type  2   force =     0.00000000    0.00000000    0.00000000
     atom   29 type  2   force =     0.00000000    0.00000000    0.00000000
     atom   30 type  1   force =     0.00000000    0.00000000    0.00000000
     atom   31 type  2   force =     0.00000000    0.00000000    0.00000000
     atom   32 type  2   force =     0.00000000    0.00000000    0.00000000
     atom   33 type  1   force =     0.00000000    0.00000000    0.00000000
     atom   34 type  2   force =     0.00000000    0.00000000    0.00000000
     atom   35 type  2   force =     0.00000000    0.00000000    0.00000000
     atom   36 type  3   force =     0.00000000    0.00000000    0.00000000
     The SCF correction term to forces
     atom    1 type  1   force =    -0.00002771   -0.00002865   -0.00006961
     atom    2 type  2   force =     0.00000037   -0.00000832   -0.00002460
     atom    3 type  2   force =    -0.00001071   -0.00000743   -0.00001355
     atom    4 type  1   force =     0.00001348    0.00003066   -0.00004473
     atom    5 type  2   force =    -0.00001877    0.00000431   -0.00002442
     atom    6 type  2   force =    -0.00001494   -0.00001638   -0.00000613
     atom    7 type  1   force =    -0.00000475    0.00001158   -0.00002727
     atom    8 type  2   force =    -0.00000525    0.00000943   -0.00001748
     atom    9 type  2   force =    -0.00000032    0.00000681   -0.00000154
     atom   10 type  1   force =    -0.00001658    0.00001002   -0.00006106
     atom   11 type  2   force =    -0.00001241   -0.00000535   -0.00002606
     atom   12 type  2   force =    -0.00001162    0.00001035   -0.00000876
     atom   13 type  1   force =    -0.00000163   -0.00002722   -0.00005108
     atom   14 type  2   force =    -0.00000448   -0.00000816   -0.00003300
     atom   15 type  2   force =     0.00000223   -0.00001524    0.00000261
     atom   16 type  1   force =    -0.00003823    0.00001058   -0.00002296
     atom   17 type  2   force =     0.00000358    0.00001082   -0.00002549
     atom   18 type  2   force =    -0.00000055   -0.00000454    0.00000758
     atom   19 type  1   force =    -0.00000255    0.00001424   -0.00003257
     atom   20 type  2   force =     0.00000157    0.00000402    0.00000217
     atom   21 type  1   force =    -0.00001310    0.00000773   -0.00005152
     atom   22 type  2   force =    -0.00000368    0.00001211   -0.00003500
     atom   23 type  2   force =    -0.00000578    0.00001945    0.00000152
     atom   24 type  1   force =     0.00002373   -0.00002330   -0.00004012
     atom   25 type  2   force =     0.00001070   -0.00000249   -0.00002590
     atom   26 type  2   force =     0.00000627   -0.00001258   -0.00000567
     atom   27 type  1   force =     0.00000410    0.00000541   -0.00002609
     atom   28 type  2   force =     0.00002102    0.00001008   -0.00002233
     atom   29 type  2   force =     0.00001373   -0.00000148   -0.00000401
     atom   30 type  1   force =     0.00004203    0.00001779   -0.00003316
     atom   31 type  2   force =    -0.00000142   -0.00000299   -0.00002094
     atom   32 type  2   force =    -0.00000432    0.00000976    0.00000666
     atom   33 type  1   force =     0.00002228   -0.00002302   -0.00005290
     atom   34 type  2   force =     0.00001845   -0.00001037   -0.00002186
     atom   35 type  2   force =     0.00001601    0.00000696   -0.00001064
     atom   36 type  3   force =    -0.00003177   -0.00001266   -0.00001235

     Total force =     0.005732     Total SCF correction =     0.000220
     Energy error            =      6.9E-05 Ry
     Gradient error          =      1.5E-03 Ry/Bohr

     bfgs converged in  35 scf cycles and  34 bfgs steps
     (criteria: energy <  1.0E-04 Ry, force <  1.0E-02 Ry/Bohr)

     End of BFGS Geometry Optimization

     Final energy             =   -2246.4442662686 Ry

     File ./MoS2-V-O.bfgs deleted, as requested
Begin final coordinates

ATOMIC_POSITIONS (angstrom)
Mo            6.5961743800        1.6848821399        2.7264293487
S             8.1626301896        0.8130708755        4.3590973943
S             8.1940721408        0.7937703965        1.1532131750
Mo            8.1698832827        4.4779454635        2.6957156634
S             6.5526223704        3.6030131693        4.2023797146
S             6.5853499876        3.5328964316        1.1129185848
Mo            6.5282206439        7.1499873445        2.6649648564
S             8.0894393102        6.2664239229        4.3108439750
S             8.1536049524        6.3107244538        1.1019938196
Mo            8.1678110322        9.9028196801        2.7628087843
S             6.5428793705        8.9174290305        4.3160727506
S             6.6142603569        9.0000824613        1.1245309585
Mo            3.4628468543        1.7332098976        2.7560635901
S             5.0290531467        0.7825735823        4.3378905446
S             5.0094487379        0.8004705352        1.1459329101
Mo            4.9943979732        4.5318030087        2.6346731845
S             3.5114651153        3.6541495887        4.3136045885
S             3.4486114264        3.5303174872        1.1013655639
Mo            3.4764083065        7.1499426423        2.6572374691
S             5.0032112809        6.3026669405        1.0230029565
Mo            5.0123354746        9.8773270085        2.7223363963
S             3.4870110815        8.9140336753        4.3167285804
S             3.4146393316        9.0008688667        1.1215697249
Mo            0.2966395997        1.7108519577        2.7600426446
S             1.8892695106        0.8224101389        4.3626266200
S             1.8824652762        0.8109791702        1.1726751762
Mo            1.8971173449        4.4593539147        2.7173648046
S             0.2888081459        3.5754293294        4.3131626333
S             0.3062911595        3.5241642342        1.1379184104
Mo            0.2765596778        7.1830663086        2.7421273680
S             1.9216870232        6.2727731792        4.3086936177
S             1.8512976977        6.2932977419        1.1132550193
Mo            1.8760180725        9.9054036202        2.7654890934
S             0.2904521095        8.9972067037        4.3612162130
S             0.2924152868        9.0126210073        1.1729206775
O             6.5522071395        3.6116249467        5.7018807641
End final coordinates



     Writing all to output data dir ./MoS2-V-O.save/
 
     init_run     :      4.55s CPU      5.05s WALL (       1 calls)
     electrons    :   3395.44s CPU   3824.00s WALL (      35 calls)
     update_pot   :    103.68s CPU    110.24s WALL (      34 calls)
     forces       :     94.85s CPU    107.85s WALL (      35 calls)

     Called by init_run:
     wfcinit      :      0.48s CPU      0.53s WALL (       1 calls)
     potinit      :      2.33s CPU      2.57s WALL (       1 calls)
     hinit0       :      0.43s CPU      0.46s WALL (       1 calls)

     Called by electrons:
     c_bands      :    490.21s CPU    501.94s WALL (     339 calls)
     sum_band     :    188.64s CPU    242.65s WALL (     339 calls)
     v_of_rho     :    316.55s CPU    383.53s WALL (     363 calls)
     newd         :    108.74s CPU    159.41s WALL (     363 calls)
     PAW_pot      :     14.40s CPU     14.48s WALL (     397 calls)
     mix_rho      :   2311.12s CPU   2557.57s WALL (     339 calls)

     Called by c_bands:
     init_us_2    :      7.72s CPU      8.29s WALL (     713 calls)
     init_us_2:cp :      7.72s CPU      8.29s WALL (     713 calls)
     regterg      :    464.98s CPU    476.10s WALL (     339 calls)

     Called by *egterg:
     rdiaghg      :     31.75s CPU     32.02s WALL (    1824 calls)
     h_psi        :    301.30s CPU    304.15s WALL (    1870 calls)
     s_psi        :     28.61s CPU     28.71s WALL (    1870 calls)
     g_psi        :      1.48s CPU      1.50s WALL (    1530 calls)

     Called by h_psi:
     h_psi:calbec :     32.17s CPU     32.35s WALL (    1870 calls)
     vloc_psi     :    237.26s CPU    239.75s WALL (    1870 calls)
     add_vuspsi   :     28.07s CPU     28.21s WALL (    1870 calls)

     General routines
     calbec       :     46.29s CPU     46.55s WALL (    2383 calls)
     fft          :    213.50s CPU    247.63s WALL (   24183 calls)
     ffts         :   1043.04s CPU   1280.89s WALL (  565633 calls)
     fftw         :    150.66s CPU    152.10s WALL (  209154 calls)
     interpolate  :      4.51s CPU      5.16s WALL (     363 calls)
 
     Parallel routines
 
     PWSCF        :      1h 0m CPU      1h 7m WALL

 
   This run was terminated on:  15:33:30   1Nov2023            

=------------------------------------------------------------------------------=
   JOB DONE.
=------------------------------------------------------------------------------=
