
     Program PWSCF v.7.2 starts on  1Nov2023 at 13:15:44 

     This program is part of the open-source Quantum ESPRESSO suite
     for quantum simulation of materials; please cite
         "P. Giannozzi et al., J. Phys.:Condens. Matter 21 395502 (2009);
         "P. Giannozzi et al., J. Phys.:Condens. Matter 29 465901 (2017);
         "P. Giannozzi et al., J. Chem. Phys. 152 154105 (2020);
          URL http://www.quantum-espresso.org", 
     in publications or presentations arising from this work. More details at
     http://www.quantum-espresso.org/quote

     Parallel version (MPI & OpenMP), running on      48 processor cores
     Number of MPI processes:                48
     Threads/MPI process:                     1

     MPI processes distributed on     1 nodes
     79333 MiB available memory on the printing compute node when the environment starts
 
     Waiting for input...
     Reading input from standard input
Warning: card &CELL ignored
Warning: card CELL_DYNAMICS = 'BFGS', ignored
Warning: card CELL_DOFREE = '2DXY' ignored
Warning: card / ignored

     Current dimensions of program PWSCF are:
     Max number of different atomic species (ntypx) = 10
     Max number of k-points (npk) =  40000
     Max angular momentum in pseudopotentials (lmaxx) =  4
     file O.pbe-n-kjpaw_psl.0.1.UPF: wavefunction(s)  2P renormalized

     IMPORTANT: XC functional enforced from input :
     Exchange-correlation= RVV10
                           (   1   4  13   4  26   0   0)
     Any further DFT definition will be discarded
     Please, verify this is what you really want


     gamma-point specific algorithms are used
     signal trapping enabled: kill the code with -SIGUSR1 to stop cleanly the simulation 
 
     R & G space division:  proc/nbgrp/npool/nimage =      48
     Subspace diagonalization in iterative solution of the eigenvalue problem:
     one sub-group per band group will be used
     scalapack distributed-memory algorithm (size of sub-group:  2*  2 procs)

 
     Parallelization info
     --------------------
     sticks:   dense  smooth     PW     G-vecs:    dense   smooth      PW
     Min         396     194     47               101632    35090    4376
     Max         398     196     50               101674    35128    4410
     Sum       19091    9389   2349              4879585  1685513  210763
 
     Using Slab Decomposition
 


     bravais-lattice index     =            0
     lattice parameter (alat)  =      17.8707  a.u.
     unit-cell volume          =   17436.2743 (a.u.)^3
     number of atoms/cell      =           36
     number of atomic types    =            3
     number of electrons       =       312.00
     number of Kohn-Sham states=          187
     kinetic-energy cutoff     =      80.0000  Ry
     charge density cutoff     =     650.0000  Ry
     scf convergence threshold =      1.0E-06
     mixing beta               =       0.7000
     number of iterations used =            8  local-TF  mixing
     energy convergence thresh.=      1.0E-04
     force convergence thresh. =      1.0E-02
     Exchange-correlation= RVV10
                           (   1   4  13   4  26   0   0)
     nstep                     =          200


     celldm(1)=  17.870686  celldm(2)=   0.000000  celldm(3)=   0.000000
     celldm(4)=   0.000000  celldm(5)=   0.000000  celldm(6)=   0.000000

     crystal axes: (cart. coord. in units of alat)
               a(1) = (   1.000000   0.000000   0.000000 )  
               a(2) = (   0.000000   1.155671   0.000000 )  
               a(3) = (   0.000000   0.000000   2.643601 )  

     reciprocal axes: (cart. coord. in units 2 pi/alat)
               b(1) = (  1.000000  0.000000  0.000000 )  
               b(2) = (  0.000000  0.865298  0.000000 )  
               b(3) = (  0.000000  0.000000  0.378272 )  


     PseudoPot. # 1 for Mo read from file:
     ../pseudo/Mo_ONCV_PBE-1.0.oncvpsp.upf
     MD5 check sum: 1b5d28e075c9ccadda658a603575cd1f
     Pseudo is Norm-conserving, Zval = 14.0
     Generated using ONCVPSP code by D. R. Hamann
     Using radial grid of 1526 points,  6 beta functions with: 
                l(1) =   0
                l(2) =   0
                l(3) =   1
                l(4) =   1
                l(5) =   2
                l(6) =   2

     PseudoPot. # 2 for S  read from file:
     ../pseudo/s_pbe_v1.4.uspp.F.UPF
     MD5 check sum: 88d86576ff6df21479756cfb9bdac1df
     Pseudo is Ultrasoft + core correction, Zval =  6.0
     Generated by new atomic code, or converted to UPF format
     Using radial grid of  907 points,  6 beta functions with: 
                l(1) =   0
                l(2) =   0
                l(3) =   1
                l(4) =   1
                l(5) =   2
                l(6) =   2
     Q(r) pseudized with  8 coefficients,  rinner =    1.300   1.300   1.300
                                                       1.300   1.300

     PseudoPot. # 3 for O  read from file:
     ../pseudo/O.pbe-n-kjpaw_psl.0.1.UPF
     MD5 check sum: 0234752ac141de4415c5fc33072bef88
     Pseudo is Projector augmented-wave + core cor, Zval =  6.0
     Generated using "atomic" code by A. Dal Corso  v.5.0.99 svn rev. 10869
     Shape of augmentation charge: BESSEL
     Using radial grid of 1095 points,  4 beta functions with: 
                l(1) =   0
                l(2) =   0
                l(3) =   1
                l(4) =   1
     Q(r) pseudized with 0 coefficients 


     atomic species   valence    mass     pseudopotential
        Mo            14.00    95.94000     Mo( 1.00)
        S              6.00    32.06500     S ( 1.00)
        O              6.00    15.99940     O ( 1.00)

     No symmetry found



   Cartesian axes

     site n.     atom                  positions (alat units)
         1           Mo  tau(   1) = (   0.6952221   0.1890506   0.2985846  )
         2           S   tau(   2) = (   0.8646417   0.0856217   0.4689279  )
         3           S   tau(   3) = (   0.8663890   0.0857843   0.1351291  )
         4           Mo  tau(   4) = (   0.8560186   0.4753274   0.2873942  )
         5           S   tau(   5) = (   0.6873294   0.3936244   0.4596353  )
         6           S   tau(   6) = (   0.6929804   0.3713468   0.1185692  )
         7           Mo  tau(   7) = (   0.6862796   0.7633098   0.2825370  )
         8           S   tau(   8) = (   0.8545980   0.6708292   0.4486168  )
         9           S   tau(   9) = (   0.8545123   0.6666874   0.1146125  )
        10           Mo  tau(  10) = (   0.8629403   1.0471007   0.3006803  )
        11           S   tau(  11) = (   0.6868280   0.9456650   0.4634891  )
        12           S   tau(  12) = (   0.6998113   0.9568511   0.1205389  )
        13           Mo  tau(  13) = (   0.3618216   0.1847309   0.2935964  )
        14           S   tau(  14) = (   0.5260962   0.0863870   0.4600448  )
        15           S   tau(  15) = (   0.5348379   0.0894875   0.1297123  )
        16           Mo  tau(  16) = (   0.5265817   0.4772436   0.2784130  )
        17           S   tau(  17) = (   0.3624753   0.3882513   0.4525556  )
        18           S   tau(  18) = (   0.3635411   0.3752055   0.1119148  )
        19           Mo  tau(  19) = (   0.3652268   0.7630864   0.2781795  )
        20           S   tau(  20) = (   0.5269494   0.6690381   0.1096838  )
        21           Mo  tau(  21) = (   0.5300192   1.0470394   0.2900995  )
        22           S   tau(  22) = (   0.3670346   0.9457522   0.4574073  )
        23           S   tau(  23) = (   0.3604225   0.9585725   0.1159032  )
        24           Mo  tau(  24) = (   0.0313099   0.1847895   0.3013130  )
        25           S   tau(  25) = (   0.1956761   0.0838230   0.4650863  )
        26           S   tau(  26) = (   0.1967693   0.0903508   0.1278874  )
        27           Mo  tau(  27) = (   0.1967578   0.4753919   0.2813011  )
        28           S   tau(  28) = (   0.0287851   0.3864324   0.4586755  )
        29           S   tau(  29) = (   0.0244514   0.3729871   0.1239344  )
        30           Mo  tau(  30) = (   0.0286728   0.7631204   0.2856894  )
        31           S   tau(  31) = (   0.2011512   0.6675435   0.4465001  )
        32           S   tau(  32) = (   0.1969214   0.6672839   0.1104564  )
        33           Mo  tau(  33) = (   0.1950294   1.0511147   0.2932237  )
        34           S   tau(  34) = (   0.0312912   0.9612169   0.4667423  )
        35           S   tau(  35) = (   0.0292670   0.9563028   0.1216485  )
        36           O   tau(  36) = (   1.0000000   0.1284079   0.5407634  )

     number of k points=     1  Gaussian smearing, width (Ry)=  0.0100
                       cart. coord. in units 2pi/alat
        k(    1) = (   0.0000000   0.0000000   0.0000000), wk =   2.0000000

     Dense  grid:  2439793 G-vectors     FFT dimensions: ( 150, 180, 384)

     Smooth grid:   842757 G-vectors     FFT dimensions: ( 108, 120, 270)

     Estimated max dynamical RAM per process >     269.22 MB

     Estimated total dynamical RAM >      12.62 GB

     Initial potential from superposition of free atoms

     starting charge     311.9873, renormalised to     312.0000

     negative rho (up, down):  2.735E-04 0.000E+00


---------------------------------------------------------------------------------
Carrying out rVV10 run using the following parameters:
Nqs =      20    Nr_points =    1024   r_max =   100.000
b_value =  6.30000    beta =  0.00901
     q_mesh =  0.00010000  0.00030000  0.00058939  0.00100810
               0.00161396  0.00249058  0.00375900  0.00559430
               0.00824984  0.01209221  0.01765183  0.02569619
               0.03733578  0.05417739  0.07854596  0.11380545
               0.16482331  0.23864234  0.34545298  0.50000000

Gradients computed in Reciprocal space

---------------------------------------------------------------------------------


     Starting wfcs are  216 randomized atomic wfcs
     Checking if some PAW data can be deallocated... 

     total cpu time spent up to now is        5.3 secs

     Self-consistent Calculation

     iteration #  1     ecut=    80.00 Ry     beta= 0.70
     Davidson diagonalization with overlap
     ethr =  1.00E-02,  avg # of iterations =  2.0

     Threshold (ethr) on eigenvalues was too large:
     Diagonalizing with lowered threshold

     Davidson diagonalization with overlap
     ethr =  4.29E-04,  avg # of iterations =  3.0

     negative rho (up, down):  3.975E-08 0.000E+00

     total cpu time spent up to now is       23.0 secs

     total energy              =   -2246.16253774 Ry
     estimated scf accuracy    <       1.58602862 Ry

     iteration #  2     ecut=    80.00 Ry     beta= 0.70
     Davidson diagonalization with overlap
     ethr =  5.08E-04,  avg # of iterations =  3.0

     total cpu time spent up to now is       27.6 secs

     total energy              =   -2246.15072284 Ry
     estimated scf accuracy    <       0.71270442 Ry

     iteration #  3     ecut=    80.00 Ry     beta= 0.70
     Davidson diagonalization with overlap
     ethr =  2.28E-04,  avg # of iterations =  4.0

     total cpu time spent up to now is       31.5 secs

     total energy              =   -2246.14285578 Ry
     estimated scf accuracy    <       0.21385145 Ry

     iteration #  4     ecut=    80.00 Ry     beta= 0.70
     Davidson diagonalization with overlap
     ethr =  6.85E-05,  avg # of iterations = 15.0

     total cpu time spent up to now is       36.1 secs

     total energy              =   -2246.17574601 Ry
     estimated scf accuracy    <       0.03284031 Ry

     iteration #  5     ecut=    80.00 Ry     beta= 0.70
     Davidson diagonalization with overlap
     c_bands:  1 eigenvalues not converged
     ethr =  1.05E-05,  avg # of iterations = 20.0

     total cpu time spent up to now is       40.9 secs

     total energy              =   -2246.17698984 Ry
     estimated scf accuracy    <       0.01879139 Ry

     iteration #  6     ecut=    80.00 Ry     beta= 0.70
     Davidson diagonalization with overlap
     ethr =  6.02E-06,  avg # of iterations =  2.0

     total cpu time spent up to now is       44.6 secs

     total energy              =   -2246.17608059 Ry
     estimated scf accuracy    <       0.01192766 Ry

     iteration #  7     ecut=    80.00 Ry     beta= 0.70
     Davidson diagonalization with overlap
     ethr =  3.82E-06,  avg # of iterations =  2.0

     total cpu time spent up to now is       48.4 secs

     total energy              =   -2246.17507130 Ry
     estimated scf accuracy    <       0.00721414 Ry

     iteration #  8     ecut=    80.00 Ry     beta= 0.70
     Davidson diagonalization with overlap
     c_bands:  1 eigenvalues not converged
     ethr =  2.31E-06,  avg # of iterations = 20.0

     negative rho (up, down):  5.725E-03 0.000E+00

     total cpu time spent up to now is       55.5 secs

     total energy              =   -2246.17386656 Ry
     estimated scf accuracy    <       0.00446425 Ry

     iteration #  9     ecut=    80.00 Ry     beta= 0.70
     Davidson diagonalization with overlap
     ethr =  1.43E-06,  avg # of iterations =  2.0

     negative rho (up, down):  2.177E-02 0.000E+00

     total cpu time spent up to now is       61.4 secs

     total energy              =   -2246.17357401 Ry
     estimated scf accuracy    <       0.00239850 Ry

     iteration # 10     ecut=    80.00 Ry     beta= 0.70
     Davidson diagonalization with overlap
     ethr =  7.69E-07,  avg # of iterations =  2.0

     negative rho (up, down):  2.814E-02 0.000E+00

     total cpu time spent up to now is       67.7 secs

     total energy              =   -2246.17358067 Ry
     estimated scf accuracy    <       0.00119097 Ry

     iteration # 11     ecut=    80.00 Ry     beta= 0.70
     Davidson diagonalization with overlap
     ethr =  3.82E-07,  avg # of iterations =  2.0

     negative rho (up, down):  1.916E-02 0.000E+00

     total cpu time spent up to now is       73.9 secs

     total energy              =   -2246.17357673 Ry
     estimated scf accuracy    <       0.00022951 Ry

     iteration # 12     ecut=    80.00 Ry     beta= 0.70
     Davidson diagonalization with overlap
     ethr =  7.36E-08,  avg # of iterations =  6.0

     negative rho (up, down):  5.453E-03 0.000E+00

     total cpu time spent up to now is       81.2 secs

     total energy              =   -2246.17356467 Ry
     estimated scf accuracy    <       0.00005667 Ry

     iteration # 13     ecut=    80.00 Ry     beta= 0.70
     Davidson diagonalization with overlap
     ethr =  1.82E-08,  avg # of iterations =  5.0

     negative rho (up, down):  1.580E-03 0.000E+00

     total cpu time spent up to now is       89.4 secs

     total energy              =   -2246.17359134 Ry
     estimated scf accuracy    <       0.00000918 Ry

     iteration # 14     ecut=    80.00 Ry     beta= 0.70
     Davidson diagonalization with overlap
     ethr =  2.94E-09,  avg # of iterations =  5.0

     negative rho (up, down):  1.942E-04 0.000E+00

     total cpu time spent up to now is       93.2 secs

     End of self-consistent calculation

          k = 0.0000 0.0000 0.0000 (105382 PWs)   bands (ev):

   -63.1282 -62.8893 -62.8719 -62.8633 -62.8392 -62.8124 -62.8049 -62.7952
   -62.7830 -62.7774 -62.7486 -62.6937 -37.4676 -37.3295 -37.2364 -37.2027
   -37.1652 -37.1451 -37.1161 -37.0921 -37.0752 -37.0686 -37.0630 -37.0527
   -37.0454 -37.0392 -37.0368 -37.0323 -37.0151 -37.0012 -36.9863 -36.9733
   -36.9562 -36.9418 -36.9381 -36.9319 -36.9277 -36.9179 -36.9031 -36.8935
   -36.8786 -36.8664 -36.8546 -36.8533 -36.8335 -36.7656 -36.7279 -36.7228
   -23.7635 -15.9270 -15.3315 -15.1985 -15.0861 -14.8554 -14.8303 -14.7117
   -14.5057 -14.4671 -14.4481 -14.3857 -14.3418 -14.2860 -14.2308 -14.1837
   -14.1251 -14.1025 -14.0290 -13.9962 -13.8635 -13.8540 -13.8126 -13.4321
    -9.1727  -8.4713  -8.1877  -7.4954  -7.3961  -7.2883  -7.2647  -7.1631
    -7.1457  -7.0277  -6.9090  -6.7982  -6.7815  -6.7199  -6.6638  -6.5712
    -6.5046  -6.4734  -6.4263  -6.2500  -6.0820  -6.0610  -5.9180  -5.8535
    -5.8361  -5.8191  -5.7706  -5.6835  -5.6557  -5.6363  -5.6135  -5.5710
    -5.5272  -5.4951  -5.3827  -5.2807  -5.2335  -5.2059  -5.0974  -4.9986
    -4.9713  -4.9629  -4.8787  -4.8277  -4.6755  -4.5603  -4.5050  -4.3856
    -4.3148  -4.2856  -4.1740  -4.0560  -4.0203  -3.9440  -3.8664  -3.7580
    -3.7444  -3.7250  -3.6837  -3.6340  -3.6142  -3.5635  -3.5331  -3.4697
    -3.4472  -3.4118  -3.2424  -3.2235  -3.1818  -3.0029  -2.9227  -2.8312
    -2.7903  -2.7470  -2.7451  -2.7195  -2.6344  -2.5761  -2.3811  -2.2439
    -2.0405  -2.0135  -1.8457  -1.1701  -0.8955  -0.7620  -0.6547  -0.2004
    -0.1420  -0.0615   0.0138   0.0381   0.1119   0.1800   0.2263   0.2599
     0.2670   0.3572   0.4417   0.4844   0.5085   0.5478   0.5778   0.6352
     0.6505   0.7314   0.7327   0.7794   0.8012   0.8683   0.9402   0.9607
     1.0749   1.1627   1.3424

     the Fermi energy is    -1.0336 ev

!    total energy              =   -2246.17359526 Ry
     estimated scf accuracy    <       0.00000088 Ry
     smearing contrib. (-TS)   =      -0.00418224 Ry
     internal energy E=F+TS    =   -2246.16941302 Ry

     The total energy is F=E-TS. E is the sum of the following terms:
     one-electron contribution =  -18508.90207042 Ry
     hartree contribution      =    9243.03471025 Ry
     xc contribution           =    -392.28259987 Ry
     ewald contribution        =    7421.83879251 Ry
     one-center paw contrib.   =      -9.85824548 Ry

     convergence has been achieved in  14 iterations

     negative rho (up, down):  1.942E-04 0.000E+00

     Forces acting on atoms (cartesian axes, Ry/au):

     atom    1 type  1   force =     0.03109256    0.01778246   -0.01397615
     atom    2 type  2   force =    -0.20774443   -0.08228120   -0.01585268
     atom    3 type  2   force =    -0.01157983    0.01116656   -0.00490747
     atom    4 type  1   force =    -0.00276365   -0.00061129   -0.00440920
     atom    5 type  2   force =    -0.00462044   -0.00403150   -0.00572331
     atom    6 type  2   force =    -0.00182825    0.00860093    0.00179597
     atom    7 type  1   force =     0.00550114   -0.01265202   -0.00932241
     atom    8 type  2   force =     0.00353388   -0.00607480    0.01765294
     atom    9 type  2   force =     0.01281284    0.00795685    0.01244579
     atom   10 type  1   force =     0.01274842    0.00699135   -0.02536389
     atom   11 type  2   force =     0.00197751   -0.00474318   -0.00739028
     atom   12 type  2   force =    -0.00412188    0.00001680    0.00338400
     atom   13 type  1   force =     0.02455448   -0.00670889   -0.01264271
     atom   14 type  2   force =    -0.00596966   -0.00683671    0.01636050
     atom   15 type  2   force =    -0.01416746    0.00353441   -0.00963260
     atom   16 type  1   force =    -0.00265296    0.01156855    0.00125535
     atom   17 type  2   force =     0.00554889   -0.00024346    0.00155681
     atom   18 type  2   force =    -0.00141483   -0.00406471    0.00821133
     atom   19 type  1   force =     0.00523476   -0.01280188   -0.00581293
     atom   20 type  2   force =     0.00307097   -0.00372686    0.00184749
     atom   21 type  1   force =    -0.00379175    0.00747852    0.00417621
     atom   22 type  2   force =    -0.00338489   -0.00032999   -0.00269486
     atom   23 type  2   force =    -0.00052133   -0.00027654    0.00758708
     atom   24 type  1   force =     0.02680330    0.02726605   -0.05094636
     atom   25 type  2   force =     0.13292215   -0.00185759   -0.05135577
     atom   26 type  2   force =    -0.01340120    0.00230887   -0.00199251
     atom   27 type  1   force =    -0.00482318    0.00833900    0.01372188
     atom   28 type  2   force =     0.00781860    0.03454223   -0.02275639
     atom   29 type  2   force =     0.00387311   -0.01265789   -0.00502435
     atom   30 type  1   force =    -0.00633802    0.00965807   -0.00525622
     atom   31 type  2   force =     0.00066012    0.00162918    0.01796730
     atom   32 type  2   force =    -0.00967991    0.00550221    0.00582876
     atom   33 type  1   force =     0.01348099    0.00008485   -0.00676033
     atom   34 type  2   force =     0.00344979   -0.04500758   -0.00649311
     atom   35 type  2   force =    -0.00974857    0.00644943    0.01175913
     atom   36 type  3   force =     0.01346878    0.03402980    0.14276300
     The non-local contrib.  to forces
     atom    1 type  1   force =     0.00435758    0.02538493    0.00260299
     atom    2 type  2   force =     0.42199494    0.14096157   -0.08450905
     atom    3 type  2   force =    -0.00988003   -0.00470777    0.26170567
     atom    4 type  1   force =     0.00344815    0.00954778    0.00813216
     atom    5 type  2   force =     0.00835094   -0.03481770   -0.25319031
     atom    6 type  2   force =    -0.00704681    0.00115840    0.26641444
     atom    7 type  1   force =    -0.01836246    0.00118537   -0.01672849
     atom    8 type  2   force =     0.00425877   -0.00435195   -0.25312723
     atom    9 type  2   force =     0.00947224   -0.01080812    0.27836204
     atom   10 type  1   force =    -0.00642356    0.02008498   -0.00328577
     atom   11 type  2   force =    -0.00070915    0.00465120   -0.25617479
     atom   12 type  2   force =    -0.01296422   -0.01755711    0.26139145
     atom   13 type  1   force =    -0.00993040    0.00633676   -0.00240347
     atom   14 type  2   force =    -0.01653732   -0.01417459   -0.25255456
     atom   15 type  2   force =    -0.01241473   -0.00699420    0.26082406
     atom   16 type  1   force =    -0.00177929    0.02758209   -0.03073947
     atom   17 type  2   force =     0.00941865   -0.02153979   -0.24301689
     atom   18 type  2   force =    -0.00718977    0.00538424    0.26658336
     atom   19 type  1   force =     0.01566402   -0.00167776   -0.01487661
     atom   20 type  2   force =     0.00059261   -0.02092161    0.26575834
     atom   21 type  1   force =    -0.00573554    0.01748995    0.00374204
     atom   22 type  2   force =    -0.01297619    0.00249314   -0.25896871
     atom   23 type  2   force =     0.00658088   -0.01340056    0.26846630
     atom   24 type  1   force =     0.02085132    0.00738775   -0.03555699
     atom   25 type  2   force =    -0.00647744   -0.01520488   -0.26770151
     atom   26 type  2   force =    -0.01373257   -0.00846017    0.26475367
     atom   27 type  1   force =    -0.00183453    0.00242555    0.00631659
     atom   28 type  2   force =    -0.00552994    0.04419086   -0.27444048
     atom   29 type  2   force =     0.01012785   -0.01366359    0.27179380
     atom   30 type  1   force =    -0.00052032    0.01500520    0.00444774
     atom   31 type  2   force =    -0.00544808    0.00018437   -0.25141855
     atom   32 type  2   force =    -0.00247478   -0.00741593    0.27140802
     atom   33 type  1   force =     0.00298925    0.00287116    0.00409372
     atom   34 type  2   force =    -0.00080015   -0.03199065   -0.27507418
     atom   35 type  2   force =    -0.00979372   -0.01160805    0.27079375
     atom   36 type  3   force =    -1.61238247   -0.59476576   -1.20864026
     The ionic contribution  to forces
     atom    1 type  1   force =    -1.49747260    0.71040532    3.29630876
     atom    2 type  2   force =    -8.09493493   -1.96875654   35.24470297
     atom    3 type  2   force =    -0.44777676   -0.08841487  -37.37011522
     atom    4 type  1   force =    -0.51124322    2.04854555   -1.04915734
     atom    5 type  2   force =    -1.62797453    2.21555154   38.45553825
     atom    6 type  2   force =     0.17712505   -0.29160945  -38.71654472
     atom    7 type  1   force =    -2.90573893   -3.00642224    1.63383052
     atom    8 type  2   force =    -1.14098559    0.17242555   37.19667308
     atom    9 type  2   force =     0.28253674    0.01584155  -38.53955960
     atom   10 type  1   force =    -2.33893273   -2.59023442    2.82647541
     atom   11 type  2   force =    -0.99319071   -2.19498836   38.92910328
     atom   12 type  2   force =     0.31280768    0.49126869  -38.46563435
     atom   13 type  1   force =     1.77125045    1.31057218    0.94561655
     atom   14 type  2   force =    -0.12205565   -0.11717461   38.25019435
     atom   15 type  2   force =     0.10129334   -0.10227162  -37.49467805
     atom   16 type  1   force =    -0.11412416    4.53146088   -0.56230859
     atom   17 type  2   force =     1.30766781    2.05899095   37.66474656
     atom   18 type  2   force =    -0.03634704   -0.46848852  -39.20193973
     atom   19 type  1   force =     2.94839062   -2.64179886   -0.25216934
     atom   20 type  2   force =     0.21749961   -0.16771520  -38.93846915
     atom   21 type  1   force =    -0.13173165   -0.61161457   -0.05367285
     atom   22 type  2   force =     0.77539168   -2.18541597   38.23372172
     atom   23 type  2   force =     0.01351024    0.49241594  -38.86577576
     atom   24 type  1   force =     0.46231850    3.00956833   -2.59623745
     atom   25 type  2   force =     4.90943717   -0.71704872   37.51837515
     atom   26 type  2   force =     0.02680555   -0.01037477  -38.43951912
     atom   27 type  1   force =     0.69024472    1.64199896   -3.82625818
     atom   28 type  2   force =     0.34828402    3.71218602   37.26738281
     atom   29 type  2   force =    -0.23168026   -0.05974148  -38.23350115
     atom   30 type  1   force =    -0.27978580   -1.29722733   -1.17830643
     atom   31 type  2   force =     1.40985498    0.08192927   37.14122868
     atom   32 type  2   force =    -0.41213336    0.04049804  -39.15707284
     atom   33 type  1   force =     2.12771005   -2.61805416   -0.34745070
     atom   34 type  2   force =     0.40717816   -3.17856896   38.87821233
     atom   35 type  2   force =    -0.27221601    0.15762570  -38.59603413
     atom   36 type  3   force =     2.86901757    1.62463618   48.40229430
     The local contribution  to forces
     atom    1 type  1   force =     1.52376773   -0.71768341   -3.31324440
     atom    2 type  2   force =     7.48773008    1.75309316  -35.18584079
     atom    3 type  2   force =     0.44549111    0.10425269   37.12424501
     atom    4 type  1   force =     0.50463410   -2.05907464    1.03630624
     atom    5 type  2   force =     1.61568683   -2.18699114  -38.22901230
     atom    6 type  2   force =    -0.17264072    0.29962414   38.47325023
     atom    7 type  1   force =     2.92970108    2.99279951   -1.62685854
     atom    8 type  2   force =     1.14046279   -0.17464300  -36.94668841
     atom    9 type  2   force =    -0.27896693    0.00233326   38.29484963
     atom   10 type  1   force =     2.35792161    2.57699142   -2.84880804
     atom   11 type  2   force =     0.99583849    2.18628973  -38.70119757
     atom   12 type  2   force =    -0.30512320   -0.47507923   38.22860297
     atom   13 type  1   force =    -1.73620427   -1.32338689   -0.95606304
     atom   14 type  2   force =     0.13209618    0.12428424  -38.00180993
     atom   15 type  2   force =    -0.10356415    0.11253511   37.24510685
     atom   16 type  1   force =     0.11329294   -4.54812120    0.59378362
     atom   17 type  2   force =    -1.31105744   -2.03892616  -37.44062948
     atom   18 type  2   force =     0.04213543    0.46009099   38.96447246
     atom   19 type  1   force =    -2.95892454    2.63063130    0.26078141
     atom   20 type  2   force =    -0.21512486    0.18395109   38.69584127
     atom   21 type  1   force =     0.13399461    0.60187913    0.05410814
     atom   22 type  2   force =    -0.76621617    2.18309231  -37.99837982
     atom   23 type  2   force =    -0.02004248   -0.48059083   38.62598600
     atom   24 type  1   force =    -0.45634724   -2.98958875    2.58063536
     atom   25 type  2   force =    -4.77009422    0.72973790  -37.32366624
     atom   26 type  2   force =    -0.02690711    0.02078679   38.19401650
     atom   27 type  1   force =    -0.69294520   -1.63610249    3.83334382
     atom   28 type  2   force =    -0.33533166   -3.72026129  -37.03726648
     atom   29 type  2   force =     0.22610852    0.06052258   37.97782081
     atom   30 type  1   force =     0.27395416    1.29197502    1.16824750
     atom   31 type  2   force =    -1.40413841   -0.08057323  -36.89270061
     atom   32 type  2   force =     0.40509459   -0.02806126   38.91255643
     atom   33 type  1   force =    -2.11732913    2.61524221    0.33656174
     atom   34 type  2   force =    -0.40342127    3.16482785  -38.63124611
     atom   35 type  2   force =     0.27189196   -0.14065299   38.35834635
     atom   36 type  3   force =    -1.26052392   -1.00214884  -47.06311680
     The core correction contribution to forces
     atom    1 type  1   force =     0.00000000    0.00000000    0.00000000
     atom    2 type  2   force =    -0.02299227   -0.00764252    0.00967567
     atom    3 type  2   force =     0.00040076    0.00012710   -0.02047883
     atom    4 type  1   force =     0.00000000    0.00000000    0.00000000
     atom    5 type  2   force =    -0.00077479    0.00199487    0.02033974
     atom    6 type  2   force =     0.00052069   -0.00063061   -0.02099884
     atom    7 type  1   force =     0.00000000    0.00000000    0.00000000
     atom    8 type  2   force =    -0.00013408    0.00053693    0.02035492
     atom    9 type  2   force =    -0.00024634    0.00063301   -0.02105917
     atom   10 type  1   force =     0.00000000    0.00000000    0.00000000
     atom   11 type  2   force =     0.00001342   -0.00051849    0.02048034
     atom   12 type  2   force =     0.00116277    0.00136216   -0.02077797
     atom   13 type  1   force =     0.00000000    0.00000000    0.00000000
     atom   14 type  2   force =     0.00066709    0.00029393    0.02011525
     atom   15 type  2   force =     0.00063305    0.00045833   -0.02054697
     atom   16 type  1   force =     0.00000000    0.00000000    0.00000000
     atom   17 type  2   force =    -0.00036412    0.00116227    0.01990050
     atom   18 type  2   force =     0.00023639   -0.00096677   -0.02065966
     atom   19 type  1   force =     0.00000000    0.00000000    0.00000000
     atom   20 type  2   force =     0.00008790    0.00080238   -0.02118112
     atom   21 type  1   force =     0.00000000    0.00000000    0.00000000
     atom   22 type  2   force =     0.00048475   -0.00040394    0.02057329
     atom   23 type  2   force =    -0.00050127    0.00118947   -0.02090552
     atom   24 type  1   force =     0.00000000    0.00000000    0.00000000
     atom   25 type  2   force =     0.00008360    0.00072063    0.02127021
     atom   26 type  2   force =     0.00049759    0.00043331   -0.02096994
     atom   27 type  1   force =     0.00000000    0.00000000    0.00000000
     atom   28 type  2   force =     0.00038655   -0.00164361    0.02118621
     atom   29 type  2   force =    -0.00070976    0.00027788   -0.02094872
     atom   30 type  1   force =     0.00000000    0.00000000    0.00000000
     atom   31 type  2   force =     0.00033587    0.00007626    0.02041061
     atom   32 type  2   force =    -0.00013921    0.00046202   -0.02090697
     atom   33 type  1   force =     0.00000000    0.00000000    0.00000000
     atom   34 type  2   force =     0.00044242    0.00076052    0.02117652
     atom   35 type  2   force =     0.00028824    0.00094287   -0.02106617
     atom   36 type  3   force =     0.01739170    0.00622346    0.01204850
     The Hubbard contrib.    to forces
     atom    1 type  1   force =     0.00000000    0.00000000    0.00000000
     atom    2 type  2   force =     0.00000000    0.00000000    0.00000000
     atom    3 type  2   force =     0.00000000    0.00000000    0.00000000
     atom    4 type  1   force =     0.00000000    0.00000000    0.00000000
     atom    5 type  2   force =     0.00000000    0.00000000    0.00000000
     atom    6 type  2   force =     0.00000000    0.00000000    0.00000000
     atom    7 type  1   force =     0.00000000    0.00000000    0.00000000
     atom    8 type  2   force =     0.00000000    0.00000000    0.00000000
     atom    9 type  2   force =     0.00000000    0.00000000    0.00000000
     atom   10 type  1   force =     0.00000000    0.00000000    0.00000000
     atom   11 type  2   force =     0.00000000    0.00000000    0.00000000
     atom   12 type  2   force =     0.00000000    0.00000000    0.00000000
     atom   13 type  1   force =     0.00000000    0.00000000    0.00000000
     atom   14 type  2   force =     0.00000000    0.00000000    0.00000000
     atom   15 type  2   force =     0.00000000    0.00000000    0.00000000
     atom   16 type  1   force =     0.00000000    0.00000000    0.00000000
     atom   17 type  2   force =     0.00000000    0.00000000    0.00000000
     atom   18 type  2   force =     0.00000000    0.00000000    0.00000000
     atom   19 type  1   force =     0.00000000    0.00000000    0.00000000
     atom   20 type  2   force =     0.00000000    0.00000000    0.00000000
     atom   21 type  1   force =     0.00000000    0.00000000    0.00000000
     atom   22 type  2   force =     0.00000000    0.00000000    0.00000000
     atom   23 type  2   force =     0.00000000    0.00000000    0.00000000
     atom   24 type  1   force =     0.00000000    0.00000000    0.00000000
     atom   25 type  2   force =     0.00000000    0.00000000    0.00000000
     atom   26 type  2   force =     0.00000000    0.00000000    0.00000000
     atom   27 type  1   force =     0.00000000    0.00000000    0.00000000
     atom   28 type  2   force =     0.00000000    0.00000000    0.00000000
     atom   29 type  2   force =     0.00000000    0.00000000    0.00000000
     atom   30 type  1   force =     0.00000000    0.00000000    0.00000000
     atom   31 type  2   force =     0.00000000    0.00000000    0.00000000
     atom   32 type  2   force =     0.00000000    0.00000000    0.00000000
     atom   33 type  1   force =     0.00000000    0.00000000    0.00000000
     atom   34 type  2   force =     0.00000000    0.00000000    0.00000000
     atom   35 type  2   force =     0.00000000    0.00000000    0.00000000
     atom   36 type  3   force =     0.00000000    0.00000000    0.00000000
     The SCF correction term to forces
     atom    1 type  1   force =     0.00043779   -0.00032359    0.00035587
     atom    2 type  2   force =     0.00045568    0.00006393    0.00011789
     atom    3 type  2   force =     0.00018303   -0.00008980   -0.00026473
     atom    4 type  1   force =     0.00039526    0.00037082    0.00030911
     atom    5 type  2   force =     0.00008905    0.00023173    0.00060068
     atom    6 type  2   force =     0.00021147    0.00005924   -0.00032577
     atom    7 type  1   force =    -0.00010061   -0.00021387    0.00043348
     atom    8 type  2   force =    -0.00007007   -0.00004155    0.00043995
     atom    9 type  2   force =     0.00001507   -0.00004206   -0.00014774
     atom   10 type  1   force =     0.00018103    0.00015016    0.00025388
     atom   11 type  2   force =     0.00002339   -0.00017647    0.00039783
     atom   12 type  2   force =    -0.00000697    0.00002308   -0.00019872
     atom   13 type  1   force =    -0.00056336   -0.00023014    0.00020662
     atom   14 type  2   force =    -0.00014202   -0.00006489    0.00041477
     atom   15 type  2   force =    -0.00011704   -0.00019242   -0.00033912
     atom   16 type  1   force =    -0.00004451    0.00064758    0.00051917
     atom   17 type  2   force =    -0.00011807    0.00007007    0.00055550
     atom   18 type  2   force =    -0.00025190   -0.00008387   -0.00024573
     atom   19 type  1   force =     0.00010259    0.00004422    0.00045099
     atom   20 type  2   force =     0.00001364    0.00015727   -0.00010247
     atom   21 type  1   force =    -0.00032124   -0.00027520   -0.00000175
     atom   22 type  2   force =    -0.00007103   -0.00009473    0.00035804
     atom   23 type  2   force =    -0.00007076    0.00011023   -0.00018457
     atom   24 type  1   force =    -0.00002134   -0.00010048    0.00021210
     atom   25 type  2   force =    -0.00002904   -0.00006173    0.00036600
     atom   26 type  2   force =    -0.00006672   -0.00007551   -0.00027424
     atom   27 type  1   force =    -0.00029023    0.00001778    0.00031903
     atom   28 type  2   force =     0.00000756    0.00007105    0.00038092
     atom   29 type  2   force =     0.00002470   -0.00005249   -0.00018972
     atom   30 type  1   force =     0.00001187   -0.00009402    0.00035433
     atom   31 type  2   force =     0.00005370    0.00001331    0.00044653
     atom   32 type  2   force =    -0.00002922    0.00002014   -0.00015650
     atom   33 type  1   force =     0.00010875    0.00002643    0.00003428
     atom   34 type  2   force =     0.00004856   -0.00003556    0.00043770
     atom   35 type  2   force =     0.00007890    0.00014270   -0.00028130
     atom   36 type  3   force =    -0.00003617    0.00008556    0.00017663

     Total force =     0.328637     Total SCF correction =     0.002543

     BFGS Geometry Optimization
     Energy error            =      0.0E+00 Ry
     Gradient error          =      2.1E-01 Ry/Bohr

     number of scf cycles    =   1
     number of bfgs steps    =   0

     energy             new  =   -2246.1735952628 Ry

     new trust radius        =       0.2240072609 bohr
     new conv_thr            =       0.0000010000 Ry


ATOMIC_POSITIONS (angstrom)
Mo            6.5910018812        1.7972163017        2.8162471706
S             8.0667757197        0.7661626867        4.4261494761
S             8.1871053020        0.8171508313        1.2752865053
Mo            8.0937001044        4.4947334658        2.7154851456
S             6.4974642240        3.7202781096        4.3436320046
S             6.5523823282        3.5162889699        1.1222306137
Mo            6.4928927764        7.2117421249        2.6669512802
S             8.0835977794        6.3406563447        4.2518030957
S             8.0876979127        6.3089128978        1.0904490247
Mo            8.1673652203        9.9058800761        2.8300397683
S             6.4962140470        8.9404168335        4.3791947633
S             6.6157659932        9.0487201043        1.1416980404
Mo            3.4346533316        1.7434056583        2.7697809263
S             4.9720064823        0.8133233803        4.3591906988
S             5.0503366552        0.8481324364        1.2215611068
Mo            4.9783527929        4.5192998181        2.6335488537
S             3.4307780074        3.6714708500        4.2805334099
S             3.4371718869        3.5460777446        1.0626969298
Mo            3.4566318534        7.2095500731        2.6276007937
S             4.9848592785        6.3249601154        1.0382313805
Mo            5.0102574107        9.9055575145        2.7456109169
S             3.4691669083        8.9435766478        4.3241652541
S             3.4081532884        9.0648436444        1.1000832100
Mo            0.3102741836        1.7619381025        2.8224850580
S             1.9208015846        0.7917110114        4.3710331354
S             1.8537084227        0.8556477171        1.2083464616
Mo            1.8581389942        4.5000795719        2.6674586855
S             0.2763512762        3.6726777862        4.3255419382
S             0.2332807682        3.5205509587        1.1693591104
Mo            0.2677982137        7.2217569231        2.6989149553
S             1.9025875662        6.3136609614        4.2319520084
S             1.8571158274        6.3132554582        1.0476437280
Mo            1.8514804948        9.9401840523        2.7693688369
S             0.2977384471        9.0661808400        4.4104334586
S             0.2716126761        9.0469386038        1.1566234419
O             9.4638873730        1.2323300169        5.1894163894



     Writing config-only to output data dir ./MoS2-V-O.save/
     NEW-OLD atomic charge density approx. for the potential

     negative rho (up, down):  1.667E-04 0.000E+00

     total cpu time spent up to now is      100.5 secs

     Self-consistent Calculation

     iteration #  1     ecut=    80.00 Ry     beta= 0.70
     Davidson diagonalization with overlap
     c_bands:  1 eigenvalues not converged
     ethr =  1.00E-06,  avg # of iterations = 20.0

     negative rho (up, down):  1.281E-03 0.000E+00

     total cpu time spent up to now is      113.7 secs

     total energy              =   -2246.23486437 Ry
     estimated scf accuracy    <       0.01795406 Ry

     iteration #  2     ecut=    80.00 Ry     beta= 0.70
     Davidson diagonalization with overlap
     ethr =  5.75E-06,  avg # of iterations =  9.0

     negative rho (up, down):  2.402E-03 0.000E+00

     total cpu time spent up to now is      128.4 secs

     total energy              =   -2246.23495806 Ry
     estimated scf accuracy    <       0.00443641 Ry

     iteration #  3     ecut=    80.00 Ry     beta= 0.70
     Davidson diagonalization with overlap
     ethr =  1.42E-06,  avg # of iterations =  4.0

     negative rho (up, down):  3.437E-03 0.000E+00

     total cpu time spent up to now is      140.6 secs

     total energy              =   -2246.23511283 Ry
     estimated scf accuracy    <       0.00224412 Ry

     iteration #  4     ecut=    80.00 Ry     beta= 0.70
     Davidson diagonalization with overlap
     ethr =  7.19E-07,  avg # of iterations =  2.0

     negative rho (up, down):  3.586E-03 0.000E+00

     total cpu time spent up to now is      150.5 secs

     total energy              =   -2246.23518889 Ry
     estimated scf accuracy    <       0.00040274 Ry

     iteration #  5     ecut=    80.00 Ry     beta= 0.70
     Davidson diagonalization with overlap
     ethr =  1.29E-07,  avg # of iterations =  6.0

     negative rho (up, down):  3.222E-03 0.000E+00

     total cpu time spent up to now is      160.7 secs

     total energy              =   -2246.23522781 Ry
     estimated scf accuracy    <       0.00005434 Ry

     iteration #  6     ecut=    80.00 Ry     beta= 0.70
     Davidson diagonalization with overlap
     ethr =  1.74E-08,  avg # of iterations =  4.0

     negative rho (up, down):  2.678E-03 0.000E+00

     total cpu time spent up to now is      169.4 secs

     total energy              =   -2246.23523138 Ry
     estimated scf accuracy    <       0.00001548 Ry

     iteration #  7     ecut=    80.00 Ry     beta= 0.70
     Davidson diagonalization with overlap
     ethr =  4.96E-09,  avg # of iterations =  6.0

     negative rho (up, down):  1.731E-03 0.000E+00

     total cpu time spent up to now is      179.0 secs

     total energy              =   -2246.23522583 Ry
     estimated scf accuracy    <       0.00000705 Ry

     iteration #  8     ecut=    80.00 Ry     beta= 0.70
     Davidson diagonalization with overlap
     ethr =  2.26E-09,  avg # of iterations =  5.0

     negative rho (up, down):  1.163E-03 0.000E+00

     total cpu time spent up to now is      189.0 secs

     total energy              =   -2246.23522290 Ry
     estimated scf accuracy    <       0.00000195 Ry

     iteration #  9     ecut=    80.00 Ry     beta= 0.70
     Davidson diagonalization with overlap
     ethr =  6.26E-10,  avg # of iterations =  4.0

     negative rho (up, down):  1.875E-04 0.000E+00

     total cpu time spent up to now is      192.6 secs

     End of self-consistent calculation

          k = 0.0000 0.0000 0.0000 (105382 PWs)   bands (ev):

   -63.1366 -62.9522 -62.9055 -62.9028 -62.8820 -62.8577 -62.8480 -62.8440
   -62.8317 -62.8106 -62.8005 -62.7485 -37.4122 -37.3629 -37.2683 -37.2268
   -37.2174 -37.1919 -37.1580 -37.1326 -37.1234 -37.1174 -37.1063 -37.1017
   -37.0903 -37.0850 -37.0820 -37.0728 -37.0576 -37.0443 -37.0334 -37.0165
   -37.0061 -36.9885 -36.9839 -36.9772 -36.9746 -36.9666 -36.9552 -36.9364
   -36.9241 -36.9177 -36.9029 -36.9011 -36.8771 -36.8184 -36.7823 -36.7732
   -21.5776 -15.9692 -15.2434 -15.1812 -15.1362 -14.9058 -14.7973 -14.7346
   -14.5453 -14.5028 -14.4925 -14.4338 -14.3958 -14.3357 -14.2666 -14.2077
   -14.1704 -14.1481 -14.0664 -14.0320 -13.9169 -13.8782 -13.8675 -13.5932
    -8.3787  -7.9069  -7.6608  -7.4831  -7.3694  -7.3252  -7.2654  -7.1984
    -7.1587  -6.9709  -6.8970  -6.8194  -6.8060  -6.7269  -6.6712  -6.5796
    -6.5389  -6.5137  -6.4522  -6.2881  -6.0867  -6.0620  -5.9559  -5.9150
    -5.8848  -5.8551  -5.7829  -5.7422  -5.7029  -5.6790  -5.6414  -5.5916
    -5.5623  -5.4968  -5.4161  -5.3107  -5.2599  -5.2125  -5.1415  -5.0529
    -5.0088  -4.9720  -4.8990  -4.8353  -4.6808  -4.6081  -4.4211  -4.4115
    -4.3469  -4.2873  -4.2055  -4.1236  -4.0459  -3.9842  -3.8863  -3.8117
    -3.7846  -3.7496  -3.7070  -3.6422  -3.6346  -3.5856  -3.5645  -3.5219
    -3.4797  -3.4547  -3.2687  -3.2574  -3.1852  -3.0375  -2.9384  -2.8913
    -2.8608  -2.7897  -2.7843  -2.7518  -2.6770  -2.6201  -2.3964  -2.2930
    -2.0994  -2.0559  -1.9004  -1.2652  -0.9009  -0.8032  -0.6884  -0.2532
    -0.1741  -0.1132  -0.0383   0.0142   0.0919   0.1540   0.1949   0.2231
     0.2309   0.3051   0.4103   0.4493   0.4814   0.5096   0.5427   0.6068
     0.6327   0.6769   0.6913   0.7278   0.7868   0.8384   0.8878   0.9204
     1.0449   1.1384   1.2775

     the Fermi energy is    -1.0843 ev

!    total energy              =   -2246.23521923 Ry
     estimated scf accuracy    <       0.00000072 Ry
     smearing contrib. (-TS)   =      -0.00195888 Ry
     internal energy E=F+TS    =   -2246.23326035 Ry

     The total energy is F=E-TS. E is the sum of the following terms:
     one-electron contribution =  -18496.71553637 Ry
     hartree contribution      =    9236.67756513 Ry
     xc contribution           =    -392.12641682 Ry
     ewald contribution        =    7415.79774111 Ry
     one-center paw contrib.   =      -9.86661340 Ry

     convergence has been achieved in   9 iterations

     negative rho (up, down):  1.875E-04 0.000E+00

     Forces acting on atoms (cartesian axes, Ry/au):

     atom    1 type  1   force =     0.00554867    0.00705820   -0.01100065
     atom    2 type  2   force =    -0.02523758   -0.01921534    0.06766363
     atom    3 type  2   force =    -0.00414169    0.01173818   -0.00947031
     atom    4 type  1   force =     0.00261807    0.00166428   -0.00157785
     atom    5 type  2   force =    -0.00175403   -0.00298038   -0.00467158
     atom    6 type  2   force =    -0.00231573    0.01107912   -0.00299764
     atom    7 type  1   force =     0.00483114   -0.01111335   -0.00191500
     atom    8 type  2   force =     0.00138488   -0.00516544    0.01227735
     atom    9 type  2   force =     0.01088392    0.00656037    0.00715785
     atom   10 type  1   force =     0.00532104   -0.00061586   -0.01799639
     atom   11 type  2   force =     0.00283227   -0.00573427   -0.01044204
     atom   12 type  2   force =    -0.00437279    0.00095789    0.00125415
     atom   13 type  1   force =     0.02044300   -0.00011661   -0.01196372
     atom   14 type  2   force =    -0.00088253   -0.00200709    0.00739839
     atom   15 type  2   force =    -0.00475533    0.00211676   -0.00979458
     atom   16 type  1   force =    -0.00153252    0.00877779    0.00125665
     atom   17 type  2   force =     0.00603119   -0.00017358    0.00138026
     atom   18 type  2   force =    -0.00101674   -0.00063772    0.00607927
     atom   19 type  1   force =     0.00339285   -0.00753672   -0.00112692
     atom   20 type  2   force =     0.00276159   -0.00332655   -0.00258302
     atom   21 type  1   force =    -0.00178932    0.00444674    0.00310325
     atom   22 type  2   force =    -0.00164321   -0.00263126   -0.00334438
     atom   23 type  2   force =     0.00151067   -0.00144776    0.00442438
     atom   24 type  1   force =     0.01774090    0.00328334    0.01094431
     atom   25 type  2   force =     0.06145238    0.01174822   -0.03111246
     atom   26 type  2   force =    -0.00514066    0.00136064   -0.00905531
     atom   27 type  1   force =    -0.00421856    0.00642034    0.00621554
     atom   28 type  2   force =     0.00476101    0.01655044   -0.02029945
     atom   29 type  2   force =     0.00426661   -0.00192774   -0.00948363
     atom   30 type  1   force =    -0.00144974    0.00353033    0.00182125
     atom   31 type  2   force =     0.00021196    0.00355119    0.01253016
     atom   32 type  2   force =    -0.00781184    0.00433292    0.00542736
     atom   33 type  1   force =     0.00816307   -0.00565658   -0.00501104
     atom   34 type  2   force =     0.00278103   -0.02969506   -0.01047900
     atom   35 type  2   force =    -0.00567915    0.00659426    0.00474311
     atom   36 type  3   force =    -0.09319482   -0.01178975    0.02064807
     The non-local contrib.  to forces
     atom    1 type  1   force =     0.00838618    0.02763882    0.00127951
     atom    2 type  2   force =     0.51318113    0.19366404   -0.07873276
     atom    3 type  2   force =    -0.00408340   -0.00440023    0.26003563
     atom    4 type  1   force =     0.00405990    0.01031293    0.00780054
     atom    5 type  2   force =     0.01044204   -0.03168076   -0.25437150
     atom    6 type  2   force =    -0.00667982    0.00258185    0.26334771
     atom    7 type  1   force =    -0.01809531    0.00259511   -0.01863517
     atom    8 type  2   force =     0.00314648   -0.00455235   -0.25814923
     atom    9 type  2   force =     0.00729621   -0.01169502    0.27558380
     atom   10 type  1   force =    -0.00339097    0.01795738   -0.00398989
     atom   11 type  2   force =    -0.00259931    0.00261522   -0.26040010
     atom   12 type  2   force =    -0.01128658   -0.01696667    0.26282986
     atom   13 type  1   force =    -0.00855955    0.00459972   -0.00402857
     atom   14 type  2   force =    -0.01370201   -0.01246682   -0.26068472
     atom   15 type  2   force =    -0.00336297   -0.00687961    0.26112352
     atom   16 type  1   force =    -0.00077888    0.02625624   -0.03177853
     atom   17 type  2   force =     0.00927990   -0.02092176   -0.24458369
     atom   18 type  2   force =    -0.00629882    0.00746655    0.26537656
     atom   19 type  1   force =     0.01547269   -0.00136973   -0.01510107
     atom   20 type  2   force =     0.00081611   -0.01952130    0.26276243
     atom   21 type  1   force =    -0.00897985    0.01794911    0.00223013
     atom   22 type  2   force =    -0.00962682    0.00089804   -0.26154821
     atom   23 type  2   force =     0.00771887   -0.01487536    0.26784539
     atom   24 type  1   force =     0.02641427    0.01337397   -0.03123374
     atom   25 type  2   force =    -0.02289964   -0.01426692   -0.26196925
     atom   26 type  2   force =    -0.00589708   -0.00508523    0.26286633
     atom   27 type  1   force =    -0.00455820    0.00396412    0.00520221
     atom   28 type  2   force =    -0.00896371    0.02682048   -0.27662345
     atom   29 type  2   force =     0.01109414   -0.00694664    0.26931554
     atom   30 type  1   force =    -0.00138333    0.01625160    0.00498901
     atom   31 type  2   force =    -0.00559916    0.00020475   -0.25628351
     atom   32 type  2   force =    -0.00021600   -0.00719759    0.27144673
     atom   33 type  1   force =     0.00332605    0.00316190    0.00341510
     atom   34 type  2   force =     0.00100758   -0.02397259   -0.27832956
     atom   35 type  2   force =    -0.00574304   -0.01128310    0.26560084
     atom   36 type  3   force =    -1.37494893   -0.49807708   -1.07034179
     The ionic contribution  to forces
     atom    1 type  1   force =    -1.60111059    0.70374788    2.91462828
     atom    2 type  2   force =    -5.85540716   -1.45210209   35.80209384
     atom    3 type  2   force =    -0.38932262   -0.15152504  -37.31236873
     atom    4 type  1   force =    -0.43110469    2.00233659   -1.00116936
     atom    5 type  2   force =    -1.57203959    2.18562528   38.47839335
     atom    6 type  2   force =     0.12573296   -0.25976086  -38.74272431
     atom    7 type  1   force =    -2.89987651   -2.74283866    1.54126648
     atom    8 type  2   force =    -1.15076591    0.19341759   37.32367203
     atom    9 type  2   force =     0.29404842   -0.00879236  -38.51826152
     atom   10 type  1   force =    -1.95846318   -2.36448276    2.46845894
     atom   11 type  2   force =    -0.92264154   -2.23972569   38.81178492
     atom   12 type  2   force =     0.25787263    0.49348479  -38.39002080
     atom   13 type  1   force =     1.71688612    1.56879474    0.56721547
     atom   14 type  2   force =    -0.03320741   -0.03651333   38.31108372
     atom   15 type  2   force =     0.22247429   -0.13542885  -37.54025514
     atom   16 type  1   force =    -0.15828242    4.39715974   -0.42149815
     atom   17 type  2   force =     1.25945904    1.99116834   37.67497830
     atom   18 type  2   force =    -0.07691336   -0.40972545  -39.12331195
     atom   19 type  1   force =     2.87329738   -2.47752401   -0.30928501
     atom   20 type  2   force =     0.19997109   -0.13463842  -39.00352205
     atom   21 type  1   force =     0.06348334   -0.74922303    0.08303140
     atom   22 type  2   force =     0.74714936   -2.25282550   38.23214217
     atom   23 type  2   force =     0.03524570    0.44302051  -38.82795207
     atom   24 type  1   force =     0.03287546    2.09571056   -1.88795341
     atom   25 type  2   force =     3.75238738   -0.56212596   37.33368847
     atom   26 type  2   force =     0.06338220   -0.09160221  -38.42599741
     atom   27 type  1   force =     0.77686009    1.60362074   -3.42776291
     atom   28 type  2   force =     0.24759344    3.23451125   37.20901970
     atom   29 type  2   force =    -0.21625790    0.10810396  -38.30476252
     atom   30 type  1   force =    -0.17694589   -1.33028479   -1.19012048
     atom   31 type  2   force =     1.40248670    0.15484950   37.24602986
     atom   32 type  2   force =    -0.40336341    0.01974350  -39.12422489
     atom   33 type  1   force =     1.60220824   -2.48834383   -0.18128129
     atom   34 type  2   force =     0.38231503   -2.76650415   38.84569055
     atom   35 type  2   force =    -0.19318632    0.18395803  -38.53840420
     atom   36 type  3   force =     1.98315964    1.27471398   47.42769870
     The local contribution  to forces
     atom    1 type  1   force =     1.59869575   -0.72429709   -2.92679024
     atom    2 type  2   force =     5.34508743    1.24965555  -35.66436813
     atom    3 type  2   force =     0.38924989    0.16763155   37.06309470
     atom    4 type  1   force =     0.42975816   -2.01093473    0.99179114
     atom    5 type  2   force =     1.56071418   -2.15858654  -38.24884419
     atom    6 type  2   force =    -0.12173464    0.26903379   38.49704762
     atom    7 type  1   force =     2.92247363    2.72895691   -1.52468972
     atom    8 type  2   force =     1.14906413   -0.19460230  -37.07344630
     atom    9 type  2   force =    -0.29036900    0.02643348   38.27066704
     atom   10 type  1   force =     1.96716154    2.34580222   -2.48252203
     atom   11 type  2   force =     0.92769578    2.23167977  -38.58210712
     atom   12 type  2   force =    -0.25209383   -0.47695026   38.14900772
     atom   13 type  1   force =    -1.68851289   -1.57378320   -0.57495797
     atom   14 type  2   force =     0.04517157    0.04651093  -38.06307354
     atom   15 type  2   force =    -0.22428196    0.14382398   37.28964388
     atom   16 type  1   force =     0.15739376   -4.41394138    0.45451348
     atom   17 type  2   force =    -1.26240567   -1.97132239  -37.44858589
     atom   18 type  2   force =     0.08198258    0.40274870   38.88434747
     atom   19 type  1   force =    -2.88528549    2.47136425    0.32318894
     atom   20 type  2   force =    -0.19821546    0.15017172   38.75917630
     atom   21 type  1   force =    -0.05680521    0.73528161   -0.08212581
     atom   22 type  2   force =    -0.73942729    2.24959901  -37.99442929
     atom   23 type  2   force =    -0.04087886   -0.43094689   38.58536810
     atom   24 type  1   force =    -0.04117356   -2.10549101    1.92980610
     atom   25 type  2   force =    -3.66825569    0.58740287  -37.12393914
     atom   26 type  2   force =    -0.06292450    0.09787977   38.17486035
     atom   27 type  1   force =    -0.77655475   -1.60105694    3.42891451
     atom   28 type  2   force =    -0.23418412   -3.24354934  -36.97410311
     atom   29 type  2   force =     0.21020191   -0.10331895   38.04679737
     atom   30 type  1   force =     0.17702933    1.31746636    1.18686698
     atom   31 type  2   force =    -1.39684125   -0.15165074  -36.99751750
     atom   32 type  2   force =     0.39616983   -0.00854249   38.87901742
     atom   33 type  1   force =    -1.59688756    2.47942031    0.17290878
     atom   34 type  2   force =    -0.38074301    2.76005582  -38.59893265
     atom   35 type  2   force =     0.19310918   -0.16704377   38.29826413
     atom   36 type  3   force =    -0.71676998   -0.79386507  -46.34771043
     The core correction contribution to forces
     atom    1 type  1   force =     0.00000000    0.00000000    0.00000000
     atom    2 type  2   force =    -0.02804042   -0.01042100    0.00889362
     atom    3 type  2   force =     0.00013117    0.00008080   -0.02044129
     atom    4 type  1   force =     0.00000000    0.00000000    0.00000000
     atom    5 type  2   force =    -0.00088024    0.00182312    0.02046230
     atom    6 type  2   force =     0.00044284   -0.00064417   -0.02092490
     atom    7 type  1   force =     0.00000000    0.00000000    0.00000000
     atom    8 type  2   force =    -0.00006320    0.00055187    0.02055886
     atom    9 type  2   force =    -0.00010932    0.00063442   -0.02101708
     atom   10 type  1   force =     0.00000000    0.00000000    0.00000000
     atom   11 type  2   force =     0.00021059   -0.00040146    0.02063108
     atom   12 type  2   force =     0.00102330    0.00132142   -0.02082847
     atom   13 type  1   force =     0.00000000    0.00000000    0.00000000
     atom   14 type  2   force =     0.00070366    0.00029850    0.02044775
     atom   15 type  2   force =     0.00031621    0.00043229   -0.02056627
     atom   16 type  1   force =     0.00000000    0.00000000    0.00000000
     atom   17 type  2   force =    -0.00037385    0.00105842    0.01994370
     atom   18 type  2   force =     0.00013746   -0.00102378   -0.02059444
     atom   19 type  1   force =     0.00000000    0.00000000    0.00000000
     atom   20 type  2   force =     0.00007517    0.00074159   -0.02112201
     atom   21 type  1   force =     0.00000000    0.00000000    0.00000000
     atom   22 type  2   force =     0.00030163   -0.00039038    0.02070611
     atom   23 type  2   force =    -0.00053082    0.00123297   -0.02090218
     atom   24 type  1   force =     0.00000000    0.00000000    0.00000000
     atom   25 type  2   force =     0.00024813    0.00072816    0.02133022
     atom   26 type  2   force =     0.00022117    0.00019750   -0.02091978
     atom   27 type  1   force =     0.00000000    0.00000000    0.00000000
     atom   28 type  2   force =     0.00040918   -0.00118366    0.02156516
     atom   29 type  2   force =    -0.00074541    0.00014503   -0.02092819
     atom   30 type  1   force =     0.00000000    0.00000000    0.00000000
     atom   31 type  2   force =     0.00031558    0.00016653    0.02059611
     atom   32 type  2   force =    -0.00027248    0.00041872   -0.02093226
     atom   33 type  1   force =     0.00000000    0.00000000    0.00000000
     atom   34 type  2   force =     0.00031044    0.00060619    0.02140968
     atom   35 type  2   force =     0.00018115    0.00091368   -0.02092461
     atom   36 type  3   force =     0.01564942    0.00550129    0.01118458
     The Hubbard contrib.    to forces
     atom    1 type  1   force =     0.00000000    0.00000000    0.00000000
     atom    2 type  2   force =     0.00000000    0.00000000    0.00000000
     atom    3 type  2   force =     0.00000000    0.00000000    0.00000000
     atom    4 type  1   force =     0.00000000    0.00000000    0.00000000
     atom    5 type  2   force =     0.00000000    0.00000000    0.00000000
     atom    6 type  2   force =     0.00000000    0.00000000    0.00000000
     atom    7 type  1   force =     0.00000000    0.00000000    0.00000000
     atom    8 type  2   force =     0.00000000    0.00000000    0.00000000
     atom    9 type  2   force =     0.00000000    0.00000000    0.00000000
     atom   10 type  1   force =     0.00000000    0.00000000    0.00000000
     atom   11 type  2   force =     0.00000000    0.00000000    0.00000000
     atom   12 type  2   force =     0.00000000    0.00000000    0.00000000
     atom   13 type  1   force =     0.00000000    0.00000000    0.00000000
     atom   14 type  2   force =     0.00000000    0.00000000    0.00000000
     atom   15 type  2   force =     0.00000000    0.00000000    0.00000000
     atom   16 type  1   force =     0.00000000    0.00000000    0.00000000
     atom   17 type  2   force =     0.00000000    0.00000000    0.00000000
     atom   18 type  2   force =     0.00000000    0.00000000    0.00000000
     atom   19 type  1   force =     0.00000000    0.00000000    0.00000000
     atom   20 type  2   force =     0.00000000    0.00000000    0.00000000
     atom   21 type  1   force =     0.00000000    0.00000000    0.00000000
     atom   22 type  2   force =     0.00000000    0.00000000    0.00000000
     atom   23 type  2   force =     0.00000000    0.00000000    0.00000000
     atom   24 type  1   force =     0.00000000    0.00000000    0.00000000
     atom   25 type  2   force =     0.00000000    0.00000000    0.00000000
     atom   26 type  2   force =     0.00000000    0.00000000    0.00000000
     atom   27 type  1   force =     0.00000000    0.00000000    0.00000000
     atom   28 type  2   force =     0.00000000    0.00000000    0.00000000
     atom   29 type  2   force =     0.00000000    0.00000000    0.00000000
     atom   30 type  1   force =     0.00000000    0.00000000    0.00000000
     atom   31 type  2   force =     0.00000000    0.00000000    0.00000000
     atom   32 type  2   force =     0.00000000    0.00000000    0.00000000
     atom   33 type  1   force =     0.00000000    0.00000000    0.00000000
     atom   34 type  2   force =     0.00000000    0.00000000    0.00000000
     atom   35 type  2   force =     0.00000000    0.00000000    0.00000000
     atom   36 type  3   force =     0.00000000    0.00000000    0.00000000
     The SCF correction term to forces
     atom    1 type  1   force =    -0.00042454   -0.00003266   -0.00009855
     atom    2 type  2   force =    -0.00006041   -0.00001308   -0.00020329
     atom    3 type  2   force =    -0.00011859   -0.00005012    0.00022903
     atom    4 type  1   force =    -0.00009716   -0.00005176    0.00001950
     atom    5 type  2   force =     0.00000772   -0.00016271   -0.00029188
     atom    6 type  2   force =    -0.00007893   -0.00013272    0.00027588
     atom    7 type  1   force =     0.00032747    0.00017205    0.00016307
     atom    8 type  2   force =     0.00000152    0.00001850   -0.00033836
     atom    9 type  2   force =     0.00001575   -0.00002138    0.00020526
     atom   10 type  1   force =     0.00001179    0.00010606    0.00007625
     atom   11 type  2   force =     0.00016488    0.00009665   -0.00033116
     atom   12 type  2   force =     0.00010982    0.00006736    0.00028549
     atom   13 type  1   force =     0.00062745    0.00027088   -0.00017298
     atom   14 type  2   force =     0.00014980    0.00016239   -0.00035517
     atom   15 type  2   force =     0.00009724    0.00016771    0.00027907
     atom   16 type  1   force =     0.00013315   -0.00069805    0.00003952
     atom   17 type  2   force =     0.00006991   -0.00015743   -0.00035250
     atom   18 type  2   force =     0.00007354   -0.00010498    0.00028129
     atom   19 type  1   force =    -0.00009359   -0.00000847    0.00008987
     atom   20 type  2   force =     0.00011281   -0.00008138    0.00014197
     atom   21 type  1   force =     0.00051054    0.00043780   -0.00001282
     atom   22 type  2   force =    -0.00004195    0.00008632   -0.00019551
     atom   23 type  2   force =    -0.00004608    0.00011976    0.00008479
     atom   24 type  1   force =    -0.00037713   -0.00031143    0.00034501
     atom   25 type  2   force =    -0.00002966    0.00000883   -0.00020311
     atom   26 type  2   force =     0.00007568   -0.00003043    0.00015484
     atom   27 type  1   force =     0.00003244   -0.00010882   -0.00011862
     atom   28 type  2   force =    -0.00009564   -0.00004954   -0.00013809
     atom   29 type  2   force =    -0.00002800    0.00008762    0.00011383
     atom   30 type  1   force =    -0.00015172    0.00009592    0.00010540
     atom   31 type  2   force =    -0.00015178   -0.00002010   -0.00027514
     atom   32 type  2   force =    -0.00013164   -0.00009046    0.00014001
     atom   33 type  1   force =    -0.00048553    0.00010380   -0.00003398
     atom   34 type  2   force =    -0.00011088    0.00011842   -0.00029736
     atom   35 type  2   force =    -0.00004199    0.00004818    0.00022660
     atom   36 type  3   force =    -0.00028683   -0.00006411   -0.00016334

     Total force =     0.159621     Total SCF correction =     0.002113
     Energy error            =      6.2E-02 Ry
     Gradient error          =      9.3E-02 Ry/Bohr

     number of scf cycles    =   2
     number of bfgs steps    =   1

     energy             old  =   -2246.1735952628 Ry
     energy             new  =   -2246.2352192303 Ry

     CASE: energy            _new < energy            _old

     new trust radius        =       0.1361307622 bohr
     new conv_thr            =       0.0000000932 Ry


ATOMIC_POSITIONS (angstrom)
Mo            6.5998447546        1.8049135687        2.8064918312
S             8.0157350084        0.7396820674        4.4695429637
S             8.1824017814        0.8269489990        1.2680505265
Mo            8.0950283160        4.4957646775        2.7136936381
S             6.4955185370        3.7175951560        4.3395238258
S             6.5505104535        3.5252207313        1.1204866084
Mo            6.4970731362        7.2021262171        2.6641291399
S             8.0851153614        6.3361552266        4.2630258140
S             8.0971841505        6.3146689491        1.0973433925
Mo            8.1730607874        9.9066021335        2.8136728251
S             6.4984612720        8.9357464195        4.3708934203
S             6.6121221019        9.0493737621        1.1431023326
Mo            3.4525507814        1.7422319482        2.7595886854
S             4.9704328956        0.8108441733        4.3668871593
S             5.0447940019        0.8501474420        1.2133339248
Mo            4.9768785947        4.5271518840        2.6346075875
S             3.4357816350        3.6713131786        4.2817253201
S             3.4362501700        3.5449812881        1.0681675730
Mo            3.4597913936        7.2023401523        2.6258867066
S             4.9872368579        6.3220916270        1.0367775271
Mo            5.0084229319        9.9097992487        2.7484009733
S             3.4674980906        8.9417347861        4.3214530042
S             3.4090947892        9.0638147311        1.1043274588
Mo            0.3267023379        1.7686173594        2.8216108025
S             1.9842451083        0.7993912660        4.3415131356
S             1.8480289313        0.8569489806        1.2018680255
Mo            1.8544855052        4.5058028113        2.6739209021
S             0.2808620475        3.6895594931        4.3080353711
S             0.2368119195        3.5171760200        1.1620950131
Mo            0.2657790942        7.2257314911        2.6992950698
S             1.9028392867        6.3163398905        4.2433978043
S             1.8502282652        6.3170974403        1.0522826847
Mo            1.8592268251        9.9363540655        2.7648608053
S             0.3001910375        9.0386596424        4.4022533655
S             0.2661631471        9.0524717648        1.1617649003
O             9.4027557040        1.2298700405        5.2267374585



     Writing config-only to output data dir ./MoS2-V-O.save/
     NEW-OLD atomic charge density approx. for the potential

     negative rho (up, down):  1.709E-04 0.000E+00

     total cpu time spent up to now is      199.8 secs

     Self-consistent Calculation

     iteration #  1     ecut=    80.00 Ry     beta= 0.70
     Davidson diagonalization with overlap
     ethr =  1.00E-06,  avg # of iterations = 12.0

     negative rho (up, down):  3.567E-04 0.000E+00

     total cpu time spent up to now is      214.8 secs

     total energy              =   -2246.26440338 Ry
     estimated scf accuracy    <       0.01241628 Ry

     iteration #  2     ecut=    80.00 Ry     beta= 0.70
     Davidson diagonalization with overlap
     ethr =  3.98E-06,  avg # of iterations =  5.0

     negative rho (up, down):  4.782E-04 0.000E+00

     total cpu time spent up to now is      224.9 secs

     total energy              =   -2246.26623670 Ry
     estimated scf accuracy    <       0.00495363 Ry

     iteration #  3     ecut=    80.00 Ry     beta= 0.70
     Davidson diagonalization with overlap
     ethr =  1.59E-06,  avg # of iterations =  4.0

     negative rho (up, down):  6.969E-04 0.000E+00

     total cpu time spent up to now is      238.5 secs

     total energy              =   -2246.26680989 Ry
     estimated scf accuracy    <       0.00050526 Ry

     iteration #  4     ecut=    80.00 Ry     beta= 0.70
     Davidson diagonalization with overlap
     ethr =  1.62E-07,  avg # of iterations =  2.0

     negative rho (up, down):  7.746E-04 0.000E+00

     total cpu time spent up to now is      250.6 secs

     total energy              =   -2246.26683384 Ry
     estimated scf accuracy    <       0.00009579 Ry

     iteration #  5     ecut=    80.00 Ry     beta= 0.70
     Davidson diagonalization with overlap
     ethr =  3.07E-08,  avg # of iterations =  5.0

     negative rho (up, down):  7.241E-04 0.000E+00

     total cpu time spent up to now is      260.6 secs

     total energy              =   -2246.26683949 Ry
     estimated scf accuracy    <       0.00002973 Ry

     iteration #  6     ecut=    80.00 Ry     beta= 0.70
     Davidson diagonalization with overlap
     ethr =  9.53E-09,  avg # of iterations =  8.0

     negative rho (up, down):  6.328E-04 0.000E+00

     total cpu time spent up to now is      271.3 secs

     total energy              =   -2246.26684495 Ry
     estimated scf accuracy    <       0.00000280 Ry

     iteration #  7     ecut=    80.00 Ry     beta= 0.70
     Davidson diagonalization with overlap
     ethr =  8.96E-10,  avg # of iterations =  6.0

     negative rho (up, down):  5.139E-04 0.000E+00

     total cpu time spent up to now is      283.2 secs

     total energy              =   -2246.26684522 Ry
     estimated scf accuracy    <       0.00000129 Ry

     iteration #  8     ecut=    80.00 Ry     beta= 0.70
     Davidson diagonalization with overlap
     ethr =  4.14E-10,  avg # of iterations =  3.0

     negative rho (up, down):  3.812E-04 0.000E+00

     total cpu time spent up to now is      293.8 secs

     total energy              =   -2246.26684513 Ry
     estimated scf accuracy    <       0.00000044 Ry

     iteration #  9     ecut=    80.00 Ry     beta= 0.70
     Davidson diagonalization with overlap
     ethr =  1.42E-10,  avg # of iterations =  2.0

     negative rho (up, down):  3.089E-04 0.000E+00

     total cpu time spent up to now is      305.9 secs

     total energy              =   -2246.26684511 Ry
     estimated scf accuracy    <       0.00000017 Ry

     iteration # 10     ecut=    80.00 Ry     beta= 0.70
     Davidson diagonalization with overlap
     ethr =  5.32E-11,  avg # of iterations =  2.0

     negative rho (up, down):  1.871E-04 0.000E+00

     total cpu time spent up to now is      309.3 secs

     End of self-consistent calculation

          k = 0.0000 0.0000 0.0000 (105382 PWs)   bands (ev):

   -63.1675 -62.9775 -62.9330 -62.9119 -62.9092 -62.8758 -62.8594 -62.8474
   -62.8416 -62.8292 -62.8188 -62.7959 -37.4218 -37.3945 -37.2902 -37.2450
   -37.2376 -37.2091 -37.1802 -37.1549 -37.1476 -37.1379 -37.1278 -37.1171
   -37.1120 -37.0952 -37.0893 -37.0862 -37.0719 -37.0592 -37.0435 -37.0350
   -37.0290 -37.0114 -37.0057 -37.0017 -36.9993 -36.9938 -36.9850 -36.9604
   -36.9500 -36.9392 -36.9259 -36.9145 -36.8901 -36.8411 -36.8123 -36.7965
   -21.2779 -15.9975 -15.2684 -15.1852 -15.1015 -14.9299 -14.8107 -14.6529
   -14.5636 -14.5191 -14.5063 -14.4630 -14.4240 -14.3607 -14.2761 -14.2204
   -14.1866 -14.1686 -14.0919 -14.0494 -13.9414 -13.8997 -13.8768 -13.5252
    -8.1103  -7.8304  -7.6104  -7.4574  -7.3903  -7.3462  -7.2638  -7.2021
    -7.1610  -6.9598  -6.9112  -6.8409  -6.8231  -6.7546  -6.6571  -6.5865
    -6.5367  -6.5264  -6.4607  -6.3042  -6.1003  -6.0516  -5.9888  -5.9404
    -5.9066  -5.8644  -5.7871  -5.7688  -5.7224  -5.7066  -5.6664  -5.5998
    -5.5777  -5.4855  -5.4322  -5.3257  -5.2895  -5.2052  -5.1591  -5.0880
    -5.0283  -4.9657  -4.9272  -4.8145  -4.6958  -4.6296  -4.4406  -4.3769
    -4.3668  -4.2832  -4.2305  -4.1481  -4.0552  -3.9989  -3.9250  -3.8383
    -3.8162  -3.7572  -3.7180  -3.6598  -3.6278  -3.5854  -3.5621  -3.5355
    -3.5091  -3.4482  -3.2971  -3.2754  -3.1477  -3.0608  -2.9528  -2.9021
    -2.8891  -2.8115  -2.8025  -2.7545  -2.6936  -2.6390  -2.4091  -2.3256
    -2.1257  -2.0777  -1.9528  -1.3731  -0.9028  -0.8272  -0.6739  -0.2754
    -0.1858  -0.1374  -0.0781   0.0029   0.0786   0.1463   0.1855   0.2093
     0.2284   0.2697   0.3966   0.4272   0.4662   0.5040   0.5266   0.5886
     0.6205   0.6450   0.6674   0.7060   0.7775   0.8152   0.8638   0.9116
     1.0275   1.1336   1.2355

     the Fermi energy is    -1.1394 ev

!    total energy              =   -2246.26684515 Ry
     estimated scf accuracy    <       0.00000004 Ry
     smearing contrib. (-TS)   =      -0.00059864 Ry
     internal energy E=F+TS    =   -2246.26624652 Ry

     The total energy is F=E-TS. E is the sum of the following terms:
     one-electron contribution =  -18486.97028303 Ry
     hartree contribution      =    9231.71863303 Ry
     xc contribution           =    -392.09908303 Ry
     ewald contribution        =    7410.94996982 Ry
     one-center paw contrib.   =      -9.86548330 Ry

     convergence has been achieved in  10 iterations

     negative rho (up, down):  1.871E-04 0.000E+00

     Forces acting on atoms (cartesian axes, Ry/au):

     atom    1 type  1   force =    -0.00437897   -0.00312084   -0.00336306
     atom    2 type  2   force =    -0.00418703   -0.01178163    0.06543716
     atom    3 type  2   force =     0.00399256    0.01141038   -0.00489220
     atom    4 type  1   force =     0.00395747    0.00193777   -0.00174995
     atom    5 type  2   force =     0.00063829   -0.00179606   -0.00425080
     atom    6 type  2   force =    -0.00235033    0.01115521   -0.00408564
     atom    7 type  1   force =     0.00224854   -0.00726786    0.00172779
     atom    8 type  2   force =     0.00045966   -0.00409063    0.00720730
     atom    9 type  2   force =     0.00843776    0.00444830    0.00242627
     atom   10 type  1   force =    -0.00232265    0.00141931   -0.00443395
     atom   11 type  2   force =     0.00466659   -0.00426568   -0.01153664
     atom   12 type  2   force =    -0.00443131    0.00001581   -0.00023066
     atom   13 type  1   force =     0.01478110    0.00893751   -0.01404840
     atom   14 type  2   force =     0.00637398    0.00180482    0.00022813
     atom   15 type  2   force =     0.00359608   -0.00079746   -0.01064600
     atom   16 type  1   force =     0.00151973    0.00578179    0.00081378
     atom   17 type  2   force =     0.00482132    0.00036892    0.00047141
     atom   18 type  2   force =    -0.00119574    0.00223435    0.00489401
     atom   19 type  1   force =     0.00163629   -0.00342198    0.00193888
     atom   20 type  2   force =     0.00241041   -0.00232559   -0.00514718
     atom   21 type  1   force =     0.00067583    0.00109109    0.00116015
     atom   22 type  2   force =     0.00011491   -0.00357450   -0.00310908
     atom   23 type  2   force =     0.00293285   -0.00273657    0.00199926
     atom   24 type  1   force =     0.00364977   -0.00787208    0.03125825
     atom   25 type  2   force =     0.02263644    0.01214934   -0.01021719
     atom   26 type  2   force =     0.00046872    0.00050094   -0.00945998
     atom   27 type  1   force =     0.00215390    0.00453386   -0.00219818
     atom   28 type  2   force =     0.00259151    0.00292384   -0.01009069
     atom   29 type  2   force =     0.00495594    0.00206954   -0.00722086
     atom   30 type  1   force =     0.00212032   -0.00135424    0.00551145
     atom   31 type  2   force =     0.00048139    0.00379875    0.00774451
     atom   32 type  2   force =    -0.00543101    0.00328303    0.00465459
     atom   33 type  1   force =     0.00291598   -0.00601138   -0.00500579
     atom   34 type  2   force =     0.00160527   -0.01462155   -0.01139306
     atom   35 type  2   force =    -0.00082765    0.00476510   -0.00128619
     atom   36 type  3   force =    -0.08171791   -0.00959162   -0.01310744
     The non-local contrib.  to forces
     atom    1 type  1   force =     0.01308134    0.02602688    0.00161993
     atom    2 type  2   force =     0.53592359    0.21344898   -0.11194127
     atom    3 type  2   force =     0.00177738   -0.00447291    0.26401212
     atom    4 type  1   force =     0.00319121    0.01052521    0.00769175
     atom    5 type  2   force =     0.01216548   -0.02832766   -0.25453869
     atom    6 type  2   force =    -0.00606258    0.00346747    0.26180919
     atom    7 type  1   force =    -0.01825833    0.00443531   -0.02047291
     atom    8 type  2   force =     0.00292220   -0.00447277   -0.26145313
     atom    9 type  2   force =     0.00407750   -0.01318374    0.27247701
     atom   10 type  1   force =    -0.00207286    0.02157052    0.00095368
     atom   11 type  2   force =    -0.00581051    0.00263369   -0.26123771
     atom   12 type  2   force =    -0.00972233   -0.01763920    0.26393138
     atom   13 type  1   force =    -0.00449235    0.00477205   -0.00660181
     atom   14 type  2   force =    -0.01029099   -0.01368757   -0.26422001
     atom   15 type  2   force =     0.00383223   -0.00757751    0.26034127
     atom   16 type  1   force =    -0.00080912    0.02643618   -0.03289294
     atom   17 type  2   force =     0.00764970   -0.01991858   -0.24619634
     atom   18 type  2   force =    -0.00570187    0.00856236    0.26471505
     atom   19 type  1   force =     0.01573669   -0.00016078   -0.01598626
     atom   20 type  2   force =     0.00042915   -0.01753387    0.26046719
     atom   21 type  1   force =    -0.01025680    0.01914610    0.00190815
     atom   22 type  2   force =    -0.00630377   -0.00000200   -0.26157401
     atom   23 type  2   force =     0.00786410   -0.01623397    0.26684021
     atom   24 type  1   force =     0.02752453    0.01425123   -0.03024905
     atom   25 type  2   force =    -0.00659270   -0.02734219   -0.26577914
     atom   26 type  2   force =     0.00117160   -0.00285840    0.26477004
     atom   27 type  1   force =    -0.00573126    0.00616227    0.00421011
     atom   28 type  2   force =    -0.01160962    0.01319983   -0.27151684
     atom   29 type  2   force =     0.01145604   -0.00429312    0.27141151
     atom   30 type  1   force =    -0.00266127    0.01811134    0.00606618
[...]
     atom   28 type  2   force =    -0.01272017    0.01132002   -0.25986621
     atom   29 type  2   force =     0.01271729    0.00354054    0.26882599
     atom   30 type  1   force =     0.00328523    0.01583416    0.00585405
     atom   31 type  2   force =    -0.01082897   -0.00051860   -0.26515720
     atom   32 type  2   force =     0.00978911   -0.01101434    0.26688636
     atom   33 type  1   force =    -0.00032504    0.00354321    0.00592188
     atom   34 type  2   force =     0.00271867   -0.00027462   -0.26802222
     atom   35 type  2   force =     0.00708381   -0.01993547    0.26185506
     atom   36 type  3   force =    -1.43926806   -0.76569229   -1.10019353
     The ionic contribution  to forces
     atom    1 type  1   force =     0.41417074    1.71113117    1.15441094
     atom    2 type  2   force =    -5.02306705   -2.77892695   39.20815112
     atom    3 type  2   force =     0.37954969    0.04024442  -35.54336980
     atom    4 type  1   force =    -0.78294131    1.06868435   -0.18004182
     atom    5 type  2   force =    -1.38692849    2.22134445   37.94011542
     atom    6 type  2   force =     0.67646018   -0.60254149  -38.53392403
     atom    7 type  1   force =    -2.16390987   -2.47099258   -0.59039157
     atom    8 type  2   force =    -1.28036296    0.31873827   37.67432378
     atom    9 type  2   force =     0.43113038   -0.13943281  -38.35436856
     atom   10 type  1   force =     0.39455569   -0.81622820    1.91638296
     atom   11 type  2   force =    -1.11735790   -2.62311662   38.26226595
     atom   12 type  2   force =     0.51801341    0.55314617  -38.99095383
     atom   13 type  1   force =     0.46403428    1.45396287   -2.21995163
     atom   14 type  2   force =    -0.82821112   -0.19625235   38.21298520
     atom   15 type  2   force =     0.33619785   -0.08165721  -38.93830948
     atom   16 type  1   force =     0.22098608    3.61218825   -0.82523567
     atom   17 type  2   force =     1.08678377    1.64621524   37.72579437
     atom   18 type  2   force =    -0.27665179   -0.45898025  -39.21390399
     atom   19 type  1   force =     2.53380743   -1.90115599   -0.50788380
     atom   20 type  2   force =     0.07924236   -0.05270150  -39.93154579
     atom   21 type  1   force =    -0.21165312   -0.80461636   -2.15236065
     atom   22 type  2   force =     0.44586752   -2.01498627   38.15659448
     atom   23 type  2   force =    -0.45234344    0.45577693  -38.87002761
     atom   24 type  1   force =    -0.34014037    0.46801325    2.10193095
     atom   25 type  2   force =     2.03913406   -0.66747265   38.37357952
     atom   26 type  2   force =    -0.60055709   -0.16327650  -38.21941782
     atom   27 type  1   force =     0.59809467    1.03167654   -2.71821278
     atom   28 type  2   force =     0.42047536    2.73842764   37.83991182
     atom   29 type  2   force =    -0.38445284   -0.40492226  -38.13139148
     atom   30 type  1   force =    -0.17262776   -0.91002487    0.42638576
     atom   31 type  2   force =     1.37857225    0.29990489   37.90815781
     atom   32 type  2   force =    -0.61680526    0.07832774  -39.01624547
     atom   33 type  1   force =     0.17636521   -1.39476794    1.40103580
     atom   34 type  2   force =     0.52072173   -1.56324567   38.59381855
     atom   35 type  2   force =    -0.14391478    0.55037839  -37.94269700
     atom   36 type  3   force =     2.66776248    1.79713789   43.98438837
     The local contribution  to forces
     atom    1 type  1   force =    -0.42311950   -1.71712973   -1.15896737
     atom    2 type  2   force =     4.64342384    2.57681496  -38.97697482
     atom    3 type  2   force =    -0.36926584   -0.02486870   35.28747050
     atom    4 type  1   force =     0.77382515   -1.07414628    0.17283756
     atom    5 type  2   force =     1.37429264   -2.19945031  -37.71138751
     atom    6 type  2   force =    -0.67436082    0.59932657   38.29174015
     atom    7 type  1   force =     2.18476636    2.47052595    0.61419098
     atom    8 type  2   force =     1.27198746   -0.31481294  -37.42718251
     atom    9 type  2   force =    -0.42421679    0.15163953   38.10560389
     atom   10 type  1   force =    -0.38816707    0.79602626   -1.92981206
     atom   11 type  2   force =     1.12882164    2.60444666  -38.02879069
     atom   12 type  2   force =    -0.51169047   -0.53297337   38.74487899
     atom   13 type  1   force =    -0.46642660   -1.46985651    2.22625411
     atom   14 type  2   force =     0.81885165    0.22279603  -37.96268599
     atom   15 type  2   force =    -0.33098802    0.07933489   38.69480311
     atom   16 type  1   force =    -0.22478487   -3.64680117    0.86019028
     atom   17 type  2   force =    -1.08241247   -1.62314387  -37.49569562
     atom   18 type  2   force =     0.27621090    0.46175101   38.96964227
     atom   19 type  1   force =    -2.54751613    1.90094609    0.53014864
     atom   20 type  2   force =    -0.07685922    0.06586907   39.69312226
     atom   21 type  1   force =     0.21624986    0.78255548    2.14673268
     atom   22 type  2   force =    -0.43884103    2.01227573  -37.91586025
     atom   23 type  2   force =     0.43892639   -0.44372729   38.62371276
     atom   24 type  1   force =     0.32307666   -0.48647985   -2.06414897
     atom   25 type  2   force =    -2.05745352    0.69332018  -38.13525885
     atom   26 type  2   force =     0.58106619    0.16488026   37.97206739
     atom   27 type  1   force =    -0.59144352   -1.04726610    2.71236066
     atom   28 type  2   force =    -0.40809063   -2.74884230  -37.60102901
     atom   29 type  2   force =     0.37261512    0.40194027   37.88247038
     atom   30 type  1   force =     0.16958707    0.89354822   -0.43202634
     atom   31 type  2   force =    -1.36835060   -0.29988935  -37.66377908
     atom   32 type  2   force =     0.60822302   -0.06806424   38.77109050
     atom   33 type  1   force =    -0.17645449    1.39130011   -1.40725762
     atom   34 type  2   force =    -0.52409985    1.56410936  -38.34679417
     atom   35 type  2   force =     0.13737083   -0.53205394   37.70100925
     atom   36 type  3   force =    -1.24476718   -1.03846873  -42.89598390
     The core correction contribution to forces
     atom    1 type  1   force =     0.00000000    0.00000000    0.00000000
     atom    2 type  2   force =    -0.02236675   -0.01208865    0.01637743
     atom    3 type  2   force =     0.00105618    0.00090880   -0.02103902
     atom    4 type  1   force =     0.00000000    0.00000000    0.00000000
     atom    5 type  2   force =    -0.00097771    0.00137266    0.02007890
     atom    6 type  2   force =     0.00055772   -0.00084743   -0.02061303
     atom    7 type  1   force =     0.00000000    0.00000000    0.00000000
     atom    8 type  2   force =    -0.00057493    0.00073068    0.02079576
     atom    9 type  2   force =     0.00075907    0.00053198   -0.02084032
     atom   10 type  1   force =     0.00000000    0.00000000    0.00000000
     atom   11 type  2   force =     0.00030365   -0.00150592    0.02044081
     atom   12 type  2   force =     0.00076964    0.00147108   -0.02100218
     atom   13 type  1   force =     0.00000000    0.00000000    0.00000000
     atom   14 type  2   force =    -0.00099290    0.00075302    0.02126421
     atom   15 type  2   force =     0.00049013   -0.00013839   -0.02090419
     atom   16 type  1   force =     0.00000000    0.00000000    0.00000000
     atom   17 type  2   force =     0.00035343    0.00099181    0.02008579
     atom   18 type  2   force =    -0.00026560   -0.00031886   -0.02073941
     atom   19 type  1   force =     0.00000000    0.00000000    0.00000000
     atom   20 type  2   force =     0.00002698    0.00052596   -0.02111440
     atom   21 type  1   force =     0.00000000    0.00000000    0.00000000
     atom   22 type  2   force =     0.00023727   -0.00060555    0.02069364
     atom   23 type  2   force =    -0.00114477    0.00103425   -0.02097313
     atom   24 type  1   force =     0.00000000    0.00000000    0.00000000
     atom   25 type  2   force =    -0.00110226    0.00089629    0.02113813
     atom   26 type  2   force =    -0.00144488    0.00001995   -0.02095717
     atom   27 type  1   force =     0.00000000    0.00000000    0.00000000
     atom   28 type  2   force =     0.00041970   -0.00021926    0.02099254
     atom   29 type  2   force =    -0.00076088   -0.00070290   -0.02087906
     atom   30 type  1   force =     0.00000000    0.00000000    0.00000000
     atom   31 type  2   force =     0.00059810    0.00032064    0.02094158
     atom   32 type  2   force =    -0.00093430    0.00065708   -0.02094833
     atom   33 type  1   force =     0.00000000    0.00000000    0.00000000
     atom   34 type  2   force =     0.00010393   -0.00010349    0.02092794
     atom   35 type  2   force =    -0.00043909    0.00141744   -0.02067508
     atom   36 type  3   force =     0.01561915    0.00825136    0.01209054
     The Hubbard contrib.    to forces
     atom    1 type  1   force =     0.00000000    0.00000000    0.00000000
     atom    2 type  2   force =     0.00000000    0.00000000    0.00000000
     atom    3 type  2   force =     0.00000000    0.00000000    0.00000000
     atom    4 type  1   force =     0.00000000    0.00000000    0.00000000
     atom    5 type  2   force =     0.00000000    0.00000000    0.00000000
     atom    6 type  2   force =     0.00000000    0.00000000    0.00000000
     atom    7 type  1   force =     0.00000000    0.00000000    0.00000000
     atom    8 type  2   force =     0.00000000    0.00000000    0.00000000
     atom    9 type  2   force =     0.00000000    0.00000000    0.00000000
     atom   10 type  1   force =     0.00000000    0.00000000    0.00000000
     atom   11 type  2   force =     0.00000000    0.00000000    0.00000000
     atom   12 type  2   force =     0.00000000    0.00000000    0.00000000
     atom   13 type  1   force =     0.00000000    0.00000000    0.00000000
     atom   14 type  2   force =     0.00000000    0.00000000    0.00000000
     atom   15 type  2   force =     0.00000000    0.00000000    0.00000000
     atom   16 type  1   force =     0.00000000    0.00000000    0.00000000
     atom   17 type  2   force =     0.00000000    0.00000000    0.00000000
     atom   18 type  2   force =     0.00000000    0.00000000    0.00000000
     atom   19 type  1   force =     0.00000000    0.00000000    0.00000000
     atom   20 type  2   force =     0.00000000    0.00000000    0.00000000
     atom   21 type  1   force =     0.00000000    0.00000000    0.00000000
     atom   22 type  2   force =     0.00000000    0.00000000    0.00000000
     atom   23 type  2   force =     0.00000000    0.00000000    0.00000000
     atom   24 type  1   force =     0.00000000    0.00000000    0.00000000
     atom   25 type  2   force =     0.00000000    0.00000000    0.00000000
     atom   26 type  2   force =     0.00000000    0.00000000    0.00000000
     atom   27 type  1   force =     0.00000000    0.00000000    0.00000000
     atom   28 type  2   force =     0.00000000    0.00000000    0.00000000
     atom   29 type  2   force =     0.00000000    0.00000000    0.00000000
     atom   30 type  1   force =     0.00000000    0.00000000    0.00000000
     atom   31 type  2   force =     0.00000000    0.00000000    0.00000000
     atom   32 type  2   force =     0.00000000    0.00000000    0.00000000
     atom   33 type  1   force =     0.00000000    0.00000000    0.00000000
     atom   34 type  2   force =     0.00000000    0.00000000    0.00000000
     atom   35 type  2   force =     0.00000000    0.00000000    0.00000000
     atom   36 type  3   force =     0.00000000    0.00000000    0.00000000
     The SCF correction term to forces
     atom    1 type  1   force =    -0.00002511   -0.00002462   -0.00001606
     atom    2 type  2   force =    -0.00000333   -0.00000575   -0.00000704
     atom    3 type  2   force =    -0.00001658   -0.00001654   -0.00001814
     atom    4 type  1   force =    -0.00004526    0.00003148   -0.00003825
     atom    5 type  2   force =    -0.00000350   -0.00001143   -0.00000957
     atom    6 type  2   force =    -0.00000536   -0.00000367   -0.00001403
     atom    7 type  1   force =    -0.00002325    0.00003079   -0.00003938
     atom    8 type  2   force =    -0.00000094    0.00001386   -0.00001078
     atom    9 type  2   force =    -0.00000761    0.00002073   -0.00001673
     atom   10 type  1   force =     0.00003011   -0.00003055   -0.00002049
     atom   11 type  2   force =    -0.00001857    0.00000174   -0.00000435
     atom   12 type  2   force =     0.00000074    0.00000001   -0.00001670
     atom   13 type  1   force =     0.00003753   -0.00005402   -0.00002048
     atom   14 type  2   force =    -0.00001291   -0.00002018   -0.00000698
     atom   15 type  2   force =     0.00000199   -0.00001875   -0.00000777
     atom   16 type  1   force =    -0.00000328    0.00002985   -0.00005797
     atom   17 type  2   force =     0.00000005   -0.00000439    0.00000019
     atom   18 type  2   force =     0.00001080    0.00000449   -0.00001973
     atom   19 type  1   force =    -0.00000963    0.00003183   -0.00003211
     atom   20 type  2   force =     0.00000005    0.00001060   -0.00000439
     atom   21 type  1   force =    -0.00003406    0.00000176   -0.00001718
     atom   22 type  2   force =     0.00000298    0.00001260   -0.00001067
     atom   23 type  2   force =     0.00000078   -0.00000403   -0.00000540
     atom   24 type  1   force =     0.00000484   -0.00006136   -0.00001986
     atom   25 type  2   force =     0.00001185   -0.00002720    0.00000288
     atom   26 type  2   force =     0.00000802   -0.00001745   -0.00001293
     atom   27 type  1   force =     0.00001265    0.00003604   -0.00002875
     atom   28 type  2   force =     0.00000899    0.00001329   -0.00000476
     atom   29 type  2   force =    -0.00000328   -0.00000091   -0.00001848
     atom   30 type  1   force =    -0.00000195    0.00007272   -0.00005420
     atom   31 type  2   force =     0.00001291    0.00001840   -0.00001387
     atom   32 type  2   force =     0.00001390    0.00002584   -0.00000862
     atom   33 type  1   force =     0.00002810   -0.00005267   -0.00000706
     atom   34 type  2   force =     0.00001228    0.00000868   -0.00001786
     atom   35 type  2   force =     0.00000024   -0.00000883    0.00000231
     atom   36 type  3   force =     0.00002979   -0.00008775    0.00002204

     Total force =     0.005631     Total SCF correction =     0.000247
     Energy error            =      6.4E-05 Ry
     Gradient error          =      2.3E-03 Ry/Bohr

     bfgs converged in  19 scf cycles and  18 bfgs steps
     (criteria: energy <  1.0E-04 Ry, force <  1.0E-02 Ry/Bohr)

     End of BFGS Geometry Optimization

     Final energy             =   -2246.3544587858 Ry

     File ./MoS2-V-O.bfgs deleted, as requested
Begin final coordinates

ATOMIC_POSITIONS (angstrom)
Mo            6.5248401606        1.7568807268        2.8103415225
S             7.6519654661        0.5573408353        4.6534558918
S             8.2043132731        0.8627859923        1.3705085158
Mo            8.1654151969        4.4799948032        2.7428579331
S             6.5334143513        3.6829995950        4.3237940186
S             6.5944260067        3.5525462530        1.1237441261
Mo            6.5206941659        7.1652711810        2.6335884115
S             8.1037861782        6.3184659602        4.2867713549
S             8.1801339467        6.3050650410        1.1173527159
Mo            8.1115067922        9.8699307921        2.8255112694
S             6.4685912676        8.8564004830        4.3296049366
S             6.6105414224        9.0282171441        1.1120735634
Mo            3.4693098643        1.7674420077        2.7259319803
S             4.9291989183        0.8016563238        4.3433010086
S             5.0398931994        0.8331331003        1.1369745894
Mo            5.0285824308        4.5559535232        2.6263135999
S             3.5124296247        3.6984935430        4.2802743313
S             3.4734001395        3.5852582632        1.0701830242
Mo            3.4992150036        7.1968695149        2.6268588561
S             5.0151362464        6.3184066885        0.9951716716
Mo            5.0044400503        9.9032227099        2.7087784067
S             3.4909810552        8.9392225882        4.3085020818
S             3.3990804214        9.0558827353        1.1065144612
Mo            0.3711021148        1.7991841874        2.9059750035
S             2.0183389379        0.8603345895        4.3761601415
S             1.8335876369        0.8599679348        1.2022771339
Mo            1.9140837444        4.5358872386        2.6871117079
S             0.3711538674        3.7261812050        4.3369893672
S             0.3036717370        3.5329574260        1.1851228542
Mo            0.3020255701        7.2307272432        2.7334323994
S             1.9571970817        6.3368492043        4.2792934542
S             1.8663074156        6.3493842299        1.0801924428
Mo            1.8708342046        9.9519691047        2.7872530779
S             0.2927494531        9.0281977894        4.3877638081
S             0.2666280219        9.0713804146        1.1944274223
O             9.0301320448        1.3208082604        4.8763404928
End final coordinates



     Writing all to output data dir ./MoS2-V-O.save/
 
     init_run     :      4.63s CPU      5.11s WALL (       1 calls)
     electrons    :   1567.13s CPU   1774.35s WALL (      19 calls)
     update_pot   :     54.91s CPU     58.52s WALL (      18 calls)
     forces       :     52.01s CPU     59.11s WALL (      19 calls)

     Called by init_run:
     wfcinit      :      0.49s CPU      0.54s WALL (       1 calls)
     potinit      :      2.39s CPU      2.62s WALL (       1 calls)
     hinit0       :      0.43s CPU      0.46s WALL (       1 calls)

     Called by electrons:
     c_bands      :    247.36s CPU    253.00s WALL (     167 calls)
     sum_band     :     93.90s CPU    120.93s WALL (     167 calls)
     v_of_rho     :    156.85s CPU    190.68s WALL (     179 calls)
     newd         :     55.54s CPU     80.79s WALL (     179 calls)
     PAW_pot      :      7.15s CPU      7.18s WALL (     197 calls)
     mix_rho      :   1025.63s CPU   1142.94s WALL (     167 calls)

     Called by c_bands:
     init_us_2    :      3.86s CPU      4.16s WALL (     353 calls)
     init_us_2:cp :      3.86s CPU      4.15s WALL (     353 calls)
     regterg      :    234.81s CPU    240.13s WALL (     167 calls)

     Called by *egterg:
     rdiaghg      :     16.41s CPU     16.54s WALL (     937 calls)
     h_psi        :    151.35s CPU    152.59s WALL (     963 calls)
     s_psi        :     14.57s CPU     14.62s WALL (     963 calls)
     g_psi        :      0.74s CPU      0.75s WALL (     795 calls)

     Called by h_psi:
     h_psi:calbec :     17.05s CPU     17.11s WALL (     963 calls)
     vloc_psi     :    117.86s CPU    118.96s WALL (     963 calls)
     add_vuspsi   :     14.55s CPU     14.62s WALL (     963 calls)

     General routines
     calbec       :     24.76s CPU     24.87s WALL (    1224 calls)
     fft          :    107.06s CPU    124.16s WALL (   12027 calls)
     ffts         :    458.03s CPU    571.27s WALL (  252043 calls)
     fftw         :     75.06s CPU     75.70s WALL (  104130 calls)
     interpolate  :      2.23s CPU      2.56s WALL (     179 calls)
 
     Parallel routines
 
     PWSCF        :  28m 6.94s CPU  31m49.23s WALL

 
   This run was terminated on:  13:47:33   1Nov2023            

=------------------------------------------------------------------------------=
   JOB DONE.
=------------------------------------------------------------------------------=
