
     Program PWSCF v.7.2 starts on  1Nov2023 at 15:11:42 

     This program is part of the open-source Quantum ESPRESSO suite
     for quantum simulation of materials; please cite
         "P. Giannozzi et al., J. Phys.:Condens. Matter 21 395502 (2009);
         "P. Giannozzi et al., J. Phys.:Condens. Matter 29 465901 (2017);
         "P. Giannozzi et al., J. Chem. Phys. 152 154105 (2020);
          URL http://www.quantum-espresso.org", 
     in publications or presentations arising from this work. More details at
     http://www.quantum-espresso.org/quote

     Parallel version (MPI & OpenMP), running on      48 processor cores
     Number of MPI processes:                48
     Threads/MPI process:                     1

     MPI processes distributed on     1 nodes
     42263 MiB available memory on the printing compute node when the environment starts
 
     Waiting for input...
     Reading input from standard input
Warning: card &CELL ignored
Warning: card CELL_DYNAMICS = 'BFGS', ignored
Warning: card CELL_DOFREE = '2DXY' ignored
Warning: card / ignored

     Current dimensions of program PWSCF are:
     Max number of different atomic species (ntypx) = 10
     Max number of k-points (npk) =  40000
     Max angular momentum in pseudopotentials (lmaxx) =  4
     file O.pbe-n-kjpaw_psl.0.1.UPF: wavefunction(s)  2P renormalized

     IMPORTANT: XC functional enforced from input :
     Exchange-correlation= RVV10
                           (   1   4  13   4  26   0   0)
     Any further DFT definition will be discarded
     Please, verify this is what you really want


     gamma-point specific algorithms are used
     signal trapping enabled: kill the code with -SIGUSR1 to stop cleanly the simulation 
 
     R & G space division:  proc/nbgrp/npool/nimage =      48
     Subspace diagonalization in iterative solution of the eigenvalue problem:
     one sub-group per band group will be used
     scalapack distributed-memory algorithm (size of sub-group:  2*  2 procs)

 
     Parallelization info
     --------------------
     sticks:   dense  smooth     PW     G-vecs:    dense   smooth      PW
     Min         396     194     47               101632    35090    4376
     Max         398     196     50               101674    35128    4410
     Sum       19091    9389   2349              4879585  1685513  210763
 
     Using Slab Decomposition
 


     bravais-lattice index     =            0
     lattice parameter (alat)  =      17.8707  a.u.
     unit-cell volume          =   17436.2743 (a.u.)^3
     number of atoms/cell      =           36
     number of atomic types    =            3
     number of electrons       =       312.00
     number of Kohn-Sham states=          187
     kinetic-energy cutoff     =      80.0000  Ry
     charge density cutoff     =     650.0000  Ry
     scf convergence threshold =      1.0E-06
     mixing beta               =       0.7000
     number of iterations used =            8  local-TF  mixing
     energy convergence thresh.=      1.0E-04
     force convergence thresh. =      1.0E-02
     Exchange-correlation= RVV10
                           (   1   4  13   4  26   0   0)
     nstep                     =          200


     celldm(1)=  17.870686  celldm(2)=   0.000000  celldm(3)=   0.000000
     celldm(4)=   0.000000  celldm(5)=   0.000000  celldm(6)=   0.000000

     crystal axes: (cart. coord. in units of alat)
               a(1) = (   1.000000   0.000000   0.000000 )  
               a(2) = (   0.000000   1.155671   0.000000 )  
               a(3) = (   0.000000   0.000000   2.643601 )  

     reciprocal axes: (cart. coord. in units 2 pi/alat)
               b(1) = (  1.000000  0.000000  0.000000 )  
               b(2) = (  0.000000  0.865298  0.000000 )  
               b(3) = (  0.000000  0.000000  0.378272 )  


     PseudoPot. # 1 for Mo read from file:
     ../pseudo/Mo_ONCV_PBE-1.0.oncvpsp.upf
     MD5 check sum: 1b5d28e075c9ccadda658a603575cd1f
     Pseudo is Norm-conserving, Zval = 14.0
     Generated using ONCVPSP code by D. R. Hamann
     Using radial grid of 1526 points,  6 beta functions with: 
                l(1) =   0
                l(2) =   0
                l(3) =   1
                l(4) =   1
                l(5) =   2
                l(6) =   2

     PseudoPot. # 2 for S  read from file:
     ../pseudo/s_pbe_v1.4.uspp.F.UPF
     MD5 check sum: 88d86576ff6df21479756cfb9bdac1df
     Pseudo is Ultrasoft + core correction, Zval =  6.0
     Generated by new atomic code, or converted to UPF format
     Using radial grid of  907 points,  6 beta functions with: 
                l(1) =   0
                l(2) =   0
                l(3) =   1
                l(4) =   1
                l(5) =   2
                l(6) =   2
     Q(r) pseudized with  8 coefficients,  rinner =    1.300   1.300   1.300
                                                       1.300   1.300

     PseudoPot. # 3 for O  read from file:
     ../pseudo/O.pbe-n-kjpaw_psl.0.1.UPF
     MD5 check sum: 0234752ac141de4415c5fc33072bef88
     Pseudo is Projector augmented-wave + core cor, Zval =  6.0
     Generated using "atomic" code by A. Dal Corso  v.5.0.99 svn rev. 10869
     Shape of augmentation charge: BESSEL
     Using radial grid of 1095 points,  4 beta functions with: 
                l(1) =   0
                l(2) =   0
                l(3) =   1
                l(4) =   1
     Q(r) pseudized with 0 coefficients 


     atomic species   valence    mass     pseudopotential
        Mo            14.00    95.94000     Mo( 1.00)
        S              6.00    32.06500     S ( 1.00)
        O              6.00    15.99940     O ( 1.00)

     No symmetry found



   Cartesian axes

     site n.     atom                  positions (alat units)
         1           Mo  tau(   1) = (   0.6952221   0.1890506   0.2985846  )
         2           S   tau(   2) = (   0.8646417   0.0856217   0.4689279  )
         3           S   tau(   3) = (   0.8663890   0.0857843   0.1351291  )
         4           Mo  tau(   4) = (   0.8560186   0.4753274   0.2873942  )
         5           S   tau(   5) = (   0.6873294   0.3936244   0.4596353  )
         6           S   tau(   6) = (   0.6929804   0.3713468   0.1185692  )
         7           Mo  tau(   7) = (   0.6862796   0.7633098   0.2825370  )
         8           S   tau(   8) = (   0.8545980   0.6708292   0.4486168  )
         9           S   tau(   9) = (   0.8545123   0.6666874   0.1146125  )
        10           Mo  tau(  10) = (   0.8629403   1.0471007   0.3006803  )
        11           S   tau(  11) = (   0.6868280   0.9456650   0.4634891  )
        12           S   tau(  12) = (   0.6998113   0.9568511   0.1205389  )
        13           Mo  tau(  13) = (   0.3618216   0.1847309   0.2935964  )
        14           S   tau(  14) = (   0.5260962   0.0863870   0.4600448  )
        15           S   tau(  15) = (   0.5348379   0.0894875   0.1297123  )
        16           Mo  tau(  16) = (   0.5265817   0.4772436   0.2784130  )
        17           S   tau(  17) = (   0.3624753   0.3882513   0.4525556  )
        18           S   tau(  18) = (   0.3635411   0.3752055   0.1119148  )
        19           Mo  tau(  19) = (   0.3652268   0.7630864   0.2781795  )
        20           S   tau(  20) = (   0.5269494   0.6690381   0.1096838  )
        21           Mo  tau(  21) = (   0.5300192   1.0470394   0.2900995  )
        22           S   tau(  22) = (   0.3670346   0.9457522   0.4574073  )
        23           S   tau(  23) = (   0.3604225   0.9585725   0.1159032  )
        24           Mo  tau(  24) = (   0.0313099   0.1847895   0.3013130  )
        25           S   tau(  25) = (   0.1956761   0.0838230   0.4650863  )
        26           S   tau(  26) = (   0.1967693   0.0903508   0.1278874  )
        27           Mo  tau(  27) = (   0.1967578   0.4753919   0.2813011  )
        28           S   tau(  28) = (   0.0287851   0.3864324   0.4586755  )
        29           S   tau(  29) = (   0.0244514   0.3729871   0.1239344  )
        30           Mo  tau(  30) = (   0.0286728   0.7631204   0.2856894  )
        31           S   tau(  31) = (   0.2011512   0.6675435   0.4465001  )
        32           S   tau(  32) = (   0.1969214   0.6672839   0.1104564  )
        33           Mo  tau(  33) = (   0.1950294   1.0511147   0.2932237  )
        34           S   tau(  34) = (   0.0312912   0.9612169   0.4667423  )
        35           S   tau(  35) = (   0.0292670   0.9563028   0.1216485  )
        36           O   tau(  36) = (   0.3333333   0.3852236   0.5650415  )

     number of k points=     1  Gaussian smearing, width (Ry)=  0.0100
                       cart. coord. in units 2pi/alat
        k(    1) = (   0.0000000   0.0000000   0.0000000), wk =   2.0000000

     Dense  grid:  2439793 G-vectors     FFT dimensions: ( 150, 180, 384)

     Smooth grid:   842757 G-vectors     FFT dimensions: ( 108, 120, 270)

     Estimated max dynamical RAM per process >     269.22 MB

     Estimated total dynamical RAM >      12.62 GB

     Initial potential from superposition of free atoms

     starting charge     311.9873, renormalised to     312.0000

     negative rho (up, down):  2.754E-04 0.000E+00


---------------------------------------------------------------------------------
Carrying out rVV10 run using the following parameters:
Nqs =      20    Nr_points =    1024   r_max =   100.000
b_value =  6.30000    beta =  0.00901
     q_mesh =  0.00010000  0.00030000  0.00058939  0.00100810
               0.00161396  0.00249058  0.00375900  0.00559430
               0.00824984  0.01209221  0.01765183  0.02569619
               0.03733578  0.05417739  0.07854596  0.11380545
               0.16482331  0.23864234  0.34545298  0.50000000

Gradients computed in Reciprocal space

---------------------------------------------------------------------------------


     Starting wfcs are  216 randomized atomic wfcs
     Checking if some PAW data can be deallocated... 

     total cpu time spent up to now is        5.6 secs

     Self-consistent Calculation

     iteration #  1     ecut=    80.00 Ry     beta= 0.70
     Davidson diagonalization with overlap
     ethr =  1.00E-02,  avg # of iterations =  2.0

     Threshold (ethr) on eigenvalues was too large:
     Diagonalizing with lowered threshold

     Davidson diagonalization with overlap
     ethr =  5.21E-04,  avg # of iterations =  4.0

     negative rho (up, down):  5.490E-08 0.000E+00

     total cpu time spent up to now is       22.3 secs

     total energy              =   -2245.67627704 Ry
     estimated scf accuracy    <       1.88257296 Ry

     iteration #  2     ecut=    80.00 Ry     beta= 0.70
     Davidson diagonalization with overlap
     ethr =  6.03E-04,  avg # of iterations =  4.0

     total cpu time spent up to now is       28.1 secs

     total energy              =   -2245.66908479 Ry
     estimated scf accuracy    <       0.58138822 Ry

     iteration #  3     ecut=    80.00 Ry     beta= 0.70
     Davidson diagonalization with overlap
     ethr =  1.86E-04,  avg # of iterations =  2.0

     total cpu time spent up to now is       33.3 secs

     total energy              =   -2245.69435748 Ry
     estimated scf accuracy    <       0.10183378 Ry

     iteration #  4     ecut=    80.00 Ry     beta= 0.70
     Davidson diagonalization with overlap
     ethr =  3.26E-05,  avg # of iterations = 12.0

     total cpu time spent up to now is       39.3 secs

     total energy              =   -2245.70750498 Ry
     estimated scf accuracy    <       0.02316574 Ry

     iteration #  5     ecut=    80.00 Ry     beta= 0.70
     Davidson diagonalization with overlap
     ethr =  7.42E-06,  avg # of iterations =  2.0

     total cpu time spent up to now is       44.1 secs

     total energy              =   -2245.70750374 Ry
     estimated scf accuracy    <       0.01486193 Ry

     iteration #  6     ecut=    80.00 Ry     beta= 0.70
     Davidson diagonalization with overlap
     ethr =  4.76E-06,  avg # of iterations =  1.0

     total cpu time spent up to now is       48.7 secs

     total energy              =   -2245.70592837 Ry
     estimated scf accuracy    <       0.01000454 Ry

     iteration #  7     ecut=    80.00 Ry     beta= 0.70
     Davidson diagonalization with overlap
     ethr =  3.21E-06,  avg # of iterations =  2.0

     negative rho (up, down):  1.655E-04 0.000E+00

     total cpu time spent up to now is       56.4 secs

     total energy              =   -2245.70520195 Ry
     estimated scf accuracy    <       0.00524067 Ry

     iteration #  8     ecut=    80.00 Ry     beta= 0.70
     Davidson diagonalization with overlap
     ethr =  1.68E-06,  avg # of iterations = 15.0

     negative rho (up, down):  1.877E-02 0.000E+00

     total cpu time spent up to now is       64.1 secs

     total energy              =   -2245.70466410 Ry
     estimated scf accuracy    <       0.00336428 Ry

     iteration #  9     ecut=    80.00 Ry     beta= 0.70
     Davidson diagonalization with overlap
     ethr =  1.08E-06,  avg # of iterations =  2.0

     negative rho (up, down):  2.794E-02 0.000E+00

     total cpu time spent up to now is       71.3 secs

     total energy              =   -2245.70464794 Ry
     estimated scf accuracy    <       0.00163499 Ry

     iteration # 10     ecut=    80.00 Ry     beta= 0.70
     Davidson diagonalization with overlap
     ethr =  5.24E-07,  avg # of iterations =  2.0

     negative rho (up, down):  2.253E-02 0.000E+00

     total cpu time spent up to now is       78.6 secs

     total energy              =   -2245.70463538 Ry
     estimated scf accuracy    <       0.00062122 Ry

     iteration # 11     ecut=    80.00 Ry     beta= 0.70
     Davidson diagonalization with overlap
     ethr =  1.99E-07,  avg # of iterations =  2.0

     negative rho (up, down):  9.785E-03 0.000E+00

     total cpu time spent up to now is       87.6 secs

     total energy              =   -2245.70467497 Ry
     estimated scf accuracy    <       0.00009218 Ry

     iteration # 12     ecut=    80.00 Ry     beta= 0.70
     Davidson diagonalization with overlap
     ethr =  2.95E-08,  avg # of iterations =  5.0

     negative rho (up, down):  2.052E-03 0.000E+00

     total cpu time spent up to now is       96.8 secs

     total energy              =   -2245.70471945 Ry
     estimated scf accuracy    <       0.00001336 Ry

     iteration # 13     ecut=    80.00 Ry     beta= 0.70
     Davidson diagonalization with overlap
     ethr =  4.28E-09,  avg # of iterations =  5.0

     negative rho (up, down):  3.586E-04 0.000E+00

     total cpu time spent up to now is      108.7 secs

     total energy              =   -2245.70472222 Ry
     estimated scf accuracy    <       0.00000167 Ry

     iteration # 14     ecut=    80.00 Ry     beta= 0.70
     Davidson diagonalization with overlap
     ethr =  5.34E-10,  avg # of iterations =  4.0

     negative rho (up, down):  2.807E-04 0.000E+00

     total cpu time spent up to now is      113.6 secs

     End of self-consistent calculation

          k = 0.0000 0.0000 0.0000 (105382 PWs)   bands (ev):

   -62.9361 -62.8860 -62.8451 -62.8371 -62.8283 -62.8207 -62.8163 -62.8038
   -62.7915 -62.7075 -62.6508 -62.6410 -37.2495 -37.1935 -37.1545 -37.1385
   -37.1083 -37.1006 -37.0932 -37.0814 -37.0756 -37.0440 -37.0368 -37.0285
   -37.0217 -37.0123 -37.0108 -36.9996 -36.9954 -36.9877 -36.9843 -36.9676
   -36.9584 -36.9419 -36.9267 -36.9224 -36.8934 -36.8857 -36.8768 -36.8660
   -36.8510 -36.8399 -36.8046 -36.7718 -36.7570 -36.7441 -36.7113 -36.7064
   -29.2060 -15.9340 -15.1453 -15.1192 -14.9377 -14.8822 -14.7742 -14.4884
   -14.4531 -14.4186 -14.3924 -14.3519 -14.3315 -14.3185 -14.2344 -14.1251
   -14.1103 -14.0905 -14.0297 -13.8877 -13.8600 -13.8309 -13.7943 -13.0037
   -11.2158 -11.1690  -8.7493  -7.5954  -7.4312  -7.2631  -7.2489  -7.2201
    -7.1770  -7.0722  -7.0323  -6.7953  -6.7715  -6.6973  -6.6436  -6.5785
    -6.4902  -6.4310  -6.3603  -6.3092  -6.2030  -6.1418  -5.9596  -5.8740
    -5.8058  -5.7814  -5.7623  -5.7237  -5.6907  -5.6457  -5.5917  -5.5820
    -5.5262  -5.4582  -5.4138  -5.3405  -5.2305  -5.1548  -5.1336  -5.0556
    -5.0122  -4.9727  -4.9018  -4.8246  -4.7163  -4.6214  -4.5040  -4.3963
    -4.3162  -4.2604  -4.2218  -4.1239  -4.0370  -3.9826  -3.8623  -3.7939
    -3.7321  -3.6996  -3.6304  -3.6049  -3.5728  -3.5161  -3.4640  -3.4386
    -3.4089  -3.3818  -3.3268  -3.1984  -3.1717  -3.0604  -2.9161  -2.8236
    -2.7968  -2.7261  -2.6977  -2.6761  -2.6555  -2.6016  -2.5361  -2.4643
    -2.2482  -1.9472  -1.9160  -1.9031  -0.9426  -0.7170  -0.2187  -0.1427
    -0.0890  -0.0297   0.0260   0.0780   0.1831   0.2308   0.2575   0.3049
     0.3916   0.4371   0.4839   0.5145   0.5640   0.6046   0.6431   0.6982
     0.7256   0.7713   0.7938   0.8154   0.8526   0.9032   0.9302   0.9532
     1.0806   1.2133   1.2268

     the Fermi energy is    -1.4186 ev

!    total energy              =   -2245.70472300 Ry
     estimated scf accuracy    <       0.00000031 Ry
     smearing contrib. (-TS)   =      -0.00000006 Ry
     internal energy E=F+TS    =   -2245.70472294 Ry

     The total energy is F=E-TS. E is the sum of the following terms:
     one-electron contribution =  -18465.63439990 Ry
     hartree contribution      =    9221.00982800 Ry
     xc contribution           =    -392.87683330 Ry
     ewald contribution        =    7401.62063329 Ry
     one-center paw contrib.   =      -9.82395104 Ry

     convergence has been achieved in  14 iterations

     negative rho (up, down):  2.807E-04 0.000E+00

     Forces acting on atoms (cartesian axes, Ry/au):

     atom    1 type  1   force =     0.01643420   -0.02560490    0.00682227
     atom    2 type  2   force =    -0.01477940    0.01703284    0.00014672
     atom    3 type  2   force =    -0.01141692    0.00989260   -0.00389244
     atom    4 type  1   force =     0.00166513    0.00109772    0.00129570
     atom    5 type  2   force =    -0.00217362   -0.00602677   -0.00384338
     atom    6 type  2   force =     0.00479665    0.00543603   -0.00117305
     atom    7 type  1   force =     0.01104557   -0.01994864   -0.00925837
     atom    8 type  2   force =     0.00109530   -0.00297903    0.01771799
     atom    9 type  2   force =     0.01253245    0.00920507    0.01197660
     atom   10 type  1   force =    -0.01116811    0.00941439   -0.02617796
     atom   11 type  2   force =     0.00468706   -0.00209800   -0.00934741
     atom   12 type  2   force =    -0.00210297    0.00130242    0.00845226
     atom   13 type  1   force =     0.00430727   -0.00053645   -0.00957212
     atom   14 type  2   force =     0.00844737    0.00158150    0.01421033
     atom   15 type  2   force =    -0.00874126    0.00219291   -0.00914125
     atom   16 type  1   force =     0.00460867    0.02621392    0.02374516
     atom   17 type  2   force =     0.66262146    0.05254816   -2.80778822
     atom   18 type  2   force =    -0.00336874   -0.00573121    0.01756131
     atom   19 type  1   force =     0.00180477   -0.01397925   -0.00565065
     atom   20 type  2   force =     0.00104314   -0.00340625   -0.00156773
     atom   21 type  1   force =    -0.00476873    0.00923049    0.00028591
     atom   22 type  2   force =    -0.00204574   -0.00222812   -0.00354746
     atom   23 type  2   force =    -0.00123639    0.00181697    0.00940775
     atom   24 type  1   force =    -0.01148501   -0.00465489   -0.02248734
     atom   25 type  2   force =     0.01639749    0.01948333    0.00976412
     atom   26 type  2   force =    -0.01629589   -0.00137571   -0.00440474
     atom   27 type  1   force =    -0.00015255    0.00798696   -0.01188625
     atom   28 type  2   force =     0.00119229   -0.00140051   -0.00588575
     atom   29 type  2   force =    -0.00019147   -0.00417366   -0.00302673
     atom   30 type  1   force =    -0.00336774    0.00877291   -0.00676104
     atom   31 type  2   force =     0.00213227   -0.00107141    0.02258065
     atom   32 type  2   force =    -0.00698625    0.01281689    0.00750286
     atom   33 type  1   force =     0.01424457   -0.00329905   -0.00976203
     atom   34 type  2   force =     0.00251186   -0.04378444   -0.01081956
     atom   35 type  2   force =    -0.00819791    0.00743791    0.01566909
     atom   36 type  3   force =    -0.66308879   -0.06116472    2.79885478
     The non-local contrib.  to forces
     atom    1 type  1   force =    -0.00165467    0.03184568   -0.01218896
     atom    2 type  2   force =    -0.01060878    0.00268864   -0.27189033
     atom    3 type  2   force =    -0.01457835   -0.00154048    0.27166576
     atom    4 type  1   force =     0.00233532    0.01139656    0.01264405
     atom    5 type  2   force =    -0.01820607   -0.02072670   -0.25480863
     atom    6 type  2   force =     0.00569118    0.00878723    0.25694546
     atom    7 type  1   force =    -0.02089827    0.01362935   -0.02067870
     atom    8 type  2   force =     0.00328530   -0.00347976   -0.25797861
     atom    9 type  2   force =     0.00653917   -0.01211010    0.28019380
     atom   10 type  1   force =     0.00492649    0.00254280   -0.00229487
     atom   11 type  2   force =     0.01414483    0.00244169   -0.25938008
     atom   12 type  2   force =    -0.01225863   -0.01644531    0.26206982
     atom   13 type  1   force =    -0.00097594    0.05559776    0.01917999
     atom   14 type  2   force =     0.00377706   -0.00267565   -0.25966804
     atom   15 type  2   force =    -0.00968445   -0.00891919    0.25759038
     atom   16 type  1   force =    -0.01767409    0.00086244   -0.00428319
     atom   17 type  2   force =     0.41875772    0.03994271   -1.65401825
     atom   18 type  2   force =    -0.00457101   -0.00395102    0.28040464
     atom   19 type  1   force =     0.00506210   -0.00324561   -0.01590784
     atom   20 type  2   force =     0.00073969   -0.02079300    0.26618551
     atom   21 type  1   force =     0.00005896    0.02591143    0.00718660
     atom   22 type  2   force =    -0.00688112    0.00393850   -0.25837423
     atom   23 type  2   force =     0.00756520   -0.01512691    0.26923458
     atom   24 type  1   force =     0.00871891    0.01522111   -0.01226030
     atom   25 type  2   force =     0.01248014    0.00952210   -0.25882345
     atom   26 type  2   force =    -0.00755696   -0.01608377    0.26259805
     atom   27 type  1   force =     0.03681798   -0.01559453    0.04743627
     atom   28 type  2   force =    -0.00860001   -0.01492418   -0.27518284
     atom   29 type  2   force =     0.00080128   -0.00278078    0.25964714
     atom   30 type  1   force =    -0.00074360    0.01509242    0.01094996
     atom   31 type  2   force =    -0.00130471   -0.00503485   -0.25065949
     atom   32 type  2   force =    -0.00161316   -0.00275783    0.27304918
     atom   33 type  1   force =    -0.01085349    0.00822144    0.00289318
     atom   34 type  2   force =     0.00065197   -0.03884291   -0.27466406
     atom   35 type  2   force =    -0.00234507   -0.01297378    0.27313063
     atom   36 type  3   force =     0.65024307    0.11038658   -1.91372710
     The ionic contribution  to forces
     atom    1 type  1   force =     1.21757348   -0.55430109    4.09111762
     atom    2 type  2   force =    -0.75512264    0.01712367   39.06124003
     atom    3 type  2   force =    -0.19130660   -0.13691043  -36.64271734
     atom    4 type  1   force =    -0.07947073    0.90618464   -0.85837203
     atom    5 type  2   force =     0.15402073    1.53323907   38.19585183
     atom    6 type  2   force =     0.51706587   -0.51464272  -38.77990742
     atom    7 type  1   force =    -2.23601532   -2.14951304    1.40836633
     atom    8 type  2   force =    -1.04946040    0.40910754   37.11867538
     atom    9 type  2   force =     0.32493206    0.10556200  -38.56869307
     atom   10 type  1   force =    -1.15793509   -0.56478238    4.77928942
     atom   11 type  2   force =    -0.42474321   -1.56624957   38.96725273
     atom   12 type  2   force =     0.49101081    0.69866595  -38.32824449
     atom   13 type  1   force =     0.81445909   -1.46857745   -1.05658810
     atom   14 type  2   force =     0.75508126   -1.15054922   38.00239034
     atom   15 type  2   force =     0.30019176   -0.31161654  -37.52429150
     atom   16 type  1   force =     1.79872423    4.91489265   -3.08834965
     atom   17 type  2   force =     4.96504100    1.93262419   21.75029335
     atom   18 type  2   force =    -0.10810824   -0.66583719  -39.78115579
     atom   19 type  1   force =     2.83528765   -1.16716873   -1.08529455
     atom   20 type  2   force =     0.35936101    0.03181184  -39.20170221
     atom   21 type  1   force =     0.35752065   -0.38150624    0.04279153
     atom   22 type  2   force =     0.49862807   -1.63615045   38.18765662
     atom   23 type  2   force =    -0.07510442    0.67231301  -38.83855652
     atom   24 type  1   force =    -1.68957793    0.11983547    3.95222486
     atom   25 type  2   force =     0.01658168   -1.16003676   38.68028701
     atom   26 type  2   force =    -0.40514168   -0.21273509  -38.10346126
     atom   27 type  1   force =    -1.74281633    1.65551028   -6.74784125
     atom   28 type  2   force =    -1.62149255    1.01413556   37.42683769
     atom   29 type  2   force =    -0.49045694   -0.44243267  -38.09408353
     atom   30 type  1   force =    -0.81193448   -0.17166433   -1.26878870
     atom   31 type  2   force =     0.52983960    1.48212459   36.55340433
     atom   32 type  2   force =    -0.59020891    0.24903962  -39.40480985
     atom   33 type  1   force =     0.52369535   -1.37141740    0.88441608
     atom   34 type  2   force =     0.07136128   -1.43537301   39.17867643
     atom   35 type  2   force =    -0.36298048    0.48489810  -38.30375422
     atom   36 type  3   force =    -2.73849963    0.83439613   57.39583991
     The local contribution  to forces
     atom    1 type  1   force =    -1.19969205    0.49696388   -4.07161600
     atom    2 type  2   force =     0.75072817   -0.00248693  -38.80992930
     atom    3 type  2   force =     0.19379652    0.14840326   36.38838683
     atom    4 type  1   force =     0.07898140   -0.91662514    0.84753824
     atom    5 type  2   force =    -0.13887868   -1.51987876  -37.96505169
     atom    6 type  2   force =    -0.51795588    0.51228998   38.54263057
     atom    7 type  1   force =     2.26783251    2.11586060   -1.39682447
     atom    8 type  2   force =     1.04742642   -0.40925817  -36.86353281
     atom    9 type  2   force =    -0.31888032   -0.08492963   38.32186650
     atom   10 type  1   force =     1.14183999    0.57174384   -4.80280614
     atom   11 type  2   force =     0.41587103    1.56211497  -38.73786441
     atom   12 type  2   force =    -0.48203461   -0.68235584   38.09568431
     atom   13 type  1   force =    -0.80919581    1.41246191    1.02841384
     atom   14 type  2   force =    -0.75038308    1.15542533  -37.74880496
     atom   15 type  2   force =    -0.29980808    0.32227950   37.27825626
     atom   16 type  1   force =    -1.77661070   -4.88971887    3.11657825
     atom   17 type  2   force =    -4.69438765   -1.91751845  -23.01560176
     atom   18 type  2   force =     0.10923671    0.66455512   39.53998793
     atom   19 type  1   force =    -2.83878600    1.15627517    1.09587504
     atom   20 type  2   force =    -0.35922304   -0.01526131   38.95533566
     atom   21 type  1   force =    -0.36256967    0.36500487   -0.04924412
     atom   22 type  2   force =    -0.49400160    1.63044560  -37.95336035
     atom   23 type  2   force =     0.06687652   -0.65672460   38.59994420
     atom   24 type  1   force =     1.66957890   -0.13945169   -3.96176055
     atom   25 type  2   force =    -0.01225453    1.17101312  -38.43215448
     atom   26 type  2   force =     0.39631768    0.22667237   37.85757095
     atom   27 type  1   force =     1.70577513   -1.63191609    6.68904384
     atom   28 type  2   force =     1.63118248   -1.00203095  -37.17833063
     atom   29 type  2   force =     0.48973472    0.44143532   37.85206701
     atom   30 type  1   force =     0.80961979    0.16507888    1.25143893
     atom   31 type  2   force =    -0.52630763   -1.47892111  -36.30029292
     atom   32 type  2   force =     0.58510579   -0.23365060   39.16050051
     atom   33 type  1   force =    -0.49838874    1.36007599   -0.89656927
     atom   34 type  2   force =    -0.06971490    1.42916917  -38.93600055
     atom   35 type  2   force =     0.35723167   -0.46559713   38.06772017
     atom   36 type  3   force =     1.42681767   -1.00532748  -52.68315779
     The core correction contribution to forces
     atom    1 type  1   force =     0.00000000    0.00000000    0.00000000
     atom    2 type  2   force =     0.00028357   -0.00015662    0.02079245
     atom    3 type  2   force =     0.00067592    0.00000619   -0.02096265
     atom    4 type  1   force =     0.00000000    0.00000000    0.00000000
     atom    5 type  2   force =     0.00083884    0.00127531    0.02027991
     atom    6 type  2   force =    -0.00009819   -0.00096556   -0.02061187
     atom    7 type  1   force =     0.00000000    0.00000000    0.00000000
     atom    8 type  2   force =    -0.00007697    0.00052025    0.02058688
     atom    9 type  2   force =    -0.00006903    0.00065110   -0.02118368
     atom   10 type  1   force =     0.00000000    0.00000000    0.00000000
     atom   11 type  2   force =    -0.00063773   -0.00036558    0.02064806
     atom   12 type  2   force =     0.00114508    0.00137104   -0.02083626
     atom   13 type  1   force =     0.00000000    0.00000000    0.00000000
     atom   14 type  2   force =    -0.00015673   -0.00048483    0.02037199
     atom   15 type  2   force =     0.00047417    0.00053870   -0.02040266
     atom   16 type  1   force =     0.00000000    0.00000000    0.00000000
     atom   17 type  2   force =    -0.02691190   -0.00255856    0.11196226
     atom   18 type  2   force =     0.00007957   -0.00048402   -0.02148835
     atom   19 type  1   force =     0.00000000    0.00000000    0.00000000
     atom   20 type  2   force =     0.00008812    0.00079141   -0.02119157
     atom   21 type  1   force =     0.00000000    0.00000000    0.00000000
     atom   22 type  2   force =     0.00015260   -0.00047771    0.02053682
     atom   23 type  2   force =    -0.00058513    0.00127408   -0.02096371
     atom   24 type  1   force =     0.00000000    0.00000000    0.00000000
     atom   25 type  2   force =    -0.00034680   -0.00082034    0.02055226
     atom   26 type  2   force =     0.00015031    0.00085979   -0.02080108
     atom   27 type  1   force =     0.00000000    0.00000000    0.00000000
     atom   28 type  2   force =     0.00025172    0.00136716    0.02094039
     atom   29 type  2   force =    -0.00018680   -0.00036687   -0.02037900
     atom   30 type  1   force =     0.00000000    0.00000000    0.00000000
     atom   31 type  2   force =    -0.00002355    0.00061552    0.02022063
     atom   32 type  2   force =    -0.00019838    0.00013513   -0.02096246
     atom   33 type  1   force =     0.00000000    0.00000000    0.00000000
     atom   34 type  2   force =     0.00030374    0.00127783    0.02120342
     atom   35 type  2   force =    -0.00006572    0.00105687   -0.02120755
     atom   36 type  3   force =    -0.00172165   -0.00067225   -0.00017073
     The Hubbard contrib.    to forces
     atom    1 type  1   force =     0.00000000    0.00000000    0.00000000
     atom    2 type  2   force =     0.00000000    0.00000000    0.00000000
     atom    3 type  2   force =     0.00000000    0.00000000    0.00000000
     atom    4 type  1   force =     0.00000000    0.00000000    0.00000000
     atom    5 type  2   force =     0.00000000    0.00000000    0.00000000
     atom    6 type  2   force =     0.00000000    0.00000000    0.00000000
     atom    7 type  1   force =     0.00000000    0.00000000    0.00000000
     atom    8 type  2   force =     0.00000000    0.00000000    0.00000000
     atom    9 type  2   force =     0.00000000    0.00000000    0.00000000
     atom   10 type  1   force =     0.00000000    0.00000000    0.00000000
     atom   11 type  2   force =     0.00000000    0.00000000    0.00000000
     atom   12 type  2   force =     0.00000000    0.00000000    0.00000000
     atom   13 type  1   force =     0.00000000    0.00000000    0.00000000
     atom   14 type  2   force =     0.00000000    0.00000000    0.00000000
     atom   15 type  2   force =     0.00000000    0.00000000    0.00000000
     atom   16 type  1   force =     0.00000000    0.00000000    0.00000000
     atom   17 type  2   force =     0.00000000    0.00000000    0.00000000
     atom   18 type  2   force =     0.00000000    0.00000000    0.00000000
     atom   19 type  1   force =     0.00000000    0.00000000    0.00000000
     atom   20 type  2   force =     0.00000000    0.00000000    0.00000000
     atom   21 type  1   force =     0.00000000    0.00000000    0.00000000
     atom   22 type  2   force =     0.00000000    0.00000000    0.00000000
     atom   23 type  2   force =     0.00000000    0.00000000    0.00000000
     atom   24 type  1   force =     0.00000000    0.00000000    0.00000000
     atom   25 type  2   force =     0.00000000    0.00000000    0.00000000
     atom   26 type  2   force =     0.00000000    0.00000000    0.00000000
     atom   27 type  1   force =     0.00000000    0.00000000    0.00000000
     atom   28 type  2   force =     0.00000000    0.00000000    0.00000000
     atom   29 type  2   force =     0.00000000    0.00000000    0.00000000
     atom   30 type  1   force =     0.00000000    0.00000000    0.00000000
     atom   31 type  2   force =     0.00000000    0.00000000    0.00000000
     atom   32 type  2   force =     0.00000000    0.00000000    0.00000000
     atom   33 type  1   force =     0.00000000    0.00000000    0.00000000
     atom   34 type  2   force =     0.00000000    0.00000000    0.00000000
     atom   35 type  2   force =     0.00000000    0.00000000    0.00000000
     atom   36 type  3   force =     0.00000000    0.00000000    0.00000000
     The SCF correction term to forces
     atom    1 type  1   force =     0.00020416   -0.00011343   -0.00047375
     atom    2 type  2   force =    -0.00006298   -0.00013599   -0.00004950
     atom    3 type  2   force =    -0.00000767   -0.00006600   -0.00024841
     atom    4 type  1   force =    -0.00018411    0.00014160   -0.00049792
     atom    5 type  2   force =     0.00004829    0.00006425   -0.00009815
     atom    6 type  2   force =     0.00009041   -0.00003296   -0.00021315
     atom    7 type  1   force =     0.00012340    0.00007438   -0.00010488
     atom    8 type  2   force =    -0.00008232    0.00013106   -0.00001620
     atom    9 type  2   force =     0.00000730    0.00003164   -0.00019031
     atom   10 type  1   force =    -0.00000276   -0.00008993   -0.00034973
     atom   11 type  2   force =     0.00004889   -0.00003957    0.00001293
     atom   12 type  2   force =     0.00003112    0.00006652   -0.00020449
     atom   13 type  1   force =     0.00001666   -0.00001873   -0.00056122
     atom   14 type  2   force =     0.00012560   -0.00013419   -0.00006235
     atom   15 type  2   force =     0.00008207   -0.00008962   -0.00027710
     atom   16 type  1   force =     0.00016597    0.00017764   -0.00018360
     atom   17 type  2   force =     0.00011903    0.00005822   -0.00040718
     atom   18 type  2   force =    -0.00000904   -0.00001416   -0.00017047
     atom   19 type  1   force =     0.00023774    0.00015986   -0.00030666
     atom   20 type  2   force =     0.00007409    0.00004475   -0.00017848
     atom   21 type  1   force =     0.00021807   -0.00017963   -0.00043147
     atom   22 type  2   force =     0.00005304    0.00001588    0.00001033
     atom   23 type  2   force =     0.00000817    0.00008133   -0.00023415
     atom   24 type  1   force =    -0.00020815   -0.00025984   -0.00067471
     atom   25 type  2   force =    -0.00006627   -0.00019485   -0.00008058
     atom   26 type  2   force =    -0.00006851   -0.00008907   -0.00029476
     atom   27 type  1   force =     0.00006740   -0.00001276   -0.00050847
     atom   28 type  2   force =    -0.00015263    0.00005183   -0.00013372
     atom   29 type  2   force =    -0.00008699   -0.00002872   -0.00026171
     atom   30 type  1   force =    -0.00031272    0.00026589   -0.00034459
     atom   31 type  2   force =    -0.00007470    0.00014438   -0.00007526
     atom   32 type  2   force =    -0.00007486    0.00005050   -0.00025789
     atom   33 type  1   force =    -0.00021182   -0.00017914   -0.00048539
     atom   34 type  2   force =    -0.00009350   -0.00001559   -0.00001817
     atom   35 type  2   force =    -0.00004158    0.00005379   -0.00020330
     atom   36 type  3   force =     0.00006849    0.00005224    0.00008712

     Total force =     4.076151     Total SCF correction =     0.002047

     BFGS Geometry Optimization
     Energy error            =      0.0E+00 Ry
     Gradient error          =      2.8E+00 Ry/Bohr

     number of scf cycles    =   1
     number of bfgs steps    =   0

     energy             new  =   -2245.7047229961 Ry

     new trust radius        =       0.5000000000 bohr
     new conv_thr            =       0.0000010000 Ry


ATOMIC_POSITIONS (angstrom)
Mo            6.5760554126        1.7854582786        2.8242686293
S             8.1753540786        0.8112659233        4.4345518063
S             8.1921861632        0.8121488893        1.2775264918
Mo            8.0953152563        4.4951576045        2.7179372080
S             6.4997099370        3.7218588374        4.3463082138
S             6.5537896480        3.5122360357        1.1211726599
Mo            6.4909945675        7.2166080080        2.6710354992
S             8.0818281662        6.3435978180        4.2440862902
S             8.0820668635        6.3055464148        1.0849612439
Mo            8.1595949403        9.9030437056        2.8410612609
S             6.4955973957        8.9427344295        4.3822483831
S             6.6177543585        9.0488306438        1.1406823690
Mo            3.4220546365        1.7469066582        2.7755934055
S             4.9759401088        0.8170862316        4.3518361694
S             5.0570321867        0.8464631970        1.2258202148
Mo            4.9801792931        4.5155818004        2.6350619632
S             3.4886035680        3.6764183137        4.0222374418
S             3.4376116697        3.5477031497        1.0599620416
Mo            3.4540272357        7.2150426518        2.6301587011
S             4.9833298480        6.3266199353        1.0371099713
Mo            5.0118266309        9.9024464802        2.7434271781
S             3.4707705239        8.9435469518        4.3252660130
S             3.4083157896        9.0651565985        1.0969309826
Mo            0.2950373196        1.7470826808        2.8473826360
S             1.8519658508        0.7944806143        4.3991048015
S             1.8593057130        0.8542997661        1.2089969430
Mo            1.8606773207        4.4963991597        2.6591074191
S             0.2723231811        3.6542704001        4.3370443805
S             0.2312136499        3.5268665052        1.1717403352
Mo            0.2708433314        7.2174505636        2.7010764453
S             1.9024337750        6.3127005877        4.2245147502
S             1.8615975801        6.3115191114        1.0452472898
Mo            1.8456528797        9.9398366335        2.7720510805
S             0.2961432347        9.0859828263        4.4128773199
S             0.2760196570        9.0442077653        1.1518376236
O             3.0914485738        3.6373579068        5.6001147091



     Writing config-only to output data dir ./MoS2-V-O.save/
     NEW-OLD atomic charge density approx. for the potential

     negative rho (up, down):  2.124E-04 0.000E+00

     total cpu time spent up to now is      122.5 secs

     Self-consistent Calculation

     iteration #  1     ecut=    80.00 Ry     beta= 0.70
     Davidson diagonalization with overlap
     ethr =  1.00E-06,  avg # of iterations = 16.0

     negative rho (up, down):  8.091E-03 0.000E+00

     total cpu time spent up to now is      140.1 secs

     total energy              =   -2246.35493613 Ry
     estimated scf accuracy    <       0.28170639 Ry

     iteration #  2     ecut=    80.00 Ry     beta= 0.70
     Davidson diagonalization with overlap
     ethr =  9.03E-05,  avg # of iterations =  5.0

     negative rho (up, down):  1.702E-02 0.000E+00

     total cpu time spent up to now is      154.5 secs

     total energy              =   -2246.35572484 Ry
     estimated scf accuracy    <       0.09494686 Ry

     iteration #  3     ecut=    80.00 Ry     beta= 0.70
     Davidson diagonalization with overlap
     ethr =  3.04E-05,  avg # of iterations =  3.0

     negative rho (up, down):  2.432E-02 0.000E+00

     total cpu time spent up to now is      168.2 secs

     total energy              =   -2246.36022807 Ry
     estimated scf accuracy    <       0.01989823 Ry

     iteration #  4     ecut=    80.00 Ry     beta= 0.70
     Davidson diagonalization with overlap
     ethr =  6.38E-06,  avg # of iterations =  3.0

     negative rho (up, down):  2.516E-02 0.000E+00

     total cpu time spent up to now is      181.5 secs

     total energy              =   -2246.35988998 Ry
     estimated scf accuracy    <       0.00795806 Ry

     iteration #  5     ecut=    80.00 Ry     beta= 0.70
     Davidson diagonalization with overlap
     ethr =  2.55E-06,  avg # of iterations =  5.0

     negative rho (up, down):  2.355E-02 0.000E+00

     total cpu time spent up to now is      195.2 secs

     total energy              =   -2246.36093830 Ry
     estimated scf accuracy    <       0.00146263 Ry

     iteration #  6     ecut=    80.00 Ry     beta= 0.70
     Davidson diagonalization with overlap
     ethr =  4.69E-07,  avg # of iterations =  2.0

     negative rho (up, down):  1.981E-02 0.000E+00

     total cpu time spent up to now is      208.6 secs

     total energy              =   -2246.36073803 Ry
     estimated scf accuracy    <       0.00072302 Ry

     iteration #  7     ecut=    80.00 Ry     beta= 0.70
     Davidson diagonalization with overlap
     ethr =  2.32E-07,  avg # of iterations =  4.0

     negative rho (up, down):  1.426E-02 0.000E+00

     total cpu time spent up to now is      220.1 secs

     total energy              =   -2246.36073365 Ry
     estimated scf accuracy    <       0.00015711 Ry

     iteration #  8     ecut=    80.00 Ry     beta= 0.70
     Davidson diagonalization with overlap
     ethr =  5.04E-08,  avg # of iterations =  2.0

     negative rho (up, down):  9.082E-03 0.000E+00

     total cpu time spent up to now is      230.4 secs

     total energy              =   -2246.36064041 Ry
     estimated scf accuracy    <       0.00010605 Ry

     iteration #  9     ecut=    80.00 Ry     beta= 0.70
     Davidson diagonalization with overlap
     ethr =  3.40E-08,  avg # of iterations =  3.0

     negative rho (up, down):  5.253E-03 0.000E+00

     total cpu time spent up to now is      240.6 secs

     total energy              =   -2246.36059986 Ry
     estimated scf accuracy    <       0.00002484 Ry

     iteration # 10     ecut=    80.00 Ry     beta= 0.70
     Davidson diagonalization with overlap
     ethr =  7.96E-09,  avg # of iterations =  5.0

     negative rho (up, down):  3.851E-03 0.000E+00

     total cpu time spent up to now is      249.3 secs

     total energy              =   -2246.36058781 Ry
     estimated scf accuracy    <       0.00002109 Ry

     iteration # 11     ecut=    80.00 Ry     beta= 0.70
     Davidson diagonalization with overlap
     ethr =  6.76E-09,  avg # of iterations =  2.0

     negative rho (up, down):  1.296E-03 0.000E+00

     total cpu time spent up to now is      258.9 secs

     total energy              =   -2246.36056571 Ry
     estimated scf accuracy    <       0.00000798 Ry

     iteration # 12     ecut=    80.00 Ry     beta= 0.70
     Davidson diagonalization with overlap
     ethr =  2.56E-09,  avg # of iterations =  5.0

     negative rho (up, down):  7.031E-04 0.000E+00

     total cpu time spent up to now is      270.3 secs

     total energy              =   -2246.36056335 Ry
     estimated scf accuracy    <       0.00000573 Ry

     iteration # 13     ecut=    80.00 Ry     beta= 0.70
     Davidson diagonalization with overlap
     ethr =  1.84E-09,  avg # of iterations =  4.0

     negative rho (up, down):  1.706E-04 0.000E+00

     total cpu time spent up to now is      274.7 secs

     End of self-consistent calculation

          k = 0.0000 0.0000 0.0000 (105382 PWs)   bands (ev):

   -63.0995 -63.0653 -63.0395 -63.0293 -63.0217 -63.0018 -62.9962 -62.9855
   -62.9732 -62.9337 -62.9183 -62.9155 -37.4387 -37.3903 -37.3443 -37.3403
   -37.3201 -37.2923 -37.2706 -37.2676 -37.2572 -37.2533 -37.2473 -37.2298
   -37.2175 -37.2059 -37.1988 -37.1930 -37.1854 -37.1792 -37.1767 -37.1675
   -37.1464 -37.1416 -37.1314 -37.1224 -37.1165 -37.1077 -37.0954 -37.0887
   -37.0806 -37.0609 -37.0460 -37.0301 -37.0061 -36.9702 -36.9480 -36.9314
   -20.7160 -16.1347 -15.3844 -15.2939 -15.1377 -15.0887 -14.9408 -14.6682
   -14.6408 -14.6043 -14.5928 -14.5653 -14.4936 -14.4906 -14.4459 -14.3090
   -14.2792 -14.2678 -14.2340 -14.1793 -14.0444 -14.0207 -14.0020 -13.9808
    -8.0221  -7.8630  -7.7846  -7.6517  -7.4910  -7.4550  -7.3889  -7.3741
    -7.2711  -7.1014  -7.0367  -6.9492  -6.9155  -6.7949  -6.7339  -6.6521
    -6.6329  -6.5472  -6.5069  -6.4158  -6.2902  -6.1967  -6.0922  -6.0303
    -5.9537  -5.9402  -5.9326  -5.8918  -5.8700  -5.8393  -5.7512  -5.7210
    -5.6848  -5.6118  -5.5548  -5.3705  -5.3345  -5.2674  -5.2257  -5.2005
    -5.1716  -5.1016  -5.0528  -4.9225  -4.7903  -4.6877  -4.6064  -4.5093
    -4.4244  -4.3866  -4.2421  -4.1756  -4.1217  -4.0401  -4.0090  -3.9329
    -3.9064  -3.8253  -3.7947  -3.7494  -3.7288  -3.7051  -3.6556  -3.6266
    -3.5738  -3.5513  -3.4198  -3.3494  -3.1834  -3.1304  -3.1104  -3.0639
    -2.9665  -2.9378  -2.8889  -2.8503  -2.8427  -2.8219  -2.6606  -2.5049
    -2.3869  -2.1536  -2.1246  -2.0728  -1.1592  -0.9206  -0.4070  -0.3564
    -0.2733  -0.2444  -0.1385  -0.0998  -0.0111   0.0265   0.0670   0.1118
     0.1831   0.2396   0.2887   0.3329   0.3526   0.3954   0.4376   0.4816
     0.5441   0.5790   0.6015   0.6250   0.6605   0.7091   0.7434   0.7814
     0.8913   1.0204   1.0839

     the Fermi energy is    -1.6153 ev

!    total energy              =   -2246.36056239 Ry
     estimated scf accuracy    <       0.00000064 Ry
     smearing contrib. (-TS)   =      -0.00000015 Ry
     internal energy E=F+TS    =   -2246.36056225 Ry

     The total energy is F=E-TS. E is the sum of the following terms:
     one-electron contribution =  -18439.77942022 Ry
     hartree contribution      =    9206.89500225 Ry
     xc contribution           =    -392.13148974 Ry
     ewald contribution        =    7388.51926767 Ry
     one-center paw contrib.   =      -9.86392221 Ry

     convergence has been achieved in  13 iterations

     negative rho (up, down):  1.706E-04 0.000E+00

     Forces acting on atoms (cartesian axes, Ry/au):

     atom    1 type  1   force =     0.01126387   -0.02324996    0.00369440
     atom    2 type  2   force =    -0.01359399    0.01566260    0.00102379
     atom    3 type  2   force =    -0.01155530    0.00854617   -0.00522442
     atom    4 type  1   force =    -0.00018761   -0.00041494   -0.00288879
     atom    5 type  2   force =    -0.00211447   -0.00568340   -0.00066086
     atom    6 type  2   force =     0.00567284    0.00494917    0.00018843
     atom    7 type  1   force =     0.01034439   -0.01547388   -0.01040224
     atom    8 type  2   force =     0.00170946   -0.00316553    0.01840595
     atom    9 type  2   force =     0.01209183    0.00821957    0.01084372
     atom   10 type  1   force =    -0.01001678    0.00834086   -0.02371504
     atom   11 type  2   force =     0.00448056   -0.00243274   -0.00899171
     atom   12 type  2   force =    -0.00228425    0.00132917    0.00793671
     atom   13 type  1   force =     0.00925396   -0.04153791   -0.04876610
     atom   14 type  2   force =     0.00703566    0.00165372    0.01604123
     atom   15 type  2   force =    -0.00989962    0.00149564   -0.00813149
     atom   16 type  1   force =     0.07466037    0.05817136   -0.05193657
     atom   17 type  2   force =    -0.10090622   -0.03047176    0.26712131
     atom   18 type  2   force =    -0.00373453   -0.00729003    0.00067052
     atom   19 type  1   force =     0.00066648   -0.01124828   -0.00416720
     atom   20 type  2   force =     0.00208015   -0.00025556   -0.00254316
     atom   21 type  1   force =    -0.00358337    0.00798820   -0.00007606
     atom   22 type  2   force =    -0.00259121   -0.00223739   -0.00319943
     atom   23 type  2   force =    -0.00068658    0.00102195    0.00881872
     atom   24 type  1   force =    -0.00871278   -0.00205265   -0.01840782
     atom   25 type  2   force =     0.01603292    0.02063577    0.00916018
     atom   26 type  2   force =    -0.01480616   -0.00249456   -0.00450523
     atom   27 type  1   force =    -0.03498989    0.02631948   -0.04649822
     atom   28 type  2   force =     0.00429566   -0.00106490   -0.00445206
     atom   29 type  2   force =    -0.00000094   -0.00200333   -0.00209874
     atom   30 type  1   force =    -0.00148858    0.00809786   -0.00523288
     atom   31 type  2   force =     0.00308865   -0.00452457    0.02204628
     atom   32 type  2   force =    -0.00849216    0.01060838    0.00659850
     atom   33 type  1   force =     0.01080149   -0.00374937   -0.00872504
     atom   34 type  2   force =     0.00264004   -0.04115190   -0.01054702
     atom   35 type  2   force =    -0.00821140    0.00749037    0.01369015
     atom   36 type  3   force =     0.06173754    0.00997238   -0.11506983
     The non-local contrib.  to forces
     atom    1 type  1   force =     0.00280338    0.02921204   -0.01133043
     atom    2 type  2   force =    -0.01020745    0.00183115   -0.27562281
     atom    3 type  2   force =    -0.01436675   -0.00164891    0.27106195
     atom    4 type  1   force =     0.00584735    0.00662642    0.01637779
     atom    5 type  2   force =    -0.00820576   -0.02346216   -0.26179319
     atom    6 type  2   force =     0.00463282    0.00667547    0.25778264
     atom    7 type  1   force =    -0.02061764    0.01529691   -0.01758074
     atom    8 type  2   force =     0.00398708   -0.00378478   -0.26134440
     atom    9 type  2   force =     0.00601645   -0.01080428    0.27884506
     atom   10 type  1   force =     0.00579125    0.00309242   -0.00178543
     atom   11 type  2   force =     0.01358966    0.00294974   -0.26235202
     atom   12 type  2   force =    -0.01287812   -0.01716559    0.26252050
     atom   13 type  1   force =    -0.00436188    0.03583707    0.00589549
     atom   14 type  2   force =     0.00981004   -0.00705136   -0.27066964
     atom   15 type  2   force =    -0.01281431   -0.00640491    0.25882997
     atom   16 type  1   force =    -0.01588210    0.00651001   -0.00871618
     atom   17 type  2   force =    -0.10379972   -0.01754893    0.45848569
     atom   18 type  2   force =    -0.00383441   -0.00332653    0.27933800
     atom   19 type  1   force =     0.00291152    0.00031017   -0.01397515
     atom   20 type  2   force =    -0.00143140   -0.01902682    0.26389762
     atom   21 type  1   force =     0.00151966    0.02528056    0.00854405
     atom   22 type  2   force =    -0.00668908    0.00349511   -0.26156241
     atom   23 type  2   force =     0.00776075   -0.01636492    0.26962839
     atom   24 type  1   force =     0.00651200    0.01327218   -0.01024357
     atom   25 type  2   force =     0.00528199    0.00293927   -0.26863265
     atom   26 type  2   force =    -0.00616132   -0.01288001    0.26186416
     atom   27 type  1   force =     0.01731780   -0.00154887    0.03388296
     atom   28 type  2   force =    -0.01446236   -0.01955867   -0.28457048
     atom   29 type  2   force =     0.00275980   -0.00300242    0.25877210
     atom   30 type  1   force =     0.00054074    0.01523450    0.01133449
     atom   31 type  2   force =    -0.00360677    0.00268439   -0.26080438
     atom   32 type  2   force =    -0.00119854   -0.00741634    0.27481894
     atom   33 type  1   force =    -0.01086936    0.00987668    0.00451490
     atom   34 type  2   force =    -0.00007483   -0.03612632   -0.27769283
     atom   35 type  2   force =    -0.00156241   -0.01243060    0.27244755
     atom   36 type  3   force =     0.55473192    0.07913130   -1.91840372
     The ionic contribution  to forces
     atom    1 type  1   force =     1.23245752   -0.54914433    4.25082558
     atom    2 type  2   force =    -0.71330216    0.00883105   39.08505644
     atom    3 type  2   force =    -0.18130963   -0.13978331  -36.64370695
     atom    4 type  1   force =    -0.00411295    0.88799256   -0.73571596
     atom    5 type  2   force =     0.07055079    1.51657322   38.31733090
     atom    6 type  2   force =     0.55538150   -0.52445623  -38.76696259
     atom    7 type  1   force =    -2.23782298   -2.07437314    1.46090441
     atom    8 type  2   force =    -1.03596499    0.39842746   37.15744896
     atom    9 type  2   force =     0.33597601    0.10160835  -38.54840655
     atom   10 type  1   force =    -1.10604097   -0.56989627    4.77171299
     atom   11 type  2   force =    -0.42914111   -1.57108781   38.96217713
     atom   12 type  2   force =     0.47692027    0.68832392  -38.30144548
     atom   13 type  1   force =     0.58118238   -2.24460849   -0.70899887
     atom   14 type  2   force =     0.66553783   -1.04614006   38.10261613
     atom   15 type  2   force =     0.31813153   -0.34511563  -37.52365646
     atom   16 type  1   force =     2.82299811    5.53183989   -3.21098897
     atom   17 type  2   force =     2.15550746    1.53707901   28.51453567
     atom   18 type  2   force =    -0.12927919   -0.68061435  -39.97915599
     atom   19 type  1   force =     2.79970847   -1.08044720   -0.94026710
     atom   20 type  2   force =     0.37633336    0.08015138  -39.21911843
     atom   21 type  1   force =     0.34271074   -0.41056617    0.14197055
     atom   22 type  2   force =     0.49672607   -1.64258478   38.19826875
     atom   23 type  2   force =    -0.07096184    0.66639229  -38.80945182
     atom   24 type  1   force =    -1.57773827    0.15359016    4.07481427
     atom   25 type  2   force =     0.07207639   -1.01563595   38.70148783
     atom   26 type  2   force =    -0.41872733   -0.23824015  -38.07266214
     atom   27 type  1   force =    -2.47428924    1.87679720   -6.29009414
     atom   28 type  2   force =    -1.39802014    1.00361383   37.42650498
     atom   29 type  2   force =    -0.51133036   -0.43518226  -38.06192115
     atom   30 type  1   force =    -0.77705032   -0.21002073   -1.19109171
     atom   31 type  2   force =     0.61071279    1.29981340   36.65489479
     atom   32 type  2   force =    -0.61672932    0.27860936  -39.38594157
     atom   33 type  1   force =     0.49582922   -1.32170164    0.97499094
     atom   34 type  2   force =     0.07309866   -1.39774382   39.16387229
     atom   35 type  2   force =    -0.35317860    0.48813807  -38.27081510
     atom   36 type  3   force =    -0.44683971    0.97956116   48.70098839
     The local contribution  to forces
     atom    1 type  1   force =    -1.22418124    0.49722430   -4.23578593
     atom    2 type  2   force =     0.70964051    0.00533956  -38.82933363
     atom    3 type  2   force =     0.18345390    0.15012352   36.38803539
     atom    4 type  1   force =    -0.00196590   -0.89513216    0.71648644
     atom    5 type  2   force =    -0.06459916   -1.50013344  -38.07703831
     atom    6 type  2   force =    -0.55433956    0.52369075   38.52976840
     atom    7 type  1   force =     2.26859855    2.04308946   -1.45386946
     atom    8 type  2   force =     1.03378340   -0.39857102  -36.89844451
     atom    9 type  2   force =    -0.32987628   -0.08330000   38.30123042
     atom   10 type  1   force =     1.09027272    0.57517237   -4.79377381
     atom   11 type  2   force =     0.42054741    1.56604082  -38.72956546
     atom   12 type  2   force =    -0.46754958   -0.67128024   38.06730802
     atom   13 type  1   force =    -0.56758536    2.16729274    0.65414525
     atom   14 type  2   force =    -0.66780404    1.05504492  -37.83693376
     atom   15 type  2   force =    -0.31595895    0.35271137   37.27687285
     atom   16 type  1   force =    -2.73225695   -5.48014551    3.16751767
     atom   17 type  2   force =    -2.15855571   -1.55097894  -28.68871765
     atom   18 type  2   force =     0.12933435    0.67719081   39.72157154
     atom   19 type  1   force =    -2.80201719    1.06848202    0.94997123
     atom   20 type  2   force =    -0.37302490   -0.06223968   38.97351055
     atom   21 type  1   force =    -0.34807645    0.39342681   -0.15073284
     atom   22 type  2   force =    -0.49280958    1.63731050  -37.96056865
     atom   23 type  2   force =     0.06310227   -0.65034111   38.56924817
     atom   24 type  1   force =     1.56269142   -0.16849349   -4.08289127
     atom   25 type  2   force =    -0.06142443    1.03357824  -38.44486113
     atom   26 type  2   force =     0.41010568    0.24803030   37.82680657
     atom   27 type  1   force =     2.42184279   -1.84879167    6.20944620
     atom   28 type  2   force =     1.41564056   -0.98664894  -37.16800701
     atom   29 type  2   force =     0.50888706    0.43663831   37.82115807
     atom   30 type  1   force =     0.77525191    0.20238671    1.17443705
     atom   31 type  2   force =    -0.60430207   -1.30697050  -36.39300417
     atom   32 type  2   force =     0.60966220   -0.26110886   39.13849578
     atom   33 type  1   force =    -0.47393563    1.30826129   -0.98824348
     atom   34 type  2   force =    -0.07059666    1.39151831  -38.91801375
     atom   35 type  2   force =     0.34668481   -0.46930281   38.03283298
     atom   36 type  3   force =    -0.04001665   -1.04775017  -46.91798746
     The core correction contribution to forces
     atom    1 type  1   force =     0.00000000    0.00000000    0.00000000
     atom    2 type  2   force =     0.00029897   -0.00012590    0.02107170
     atom    3 type  2   force =     0.00067218   -0.00001144   -0.02095243
     atom    4 type  1   force =     0.00000000    0.00000000    0.00000000
     atom    5 type  2   force =     0.00015210    0.00139224    0.02097077
     atom    6 type  2   force =    -0.00002968   -0.00088654   -0.02063157
     atom    7 type  1   force =     0.00000000    0.00000000    0.00000000
     atom    8 type  2   force =    -0.00009559    0.00052459    0.02082483
     atom    9 type  2   force =    -0.00003048    0.00059507   -0.02113698
     atom   10 type  1   force =     0.00000000    0.00000000    0.00000000
     atom   11 type  2   force =    -0.00061202   -0.00040315    0.02084221
     atom   12 type  2   force =     0.00116698    0.00139018   -0.02085777
     atom   13 type  1   force =     0.00000000    0.00000000    0.00000000
     atom   14 type  2   force =    -0.00057737   -0.00006910    0.02119324
     atom   15 type  2   force =     0.00067639    0.00039492   -0.02047878
     atom   16 type  1   force =     0.00000000    0.00000000    0.00000000
     atom   17 type  2   force =     0.00594376    0.00102417   -0.01691355
     atom   18 type  2   force =     0.00006306   -0.00049156   -0.02136574
     atom   19 type  1   force =     0.00000000    0.00000000    0.00000000
     atom   20 type  2   force =     0.00019697    0.00074397   -0.02112273
     atom   21 type  1   force =     0.00000000    0.00000000    0.00000000
     atom   22 type  2   force =     0.00014185   -0.00047703    0.02078086
     atom   23 type  2   force =    -0.00058990    0.00133578   -0.02098722
     atom   24 type  1   force =     0.00000000    0.00000000    0.00000000
     atom   25 type  2   force =     0.00015008   -0.00013333    0.02135258
     atom   26 type  2   force =     0.00003726    0.00067708   -0.02078819
     atom   27 type  1   force =     0.00000000    0.00000000    0.00000000
     atom   28 type  2   force =     0.00112059    0.00156978    0.02181922
     atom   29 type  2   force =    -0.00031625   -0.00037998   -0.02035369
     atom   30 type  1   force =     0.00000000    0.00000000    0.00000000
     atom   31 type  2   force =     0.00029179   -0.00016243    0.02115452
     atom   32 type  2   force =    -0.00022207    0.00042003   -0.02107339
     atom   33 type  1   force =     0.00000000    0.00000000    0.00000000
     atom   34 type  2   force =     0.00033946    0.00116157    0.02139066
     atom   35 type  2   force =    -0.00009983    0.00102821   -0.02117384
     atom   36 type  3   force =    -0.00626482   -0.00092843    0.02114136
     The Hubbard contrib.    to forces
     atom    1 type  1   force =     0.00000000    0.00000000    0.00000000
     atom    2 type  2   force =     0.00000000    0.00000000    0.00000000
     atom    3 type  2   force =     0.00000000    0.00000000    0.00000000
     atom    4 type  1   force =     0.00000000    0.00000000    0.00000000
     atom    5 type  2   force =     0.00000000    0.00000000    0.00000000
     atom    6 type  2   force =     0.00000000    0.00000000    0.00000000
     atom    7 type  1   force =     0.00000000    0.00000000    0.00000000
     atom    8 type  2   force =     0.00000000    0.00000000    0.00000000
     atom    9 type  2   force =     0.00000000    0.00000000    0.00000000
     atom   10 type  1   force =     0.00000000    0.00000000    0.00000000
     atom   11 type  2   force =     0.00000000    0.00000000    0.00000000
     atom   12 type  2   force =     0.00000000    0.00000000    0.00000000
     atom   13 type  1   force =     0.00000000    0.00000000    0.00000000
     atom   14 type  2   force =     0.00000000    0.00000000    0.00000000
     atom   15 type  2   force =     0.00000000    0.00000000    0.00000000
     atom   16 type  1   force =     0.00000000    0.00000000    0.00000000
     atom   17 type  2   force =     0.00000000    0.00000000    0.00000000
     atom   18 type  2   force =     0.00000000    0.00000000    0.00000000
     atom   19 type  1   force =     0.00000000    0.00000000    0.00000000
     atom   20 type  2   force =     0.00000000    0.00000000    0.00000000
     atom   21 type  1   force =     0.00000000    0.00000000    0.00000000
     atom   22 type  2   force =     0.00000000    0.00000000    0.00000000
     atom   23 type  2   force =     0.00000000    0.00000000    0.00000000
     atom   24 type  1   force =     0.00000000    0.00000000    0.00000000
     atom   25 type  2   force =     0.00000000    0.00000000    0.00000000
     atom   26 type  2   force =     0.00000000    0.00000000    0.00000000
     atom   27 type  1   force =     0.00000000    0.00000000    0.00000000
     atom   28 type  2   force =     0.00000000    0.00000000    0.00000000
     atom   29 type  2   force =     0.00000000    0.00000000    0.00000000
     atom   30 type  1   force =     0.00000000    0.00000000    0.00000000
     atom   31 type  2   force =     0.00000000    0.00000000    0.00000000
     atom   32 type  2   force =     0.00000000    0.00000000    0.00000000
     atom   33 type  1   force =     0.00000000    0.00000000    0.00000000
     atom   34 type  2   force =     0.00000000    0.00000000    0.00000000
     atom   35 type  2   force =     0.00000000    0.00000000    0.00000000
     atom   36 type  3   force =     0.00000000    0.00000000    0.00000000
     The SCF correction term to forces
     atom    1 type  1   force =     0.00018244   -0.00054186   -0.00001428
     atom    2 type  2   force =    -0.00002565   -0.00021314   -0.00014737
     atom    3 type  2   force =    -0.00000678   -0.00013358    0.00033816
     atom    4 type  1   force =     0.00004212    0.00009835   -0.00003653
     atom    5 type  2   force =    -0.00001420   -0.00005316   -0.00013049
     atom    6 type  2   force =     0.00002598   -0.00007417    0.00023209
     atom    7 type  1   force =     0.00018469    0.00051300    0.00014409
     atom    8 type  2   force =    -0.00000222    0.00023832   -0.00007838
     atom    9 type  2   force =     0.00000435    0.00012053    0.00031231
     atom   10 type  1   force =    -0.00004157   -0.00002756    0.00013175
     atom   11 type  2   force =     0.00009484    0.00006778   -0.00009303
     atom   12 type  2   force =     0.00005443    0.00006101    0.00041198
     atom   13 type  1   force =     0.00001704   -0.00005913    0.00019257
     atom   14 type  2   force =     0.00006741   -0.00013058   -0.00016419
     atom   15 type  2   force =     0.00006395   -0.00009001    0.00030146
     atom   16 type  1   force =    -0.00020047   -0.00003292    0.00025145
     atom   17 type  2   force =    -0.00000378   -0.00004697   -0.00026829
     atom   18 type  2   force =    -0.00002011   -0.00004830    0.00028325
     atom   19 type  1   force =     0.00006190    0.00040684    0.00010437
     atom   20 type  2   force =     0.00000434    0.00011569    0.00029036
     atom   21 type  1   force =     0.00026090   -0.00015289    0.00014271
     atom   22 type  2   force =     0.00003776    0.00001890   -0.00011744
     atom   23 type  2   force =     0.00000036    0.00000002    0.00038173
     atom   24 type  1   force =    -0.00017970   -0.00042139   -0.00008671
     atom   25 type  2   force =    -0.00005289   -0.00011235   -0.00018591
     atom   26 type  2   force =    -0.00006222   -0.00008168    0.00027492
     atom   27 type  1   force =     0.00013698   -0.00013706    0.00026730
     atom   28 type  2   force =     0.00001523   -0.00004079   -0.00019824
     atom   29 type  2   force =    -0.00000296   -0.00007687    0.00024647
     atom   30 type  1   force =    -0.00023269    0.00049750    0.00008781
     atom   31 type  2   force =    -0.00000887    0.00011068   -0.00019395
     atom   32 type  2   force =    -0.00000619    0.00010430    0.00029928
     atom   33 type  1   force =    -0.00022452   -0.00018559    0.00001314
     atom   34 type  2   force =    -0.00012837    0.00003846   -0.00010285
     atom   35 type  2   force =    -0.00005715    0.00005759    0.00039909
     atom   36 type  3   force =     0.00012502   -0.00004136   -0.00080787

     Total force =     0.358553     Total SCF correction =     0.002078
     Energy error            =      6.6E-01 Ry
     Gradient error          =      2.7E-01 Ry/Bohr

     number of scf cycles    =   2
     number of bfgs steps    =   1

     energy             old  =   -2245.7047229961 Ry
     energy             new  =   -2246.3605623950 Ry

     CASE: energy            _new < energy            _old

     new trust radius        =       0.1093173696 bohr
     new conv_thr            =       0.0000002671 Ry


ATOMIC_POSITIONS (angstrom)
Mo            6.5821179406        1.7731946281        2.8263001246
S             8.1681894160        0.8195209704        4.4350623291
S             8.1861304507        0.8166711930        1.2748267350
Mo            8.0952725852        4.4949854913        2.7165480942
S             6.4985992793        3.7188680000        4.3458659400
S             6.5567382703        3.5148461411        1.1212305361
Mo            6.4964404997        7.2083585706        2.6656147162
S             8.0827061779        6.3419433446        4.2537181223
S             8.0884213559        6.3098865890        1.0906820187
Mo            8.1543072764        9.9074501329        2.8285504639
S             6.4979533174        8.9414687112        4.3775222174
S             6.6165618948        9.0495268893        1.1448600754
Mo            3.4267588740        1.7263561926        2.7511979484
S             4.9796722294        0.8179513099        4.3601935156
S             5.0518754217        0.8472685125        1.2215255036
Mo            5.0172263602        4.5451272193        2.6101011078
S             3.4586469466        3.6629347933        4.0698527417
S             3.4356641924        3.5439269588        1.0608216220
Mo            3.4544109858        7.2090616614        2.6279287128
S             4.9843895409        6.3263911637        1.0358056104
Mo            5.0099117786        9.9066730418        2.7433981732
S             3.4694280346        8.9423738873        4.3235776911
S             3.4079391947        9.0657164436        1.1015734410
Mo            0.2903847645        1.7459279675        2.8376064566
S             1.8603848579        0.8052678471        4.4039267798
S             1.8514962107        0.8530252052        1.2066373172
Mo            1.8433754230        4.5096504232        2.6357635037
S             0.2744826016        3.6537018498        4.3346664992
S             0.2312074269        3.5257506454        1.1706117978
Mo            0.2700061725        7.2217175767        2.6982862414
S             1.9040247758        6.3104316399        4.2360924149
S             1.8571893742        6.3171488145        1.0487348954
Mo            1.8514209818        9.9378839170        2.7674442776
S             0.2975238809        9.0643226217        4.4073380173
S             0.2717138088        9.0481343147        1.1590765750
O             3.1020280440        3.6404484089        5.6273976550



     Writing config-only to output data dir ./MoS2-V-O.save/
     NEW-OLD atomic charge density approx. for the potential

     negative rho (up, down):  1.772E-04 0.000E+00

     total cpu time spent up to now is      283.1 secs

     Self-consistent Calculation

     iteration #  1     ecut=    80.00 Ry     beta= 0.70
     Davidson diagonalization with overlap
     ethr =  1.00E-06,  avg # of iterations = 14.0

     negative rho (up, down):  1.630E-04 0.000E+00

     total cpu time spent up to now is      297.6 secs

     total energy              =   -2246.39917126 Ry
     estimated scf accuracy    <       0.01131814 Ry

     iteration #  2     ecut=    80.00 Ry     beta= 0.70
     Davidson diagonalization with overlap
     ethr =  3.63E-06,  avg # of iterations =  2.0

     negative rho (up, down):  1.712E-04 0.000E+00

     total cpu time spent up to now is      310.3 secs

     total energy              =   -2246.39931028 Ry
     estimated scf accuracy    <       0.00255710 Ry

     iteration #  3     ecut=    80.00 Ry     beta= 0.70
     Davidson diagonalization with overlap
     ethr =  8.20E-07,  avg # of iterations =  2.0

     negative rho (up, down):  1.949E-04 0.000E+00

     total cpu time spent up to now is      325.9 secs

     total energy              =   -2246.39938344 Ry
     estimated scf accuracy    <       0.00073536 Ry

     iteration #  4     ecut=    80.00 Ry     beta= 0.70
     Davidson diagonalization with overlap
     ethr =  2.36E-07,  avg # of iterations =  8.0

     negative rho (up, down):  1.892E-04 0.000E+00

     total cpu time spent up to now is      349.7 secs

     total energy              =   -2246.39949622 Ry
     estimated scf accuracy    <       0.00006864 Ry

     iteration #  5     ecut=    80.00 Ry     beta= 0.70
     Davidson diagonalization with overlap
     ethr =  2.20E-08,  avg # of iterations =  5.0

     negative rho (up, down):  1.668E-04 0.000E+00

     total cpu time spent up to now is      365.4 secs

     total energy              =   -2246.39950768 Ry
     estimated scf accuracy    <       0.00002650 Ry

     iteration #  6     ecut=    80.00 Ry     beta= 0.70
     Davidson diagonalization with overlap
     ethr =  8.49E-09,  avg # of iterations =  3.0

     negative rho (up, down):  1.369E-04 0.000E+00

     total cpu time spent up to now is      379.7 secs

     total energy              =   -2246.39951006 Ry
     estimated scf accuracy    <       0.00000871 Ry

     iteration #  7     ecut=    80.00 Ry     beta= 0.70
     Davidson diagonalization with overlap
     ethr =  2.79E-09,  avg # of iterations =  2.0

     negative rho (up, down):  1.081E-04 0.000E+00

     total cpu time spent up to now is      394.2 secs

     total energy              =   -2246.39951084 Ry
     estimated scf accuracy    <       0.00000277 Ry

     iteration #  8     ecut=    80.00 Ry     beta= 0.70
     Davidson diagonalization with overlap
     ethr =  8.89E-10,  avg # of iterations =  5.0

     negative rho (up, down):  1.001E-04 0.000E+00

     total cpu time spent up to now is      406.2 secs

     total energy              =   -2246.39951161 Ry
     estimated scf accuracy    <       0.00000054 Ry

     iteration #  9     ecut=    80.00 Ry     beta= 0.70
     Davidson diagonalization with overlap
     ethr =  1.74E-10,  avg # of iterations =  4.0

     negative rho (up, down):  1.717E-04 0.000E+00

     total cpu time spent up to now is      410.8 secs

     End of self-consistent calculation

          k = 0.0000 0.0000 0.0000 (105382 PWs)   bands (ev):

   -63.0865 -63.0574 -63.0226 -63.0125 -63.0099 -62.9921 -62.9865 -62.9789
   -62.9612 -62.9462 -62.9352 -62.9288 -37.4254 -37.3745 -37.3316 -37.3171
   -37.3085 -37.2821 -37.2605 -37.2586 -37.2465 -37.2434 -37.2378 -37.2217
   -37.2073 -37.1930 -37.1845 -37.1796 -37.1764 -37.1697 -37.1631 -37.1612
   -37.1380 -37.1303 -37.1236 -37.1168 -37.1127 -37.1053 -37.0980 -37.0855
   -37.0849 -37.0509 -37.0480 -37.0243 -37.0113 -36.9708 -36.9509 -36.9254
   -21.1100 -16.1254 -15.3555 -15.2955 -15.1223 -15.0797 -14.9338 -14.6419
   -14.6217 -14.5978 -14.5825 -14.5711 -14.5007 -14.4823 -14.4339 -14.3084
   -14.2782 -14.2557 -14.2084 -14.1280 -14.0460 -14.0320 -13.9939 -13.9388
    -7.9670  -7.7858  -7.7608  -7.6310  -7.4743  -7.4583  -7.3921  -7.3789
    -7.2805  -7.1052  -7.0279  -6.9445  -6.9134  -6.7906  -6.7403  -6.6472
    -6.6346  -6.5668  -6.5002  -6.4133  -6.2630  -6.1865  -6.0988  -6.0185
    -5.9439  -5.9375  -5.9202  -5.8863  -5.8727  -5.8429  -5.7655  -5.7327
    -5.6782  -5.5884  -5.5371  -5.3393  -5.3135  -5.2542  -5.2184  -5.1981
    -5.1668  -5.1204  -5.0491  -4.9096  -4.8035  -4.6886  -4.5814  -4.4985
    -4.4339  -4.3902  -4.2507  -4.2089  -4.1288  -4.0770  -4.0102  -3.9317
    -3.8995  -3.8398  -3.7970  -3.7656  -3.7271  -3.6987  -3.6467  -3.6067
    -3.5778  -3.5490  -3.4366  -3.3544  -3.1961  -3.1326  -3.0898  -3.0436
    -2.9600  -2.9266  -2.8757  -2.8607  -2.8368  -2.8074  -2.6870  -2.5825
    -2.3955  -2.1568  -2.1205  -2.0943  -1.0766  -0.9340  -0.3889  -0.3638
    -0.2706  -0.2144  -0.1275  -0.0753  -0.0121   0.0544   0.1029   0.1395
     0.2041   0.2457   0.2948   0.3414   0.3651   0.4059   0.4548   0.4878
     0.5526   0.5778   0.6032   0.6201   0.6418   0.7156   0.7650   0.7888
     0.9086   1.0009   1.0399

     the Fermi energy is    -1.5836 ev

!    total energy              =   -2246.39951174 Ry
     estimated scf accuracy    <       0.00000019 Ry
     smearing contrib. (-TS)   =      -0.00000001 Ry
     internal energy E=F+TS    =   -2246.39951173 Ry

     The total energy is F=E-TS. E is the sum of the following terms:
     one-electron contribution =  -18427.59837414 Ry
     hartree contribution      =    9200.87268785 Ry
     xc contribution           =    -392.10155536 Ry
     ewald contribution        =    7382.29058777 Ry
     one-center paw contrib.   =      -9.86285785 Ry

     convergence has been achieved in   9 iterations

     negative rho (up, down):  1.717E-04 0.000E+00

     Forces acting on atoms (cartesian axes, Ry/au):

     atom    1 type  1   force =     0.00082701   -0.00943269    0.00162717
     atom    2 type  2   force =    -0.00828933    0.00982300   -0.00132738
     atom    3 type  2   force =    -0.01004181    0.00653887   -0.01008790
     atom    4 type  1   force =     0.00584419    0.00135574    0.00390241
     atom    5 type  2   force =    -0.00154083   -0.00255861   -0.00506538
     atom    6 type  2   force =     0.00773244    0.00169850   -0.00516963
     atom    7 type  1   force =     0.00759298   -0.01032023   -0.00437520
     atom    8 type  2   force =     0.00200412   -0.00445556    0.01315450
     atom    9 type  2   force =     0.01175738    0.00655607    0.00535380
     atom   10 type  1   force =    -0.00396196    0.00687924   -0.00884075
     atom   11 type  2   force =     0.00412458   -0.00267423   -0.01066072
     atom   12 type  2   force =    -0.00353117    0.00092704    0.00308595
     atom   13 type  1   force =     0.00446743   -0.01520294   -0.01347164
     atom   14 type  2   force =     0.00397119    0.00048469    0.00807659
     atom   15 type  2   force =    -0.00233021   -0.00223235   -0.01269851
     atom   16 type  1   force =     0.01267179    0.01492067    0.00212686
     atom   17 type  2   force =    -0.06008677   -0.01152635    0.17744874
     atom   18 type  2   force =     0.00125078   -0.00220298    0.00429314
     atom   19 type  1   force =     0.00356631   -0.00774892    0.00259470
     atom   20 type  2   force =     0.00471572    0.00657113   -0.01304367
     atom   21 type  1   force =    -0.00153627    0.00414829    0.00374435
     atom   22 type  2   force =    -0.00146470   -0.00249835   -0.00428487
     atom   23 type  2   force =     0.00027880   -0.00030404    0.00460658
     atom   24 type  1   force =    -0.00431887   -0.00063857   -0.00722267
     atom   25 type  2   force =     0.01258491    0.01450153   -0.00097689
     atom   26 type  2   force =    -0.01409866   -0.00553168   -0.01087807
     atom   27 type  1   force =    -0.01313518    0.00963276   -0.00892993
     atom   28 type  2   force =     0.00317925    0.00022797   -0.00982265
     atom   29 type  2   force =    -0.00415176   -0.00216968   -0.00955355
     atom   30 type  1   force =     0.00050133    0.00322708    0.00383342
     atom   31 type  2   force =     0.00105569   -0.00507090    0.01089518
     atom   32 type  2   force =    -0.00828713    0.01382771   -0.00198292
     atom   33 type  1   force =     0.00303490   -0.00100436    0.00167115
     atom   34 type  2   force =     0.00030037   -0.03036137   -0.01429612
     atom   35 type  2   force =    -0.00625872    0.00786036    0.00739713
     atom   36 type  3   force =     0.05157224    0.00675317   -0.10112323
     The non-local contrib.  to forces
     atom    1 type  1   force =     0.00253652    0.02720694   -0.01329695
     atom    2 type  2   force =    -0.00614792   -0.00157680   -0.27461936
     atom    3 type  2   force =    -0.01216679   -0.00431528    0.26643770
     atom    4 type  1   force =     0.00339408    0.00778457    0.01368888
     atom    5 type  2   force =    -0.00447054   -0.02335928   -0.26357371
     atom    6 type  2   force =     0.00458190    0.00470731    0.25631589
     atom    7 type  1   force =    -0.02108008    0.01404063   -0.02017052
     atom    8 type  2   force =     0.00477419   -0.00409988   -0.26442461
     atom    9 type  2   force =     0.00518352   -0.01207332    0.27557287
     atom   10 type  1   force =     0.00386083    0.00298138   -0.00152259
     atom   11 type  2   force =     0.01171064    0.00226302   -0.26481641
     atom   12 type  2   force =    -0.01371745   -0.01755926    0.26087434
     atom   13 type  1   force =    -0.00215590    0.03013642    0.00576693
     atom   14 type  2   force =     0.00852677   -0.00887279   -0.27244316
     atom   15 type  2   force =    -0.00707625   -0.00908441    0.25532451
     atom   16 type  1   force =    -0.00476210    0.01856715   -0.01688289
     atom   17 type  2   force =    -0.07768632   -0.00134173    0.40546096
[...]
     atom   28 type  2   force =    -0.00188935   -0.00627793   -0.27881382
     atom   29 type  2   force =    -0.00046870   -0.00838525    0.26568902
     atom   30 type  1   force =    -0.00044995    0.01945597    0.00735042
     atom   31 type  2   force =    -0.00664762    0.00011643   -0.26989075
     atom   32 type  2   force =     0.00618596   -0.01426044    0.26976759
     atom   33 type  1   force =    -0.00670251    0.00476845   -0.00026585
     atom   34 type  2   force =     0.00125056   -0.00928739   -0.27540733
     atom   35 type  2   force =     0.00017546   -0.01479820    0.26700114
     atom   36 type  3   force =     0.03394732   -0.03789212   -2.31689285
     The ionic contribution  to forces
     atom    1 type  1   force =     0.48621792    0.05984537    1.69913765
     atom    2 type  2   force =    -0.16931620   -0.22650197   38.57441677
     atom    3 type  2   force =    -0.01544213   -0.18218806  -37.86046284
     atom    4 type  1   force =     0.00814895    0.51546098   -0.88561753
     atom    5 type  2   force =     0.26756581    1.09486287   37.78315021
     atom    6 type  2   force =     0.24224923   -0.45469378  -38.80155203
     atom    7 type  1   force =    -2.39605891   -1.16415067    1.21119829
     atom    8 type  2   force =    -1.11088572    0.47449229   37.94550862
     atom    9 type  2   force =     0.36041532    0.10188288  -38.45833185
     atom   10 type  1   force =    -0.42195437   -0.49144739    2.50797899
     atom   11 type  2   force =    -0.36547476   -1.41964545   38.39760119
     atom   12 type  2   force =     0.20445218    0.35309152  -38.28062375
     atom   13 type  1   force =     0.18054085   -0.54567942   -1.46857458
     atom   14 type  2   force =     0.56645360   -1.01158478   38.10895755
     atom   15 type  2   force =     0.14001321   -0.20913885  -38.18607670
     atom   16 type  1   force =     0.64855228    3.86992314   -1.83989620
     atom   17 type  2   force =     0.97929985    0.95908951   28.13878073
     atom   18 type  2   force =    -0.12816037   -0.39788608  -38.56323149
     atom   19 type  1   force =     2.72024508   -0.96131315    1.08283924
     atom   20 type  2   force =    -0.00289383    0.15702941  -39.48079406
     atom   21 type  1   force =     0.25575082   -0.76984892    0.58530803
     atom   22 type  2   force =     0.44656662   -1.36576826   38.25777125
     atom   23 type  2   force =    -0.17618529    0.34748982  -38.27274641
     atom   24 type  1   force =    -0.62002278   -0.11723779    0.45100376
     atom   25 type  2   force =    -0.43813161   -0.88822700   38.27322043
     atom   26 type  2   force =    -0.14607344   -0.14613645  -38.37784108
     atom   27 type  1   force =    -0.90894504    0.89154063   -3.92152743
     atom   28 type  2   force =    -0.99191255    0.41453305   37.31963082
     atom   29 type  2   force =    -0.06646572   -0.15811292  -38.48986645
     atom   30 type  1   force =    -0.34360762   -0.06025601    0.95266803
     atom   31 type  2   force =     0.61477631    1.24945818   37.54359992
     atom   32 type  2   force =    -0.32558284    0.17697207  -38.75591137
     atom   33 type  1   force =     0.28478728   -0.93507658    1.98307797
     atom   34 type  2   force =    -0.14318783   -0.46180482   38.73727563
     atom   35 type  2   force =    -0.08860195    0.17765321  -37.89942784
     atom   36 type  3   force =     0.45286766    1.12337342   49.98935654
     The local contribution  to forces
     atom    1 type  1   force =    -0.48373316   -0.08525364   -1.69236126
     atom    2 type  2   force =     0.17010767    0.23584132  -38.32536750
     atom    3 type  2   force =     0.01787888    0.19038073   37.61233069
     atom    4 type  1   force =    -0.00909078   -0.52502924    0.87312261
     atom    5 type  2   force =    -0.26624482   -1.07972546  -37.54434846
     atom    6 type  2   force =    -0.24380984    0.45624713   38.56085082
     atom    7 type  1   force =     2.41369979    1.15083303   -1.19218840
     atom    8 type  2   force =     1.10304842   -0.47472331  -37.69583388
     atom    9 type  2   force =    -0.35345301   -0.08569049   38.20921122
     atom   10 type  1   force =     0.41953702    0.48500300   -2.51002559
     atom   11 type  2   force =     0.36015874    1.41987678  -38.15762627
     atom   12 type  2   force =    -0.19738892   -0.33831046   38.03862882
     atom   13 type  1   force =    -0.17919748    0.51453629    1.46098836
     atom   14 type  2   force =    -0.56599421    1.02045830  -37.85700929
     atom   15 type  2   force =    -0.13863517    0.21925215   37.94493924
     atom   16 type  1   force =    -0.63638952   -3.88956284    1.86048938
     atom   17 type  2   force =    -0.96347362   -0.96285326  -28.42679612
     atom   18 type  2   force =     0.12840920    0.40141603   38.30641493
     atom   19 type  1   force =    -2.73038197    0.96047973   -1.05901431
     atom   20 type  2   force =     0.00243002   -0.14482878   39.23971687
     atom   21 type  1   force =    -0.25756433    0.74572716   -0.58839663
     atom   22 type  2   force =    -0.44181437    1.36558199  -38.01737261
     atom   23 type  2   force =     0.16700462   -0.33369079   38.02731402
     atom   24 type  1   force =     0.61795333    0.10250596   -0.44950069
     atom   25 type  2   force =     0.43660324    0.89747851  -38.02329032
     atom   26 type  2   force =     0.14322653    0.15533663   38.13260982
     atom   27 type  1   force =     0.89828232   -0.88802343    3.89656489
     atom   28 type  2   force =     0.99353850   -0.40872750  -37.06157712
     atom   29 type  2   force =     0.06735549    0.16614939   38.24520596
     atom   30 type  1   force =     0.34372852    0.04125975   -0.95971107
     atom   31 type  2   force =    -0.60842934   -1.24991826  -37.29455325
     atom   32 type  2   force =     0.31984362   -0.16338696   38.50652483
     atom   33 type  1   force =    -0.27852101    0.93007588   -1.98260561
     atom   34 type  2   force =     0.14195007    0.47038926  -38.48289485
     atom   35 type  2   force =     0.08821033   -0.16383612   37.65359747
     atom   36 type  3   force =    -0.48529348   -1.08610722  -47.69859633
     The core correction contribution to forces
     atom    1 type  1   force =     0.00000000    0.00000000    0.00000000
     atom    2 type  2   force =     0.00003707    0.00044803    0.02094222
     atom    3 type  2   force =     0.00001073    0.00033254   -0.02093921
     atom    4 type  1   force =     0.00000000    0.00000000    0.00000000
     atom    5 type  2   force =    -0.00006233    0.00072388    0.02085239
     atom    6 type  2   force =     0.00009188   -0.00052242   -0.02076028
     atom    7 type  1   force =     0.00000000    0.00000000    0.00000000
     atom    8 type  2   force =    -0.00034098    0.00026414    0.02110913
     atom    9 type  2   force =     0.00077911    0.00082964   -0.02098800
     atom   10 type  1   force =     0.00000000    0.00000000    0.00000000
     atom   11 type  2   force =    -0.00009174   -0.00030298    0.02074644
     atom   12 type  2   force =     0.00062198    0.00108244   -0.02081405
     atom   13 type  1   force =     0.00000000    0.00000000    0.00000000
     atom   14 type  2   force =    -0.00002062    0.00014997    0.02131885
     atom   15 type  2   force =     0.00015342    0.00043590   -0.02065945
     atom   16 type  1   force =     0.00000000    0.00000000    0.00000000
     atom   17 type  2   force =     0.00105428   -0.00027637   -0.00999681
     atom   18 type  2   force =     0.00001886   -0.00029186   -0.02123714
     atom   19 type  1   force =     0.00000000    0.00000000    0.00000000
     atom   20 type  2   force =    -0.00002891    0.00074379   -0.02118347
     atom   21 type  1   force =     0.00000000    0.00000000    0.00000000
     atom   22 type  2   force =     0.00003834   -0.00023442    0.02070404
     atom   23 type  2   force =    -0.00070809    0.00099903   -0.02088265
     atom   24 type  1   force =     0.00000000    0.00000000    0.00000000
     atom   25 type  2   force =    -0.00015973    0.00047671    0.02122638
     atom   26 type  2   force =    -0.00021770    0.00035441   -0.02090792
     atom   27 type  1   force =     0.00000000    0.00000000    0.00000000
     atom   28 type  2   force =     0.00014007    0.00049562    0.02153567
     atom   29 type  2   force =     0.00002859    0.00019445   -0.02069731
     atom   30 type  1   force =     0.00000000    0.00000000    0.00000000
     atom   31 type  2   force =     0.00039303    0.00022765    0.02123257
     atom   32 type  2   force =    -0.00054153    0.00079129   -0.02102290
     atom   33 type  1   force =     0.00000000    0.00000000    0.00000000
     atom   34 type  2   force =    -0.00008311    0.00033228    0.02132500
     atom   35 type  2   force =    -0.00005240    0.00086292   -0.02095758
     atom   36 type  3   force =    -0.00035534    0.00037947    0.02459089
     The Hubbard contrib.    to forces
     atom    1 type  1   force =     0.00000000    0.00000000    0.00000000
     atom    2 type  2   force =     0.00000000    0.00000000    0.00000000
     atom    3 type  2   force =     0.00000000    0.00000000    0.00000000
     atom    4 type  1   force =     0.00000000    0.00000000    0.00000000
     atom    5 type  2   force =     0.00000000    0.00000000    0.00000000
     atom    6 type  2   force =     0.00000000    0.00000000    0.00000000
     atom    7 type  1   force =     0.00000000    0.00000000    0.00000000
     atom    8 type  2   force =     0.00000000    0.00000000    0.00000000
     atom    9 type  2   force =     0.00000000    0.00000000    0.00000000
     atom   10 type  1   force =     0.00000000    0.00000000    0.00000000
     atom   11 type  2   force =     0.00000000    0.00000000    0.00000000
     atom   12 type  2   force =     0.00000000    0.00000000    0.00000000
     atom   13 type  1   force =     0.00000000    0.00000000    0.00000000
     atom   14 type  2   force =     0.00000000    0.00000000    0.00000000
     atom   15 type  2   force =     0.00000000    0.00000000    0.00000000
     atom   16 type  1   force =     0.00000000    0.00000000    0.00000000
     atom   17 type  2   force =     0.00000000    0.00000000    0.00000000
     atom   18 type  2   force =     0.00000000    0.00000000    0.00000000
     atom   19 type  1   force =     0.00000000    0.00000000    0.00000000
     atom   20 type  2   force =     0.00000000    0.00000000    0.00000000
     atom   21 type  1   force =     0.00000000    0.00000000    0.00000000
     atom   22 type  2   force =     0.00000000    0.00000000    0.00000000
     atom   23 type  2   force =     0.00000000    0.00000000    0.00000000
     atom   24 type  1   force =     0.00000000    0.00000000    0.00000000
     atom   25 type  2   force =     0.00000000    0.00000000    0.00000000
     atom   26 type  2   force =     0.00000000    0.00000000    0.00000000
     atom   27 type  1   force =     0.00000000    0.00000000    0.00000000
     atom   28 type  2   force =     0.00000000    0.00000000    0.00000000
     atom   29 type  2   force =     0.00000000    0.00000000    0.00000000
     atom   30 type  1   force =     0.00000000    0.00000000    0.00000000
     atom   31 type  2   force =     0.00000000    0.00000000    0.00000000
     atom   32 type  2   force =     0.00000000    0.00000000    0.00000000
     atom   33 type  1   force =     0.00000000    0.00000000    0.00000000
     atom   34 type  2   force =     0.00000000    0.00000000    0.00000000
     atom   35 type  2   force =     0.00000000    0.00000000    0.00000000
     atom   36 type  3   force =     0.00000000    0.00000000    0.00000000
     The SCF correction term to forces
     atom    1 type  1   force =     0.00001747   -0.00001273   -0.00000663
     atom    2 type  2   force =     0.00000660   -0.00000049    0.00000073
     atom    3 type  2   force =     0.00000668    0.00000529   -0.00000332
     atom    4 type  1   force =     0.00001872    0.00000734   -0.00001701
     atom    5 type  2   force =     0.00001333   -0.00000300   -0.00000885
     atom    6 type  2   force =    -0.00000118   -0.00000011   -0.00000565
     atom    7 type  1   force =     0.00000273    0.00000836   -0.00001822
     atom    8 type  2   force =     0.00000429    0.00001006   -0.00000637
     atom    9 type  2   force =     0.00000034   -0.00000007   -0.00000543
     atom   10 type  1   force =     0.00000379   -0.00001112    0.00000619
     atom   11 type  2   force =     0.00000454   -0.00000112   -0.00000056
     atom   12 type  2   force =    -0.00000024   -0.00000963    0.00000007
     atom   13 type  1   force =    -0.00001217   -0.00000581   -0.00000647
     atom   14 type  2   force =     0.00000170   -0.00000975   -0.00000481
     atom   15 type  2   force =     0.00000126   -0.00000122   -0.00000663
     atom   16 type  1   force =     0.00000366    0.00000267   -0.00002437
     atom   17 type  2   force =    -0.00001587   -0.00000635   -0.00001699
     atom   18 type  2   force =    -0.00000931    0.00000351   -0.00001422
     atom   19 type  1   force =    -0.00000913    0.00002237   -0.00002618
     atom   20 type  2   force =     0.00000265    0.00001081   -0.00000917
     atom   21 type  1   force =    -0.00000513   -0.00001199   -0.00000158
     atom   22 type  2   force =     0.00000413    0.00000356   -0.00000380
     atom   23 type  2   force =     0.00000181   -0.00000601   -0.00000678
     atom   24 type  1   force =    -0.00001146   -0.00000303   -0.00000323
     atom   25 type  2   force =    -0.00000705   -0.00000370   -0.00000000
     atom   26 type  2   force =    -0.00000262   -0.00000067   -0.00000668
     atom   27 type  1   force =    -0.00000481   -0.00000587   -0.00001916
     atom   28 type  2   force =    -0.00000075   -0.00000731   -0.00000331
     atom   29 type  2   force =    -0.00000362   -0.00000161   -0.00001124
     atom   30 type  1   force =    -0.00001445    0.00000374   -0.00001108
     atom   31 type  2   force =    -0.00000938    0.00000644   -0.00000341
     atom   32 type  2   force =    -0.00000167    0.00000102   -0.00001716
     atom   33 type  1   force =    -0.00001431    0.00000475   -0.00000734
     atom   34 type  2   force =    -0.00000392    0.00000616    0.00000266
     atom   35 type  2   force =     0.00000472   -0.00000425   -0.00000224
     atom   36 type  3   force =    -0.00005151   -0.00000428   -0.00001789

     Total force =     0.007121     Total SCF correction =     0.000106
     Energy error            =      8.8E-05 Ry
     Gradient error          =      2.6E-03 Ry/Bohr

     bfgs converged in  18 scf cycles and  17 bfgs steps
     (criteria: energy <  1.0E-04 Ry, force <  1.0E-02 Ry/Bohr)

     End of BFGS Geometry Optimization

     Final energy             =   -2246.4442674167 Ry

     File ./MoS2-V-O.bfgs deleted, as requested
Begin final coordinates

ATOMIC_POSITIONS (angstrom)
Mo            6.5426400022        1.7676518469        2.7700123409
S             8.1218496476        0.8597238560        4.3686902681
S             8.1177030682        0.8438958111        1.1821334965
Mo            8.1069830094        4.4908859860        2.7103679656
S             6.5010482625        3.6930125635        4.3218231636
S             6.5461813731        3.5559333551        1.1072518442
Mo            6.5289525139        7.1835606855        2.6625636790
S             8.0915075395        6.3038690505        4.3009426109
S             8.1508094600        6.3277454167        1.1116965014
Mo            8.1310227447        9.9386550609        2.7757956664
S             6.5231571906        8.9409065833        4.3283914113
S             6.5913889308        9.0375335299        1.1336039907
Mo            3.4091163386        1.7169486324        2.7468115454
S             4.9786625377        0.8149260964        4.3557159820
S             4.9963899099        0.8286383612        1.1674198211
Mo            5.0102507038        4.5650175129        2.6479120697
S             3.4454175838        3.6429349960        4.2137149382
S             3.4295766524        3.5593838490        1.1309569288
Mo            3.4741409633        7.1840577389        2.6680999063
S             5.0018144740        6.3382912662        1.0297062317
Mo            4.9964428598        9.9079655021        2.7394566108
S             3.4643750582        8.9456549935        4.3265386189
S             3.3995583894        9.0350027225        1.1337629949
Mo            0.2541225277        1.7437088797        2.7593083605
S             1.8369311449        0.8450603674        4.3681566778
S             1.8205922151        0.8242595577        1.1608007700
Mo            1.8363460298        4.5108842232        2.6930525133
S             0.2591476834        3.6124723425        4.3051711471
S             0.2427603810        3.5538513694        1.1311207593
Mo            0.2730225724        7.2176781836        2.7370315601
S             1.9100636257        6.3006065159        4.3069701812
S             1.8518699043        6.3447260476        1.0999541480
Mo            1.8410843404        9.9362215315        2.7704149603
S             0.2614974294        9.0246902412        4.3655748016
S             0.2571906379        9.0542015848        1.1761333723
O             3.4209826400        3.6733568164        5.7132820340
End final coordinates



     Writing all to output data dir ./MoS2-V-O.save/
 
     init_run     :      4.87s CPU      5.45s WALL (       1 calls)
     electrons    :   1650.28s CPU   1890.31s WALL (      18 calls)
     update_pot   :     56.98s CPU     61.41s WALL (      17 calls)
     forces       :     57.60s CPU     67.44s WALL (      18 calls)

     Called by init_run:
     wfcinit      :      0.55s CPU      0.61s WALL (       1 calls)
     potinit      :      2.51s CPU      2.80s WALL (       1 calls)
     hinit0       :      0.44s CPU      0.46s WALL (       1 calls)

     Called by electrons:
     c_bands      :    262.13s CPU    270.60s WALL (     161 calls)
     sum_band     :    106.14s CPU    146.76s WALL (     161 calls)
     v_of_rho     :    202.34s CPU    245.88s WALL (     170 calls)
     newd         :     65.43s CPU    103.31s WALL (     170 calls)
     PAW_pot      :      6.88s CPU      6.91s WALL (     187 calls)
     mix_rho      :   1032.10s CPU   1145.91s WALL (     161 calls)

     Called by c_bands:
     init_us_2    :      3.74s CPU      4.04s WALL (     340 calls)
     init_us_2:cp :      3.73s CPU      4.03s WALL (     340 calls)
     regterg      :    249.92s CPU    258.06s WALL (     161 calls)

     Called by *egterg:
     rdiaghg      :     14.47s CPU     14.63s WALL (     811 calls)
     h_psi        :    148.02s CPU    149.37s WALL (     838 calls)
     s_psi        :     12.90s CPU     12.95s WALL (     838 calls)
     g_psi        :      1.50s CPU      1.51s WALL (     676 calls)

     Called by h_psi:
     h_psi:calbec :     16.30s CPU     16.40s WALL (     838 calls)
     vloc_psi     :    115.76s CPU    116.92s WALL (     838 calls)
     add_vuspsi   :     12.78s CPU     12.86s WALL (     838 calls)

     General routines
     calbec       :     23.79s CPU     23.93s WALL (    1088 calls)
     fft          :    149.99s CPU    167.61s WALL (   11422 calls)
     ffts         :    457.37s CPU    567.13s WALL (  253565 calls)
     fftw         :     73.63s CPU     74.24s WALL (   98400 calls)
     interpolate  :      2.21s CPU      2.51s WALL (     170 calls)
 
     Parallel routines
 
     PWSCF        :  29m38.89s CPU  33m58.81s WALL

 
   This run was terminated on:  15:45:41   1Nov2023            

=------------------------------------------------------------------------------=
   JOB DONE.
=------------------------------------------------------------------------------=
