
     Program PWSCF v.7.2 starts on  1Nov2023 at 21:53:39 

     This program is part of the open-source Quantum ESPRESSO suite
     for quantum simulation of materials; please cite
         "P. Giannozzi et al., J. Phys.:Condens. Matter 21 395502 (2009);
         "P. Giannozzi et al., J. Phys.:Condens. Matter 29 465901 (2017);
         "P. Giannozzi et al., J. Chem. Phys. 152 154105 (2020);
          URL http://www.quantum-espresso.org", 
     in publications or presentations arising from this work. More details at
     http://www.quantum-espresso.org/quote

     Parallel version (MPI & OpenMP), running on      48 processor cores
     Number of MPI processes:                48
     Threads/MPI process:                     1

     MPI processes distributed on     1 nodes
     43379 MiB available memory on the printing compute node when the environment starts
 
     Waiting for input...
     Reading input from standard input
Warning: card &CELL ignored
Warning: card CELL_DYNAMICS = 'BFGS', ignored
Warning: card CELL_DOFREE = '2DXY' ignored
Warning: card / ignored

     Current dimensions of program PWSCF are:
     Max number of different atomic species (ntypx) = 10
     Max number of k-points (npk) =  40000
     Max angular momentum in pseudopotentials (lmaxx) =  4
     file O.pbe-n-kjpaw_psl.0.1.UPF: wavefunction(s)  2P renormalized

     IMPORTANT: XC functional enforced from input :
     Exchange-correlation= RVV10
                           (   1   4  13   4  26   0   0)
     Any further DFT definition will be discarded
     Please, verify this is what you really want


     gamma-point specific algorithms are used
     signal trapping enabled: kill the code with -SIGUSR1 to stop cleanly the simulation 
 
     R & G space division:  proc/nbgrp/npool/nimage =      48
     Subspace diagonalization in iterative solution of the eigenvalue problem:
     one sub-group per band group will be used
     scalapack distributed-memory algorithm (size of sub-group:  2*  2 procs)

 
     Parallelization info
     --------------------
     sticks:   dense  smooth     PW     G-vecs:    dense   smooth      PW
     Min         396     194     47               101632    35090    4376
     Max         398     196     50               101674    35128    4410
     Sum       19091    9389   2349              4879585  1685513  210763
 
     Using Slab Decomposition
 


     bravais-lattice index     =            0
     lattice parameter (alat)  =      17.8707  a.u.
     unit-cell volume          =   17436.2743 (a.u.)^3
     number of atoms/cell      =           36
     number of atomic types    =            3
     number of electrons       =       312.00
     number of Kohn-Sham states=          187
     kinetic-energy cutoff     =      80.0000  Ry
     charge density cutoff     =     650.0000  Ry
     scf convergence threshold =      1.0E-06
     mixing beta               =       0.7000
     number of iterations used =            8  local-TF  mixing
     energy convergence thresh.=      1.0E-04
     force convergence thresh. =      1.0E-02
     Exchange-correlation= RVV10
                           (   1   4  13   4  26   0   0)
     nstep                     =          200


     celldm(1)=  17.870686  celldm(2)=   0.000000  celldm(3)=   0.000000
     celldm(4)=   0.000000  celldm(5)=   0.000000  celldm(6)=   0.000000

     crystal axes: (cart. coord. in units of alat)
               a(1) = (   1.000000   0.000000   0.000000 )  
               a(2) = (   0.000000   1.155671   0.000000 )  
               a(3) = (   0.000000   0.000000   2.643601 )  

     reciprocal axes: (cart. coord. in units 2 pi/alat)
               b(1) = (  1.000000  0.000000  0.000000 )  
               b(2) = (  0.000000  0.865298  0.000000 )  
               b(3) = (  0.000000  0.000000  0.378272 )  


     PseudoPot. # 1 for Mo read from file:
     ../pseudo/Mo_ONCV_PBE-1.0.oncvpsp.upf
     MD5 check sum: 1b5d28e075c9ccadda658a603575cd1f
     Pseudo is Norm-conserving, Zval = 14.0
     Generated using ONCVPSP code by D. R. Hamann
     Using radial grid of 1526 points,  6 beta functions with: 
                l(1) =   0
                l(2) =   0
                l(3) =   1
                l(4) =   1
                l(5) =   2
                l(6) =   2

     PseudoPot. # 2 for S  read from file:
     ../pseudo/s_pbe_v1.4.uspp.F.UPF
     MD5 check sum: 88d86576ff6df21479756cfb9bdac1df
     Pseudo is Ultrasoft + core correction, Zval =  6.0
     Generated by new atomic code, or converted to UPF format
     Using radial grid of  907 points,  6 beta functions with: 
                l(1) =   0
                l(2) =   0
                l(3) =   1
                l(4) =   1
                l(5) =   2
                l(6) =   2
     Q(r) pseudized with  8 coefficients,  rinner =    1.300   1.300   1.300
                                                       1.300   1.300

     PseudoPot. # 3 for O  read from file:
     ../pseudo/O.pbe-n-kjpaw_psl.0.1.UPF
     MD5 check sum: 0234752ac141de4415c5fc33072bef88
     Pseudo is Projector augmented-wave + core cor, Zval =  6.0
     Generated using "atomic" code by A. Dal Corso  v.5.0.99 svn rev. 10869
     Shape of augmentation charge: BESSEL
     Using radial grid of 1095 points,  4 beta functions with: 
                l(1) =   0
                l(2) =   0
                l(3) =   1
                l(4) =   1
     Q(r) pseudized with 0 coefficients 


     atomic species   valence    mass     pseudopotential
        Mo            14.00    95.94000     Mo( 1.00)
        S              6.00    32.06500     S ( 1.00)
        O              6.00    15.99940     O ( 1.00)

     No symmetry found



   Cartesian axes

     site n.     atom                  positions (alat units)
         1           Mo  tau(   1) = (   0.6952221   0.1890506   0.2985846  )
         2           S   tau(   2) = (   0.8646417   0.0856217   0.4689279  )
         3           S   tau(   3) = (   0.8663890   0.0857843   0.1351291  )
         4           Mo  tau(   4) = (   0.8560186   0.4753274   0.2873942  )
         5           S   tau(   5) = (   0.6873294   0.3936244   0.4596353  )
         6           S   tau(   6) = (   0.6929804   0.3713468   0.1185692  )
         7           Mo  tau(   7) = (   0.6862796   0.7633098   0.2825370  )
         8           S   tau(   8) = (   0.8545980   0.6708292   0.4486168  )
         9           S   tau(   9) = (   0.8545123   0.6666874   0.1146125  )
        10           Mo  tau(  10) = (   0.8629403   1.0471007   0.3006803  )
        11           S   tau(  11) = (   0.6868280   0.9456650   0.4634891  )
        12           S   tau(  12) = (   0.6998113   0.9568511   0.1205389  )
        13           Mo  tau(  13) = (   0.3618216   0.1847309   0.2935964  )
        14           S   tau(  14) = (   0.5260962   0.0863870   0.4600448  )
        15           S   tau(  15) = (   0.5348379   0.0894875   0.1297123  )
        16           Mo  tau(  16) = (   0.5265817   0.4772436   0.2784130  )
        17           S   tau(  17) = (   0.3624753   0.3882513   0.4525556  )
        18           S   tau(  18) = (   0.3635411   0.3752055   0.1119148  )
        19           Mo  tau(  19) = (   0.3652268   0.7630864   0.2781795  )
        20           S   tau(  20) = (   0.5269494   0.6690381   0.1096838  )
        21           Mo  tau(  21) = (   0.5300192   1.0470394   0.2900995  )
        22           S   tau(  22) = (   0.3670346   0.9457522   0.4574073  )
        23           S   tau(  23) = (   0.3604225   0.9585725   0.1159032  )
        24           Mo  tau(  24) = (   0.0313099   0.1847895   0.3013130  )
        25           S   tau(  25) = (   0.1956761   0.0838230   0.4650863  )
        26           S   tau(  26) = (   0.1967693   0.0903508   0.1278874  )
        27           Mo  tau(  27) = (   0.1967578   0.4753919   0.2813011  )
        28           S   tau(  28) = (   0.0287851   0.3864324   0.4586755  )
        29           S   tau(  29) = (   0.0244514   0.3729871   0.1239344  )
        30           Mo  tau(  30) = (   0.0286728   0.7631204   0.2856894  )
        31           S   tau(  31) = (   0.2011512   0.6675435   0.4465001  )
        32           S   tau(  32) = (   0.1969214   0.6672839   0.1104564  )
        33           Mo  tau(  33) = (   0.1950294   1.0511147   0.2932237  )
        34           S   tau(  34) = (   0.0312912   0.9612169   0.4667423  )
        35           S   tau(  35) = (   0.0292670   0.9563028   0.1216485  )
        36           O   tau(  36) = (   0.5555556   1.0272628   0.5391074  )

     number of k points=     1  Gaussian smearing, width (Ry)=  0.0100
                       cart. coord. in units 2pi/alat
        k(    1) = (   0.0000000   0.0000000   0.0000000), wk =   2.0000000

     Dense  grid:  2439793 G-vectors     FFT dimensions: ( 150, 180, 384)

     Smooth grid:   842757 G-vectors     FFT dimensions: ( 108, 120, 270)

     Estimated max dynamical RAM per process >     269.22 MB

     Estimated total dynamical RAM >      12.62 GB

     Initial potential from superposition of free atoms

     starting charge     311.9873, renormalised to     312.0000

     negative rho (up, down):  2.746E-04 0.000E+00


---------------------------------------------------------------------------------
Carrying out rVV10 run using the following parameters:
Nqs =      20    Nr_points =    1024   r_max =   100.000
b_value =  6.30000    beta =  0.00901
     q_mesh =  0.00010000  0.00030000  0.00058939  0.00100810
               0.00161396  0.00249058  0.00375900  0.00559430
               0.00824984  0.01209221  0.01765183  0.02569619
               0.03733578  0.05417739  0.07854596  0.11380545
               0.16482331  0.23864234  0.34545298  0.50000000

Gradients computed in Reciprocal space

---------------------------------------------------------------------------------


     Starting wfcs are  216 randomized atomic wfcs
     Checking if some PAW data can be deallocated... 

     total cpu time spent up to now is        5.2 secs

     Self-consistent Calculation

     iteration #  1     ecut=    80.00 Ry     beta= 0.70
     Davidson diagonalization with overlap
     ethr =  1.00E-02,  avg # of iterations =  2.0

     Threshold (ethr) on eigenvalues was too large:
     Diagonalizing with lowered threshold

     Davidson diagonalization with overlap
     ethr =  4.25E-04,  avg # of iterations =  4.0

     negative rho (up, down):  3.088E-08 0.000E+00

     total cpu time spent up to now is       19.7 secs

     total energy              =   -2246.13323721 Ry
     estimated scf accuracy    <       1.57819235 Ry

     iteration #  2     ecut=    80.00 Ry     beta= 0.70
     Davidson diagonalization with overlap
     ethr =  5.06E-04,  avg # of iterations =  4.0

     total cpu time spent up to now is       25.0 secs

     total energy              =   -2246.12524594 Ry
     estimated scf accuracy    <       1.04017049 Ry

     iteration #  3     ecut=    80.00 Ry     beta= 0.70
     Davidson diagonalization with overlap
     ethr =  3.33E-04,  avg # of iterations =  2.0

     total cpu time spent up to now is       29.0 secs

     total energy              =   -2246.11086257 Ry
     estimated scf accuracy    <       0.31423605 Ry

     iteration #  4     ecut=    80.00 Ry     beta= 0.70
     Davidson diagonalization with overlap
     ethr =  1.01E-04,  avg # of iterations =  2.0

     total cpu time spent up to now is       32.9 secs

     total energy              =   -2246.14978215 Ry
     estimated scf accuracy    <       0.04821277 Ry

     iteration #  5     ecut=    80.00 Ry     beta= 0.70
     Davidson diagonalization with overlap
     ethr =  1.55E-05,  avg # of iterations = 20.0

     total cpu time spent up to now is       37.9 secs

     total energy              =   -2246.15347196 Ry
     estimated scf accuracy    <       0.02141577 Ry

     iteration #  6     ecut=    80.00 Ry     beta= 0.70
     Davidson diagonalization with overlap
     ethr =  6.86E-06,  avg # of iterations =  2.0

     total cpu time spent up to now is       41.5 secs

     total energy              =   -2246.15339926 Ry
     estimated scf accuracy    <       0.01524014 Ry

     iteration #  7     ecut=    80.00 Ry     beta= 0.70
     Davidson diagonalization with overlap
     ethr =  4.88E-06,  avg # of iterations =  1.0

     total cpu time spent up to now is       45.0 secs

     total energy              =   -2246.15216992 Ry
     estimated scf accuracy    <       0.01139463 Ry

     iteration #  8     ecut=    80.00 Ry     beta= 0.70
     Davidson diagonalization with overlap
     ethr =  3.65E-06,  avg # of iterations =  2.0

     negative rho (up, down):  1.393E-04 0.000E+00

     total cpu time spent up to now is       51.3 secs

     total energy              =   -2246.15031154 Ry
     estimated scf accuracy    <       0.00671497 Ry

     iteration #  9     ecut=    80.00 Ry     beta= 0.70
     Davidson diagonalization with overlap
     ethr =  2.15E-06,  avg # of iterations = 18.0

     negative rho (up, down):  1.826E-02 0.000E+00

     total cpu time spent up to now is       58.2 secs

     total energy              =   -2246.14999559 Ry
     estimated scf accuracy    <       0.00309469 Ry

     iteration # 10     ecut=    80.00 Ry     beta= 0.70
     Davidson diagonalization with overlap
     ethr =  9.92E-07,  avg # of iterations =  2.0

     negative rho (up, down):  2.569E-02 0.000E+00

     total cpu time spent up to now is       65.3 secs

     total energy              =   -2246.14982675 Ry
     estimated scf accuracy    <       0.00154697 Ry

     iteration # 11     ecut=    80.00 Ry     beta= 0.70
     Davidson diagonalization with overlap
     ethr =  4.96E-07,  avg # of iterations =  2.0

     negative rho (up, down):  2.475E-02 0.000E+00

     total cpu time spent up to now is       71.9 secs

     total energy              =   -2246.14991288 Ry
     estimated scf accuracy    <       0.00053093 Ry

     iteration # 12     ecut=    80.00 Ry     beta= 0.70
     Davidson diagonalization with overlap
     ethr =  1.70E-07,  avg # of iterations =  2.0

     negative rho (up, down):  6.945E-03 0.000E+00

     total cpu time spent up to now is       78.8 secs

     total energy              =   -2246.14983628 Ry
     estimated scf accuracy    <       0.00010328 Ry

     iteration # 13     ecut=    80.00 Ry     beta= 0.70
     Davidson diagonalization with overlap
     ethr =  3.31E-08,  avg # of iterations =  5.0

     negative rho (up, down):  2.004E-03 0.000E+00

     total cpu time spent up to now is       86.6 secs

     total energy              =   -2246.14988532 Ry
     estimated scf accuracy    <       0.00000790 Ry

     iteration # 14     ecut=    80.00 Ry     beta= 0.70
     Davidson diagonalization with overlap
     ethr =  2.53E-09,  avg # of iterations =  8.0

     negative rho (up, down):  7.442E-04 0.000E+00

     total cpu time spent up to now is      101.8 secs

     total energy              =   -2246.14989147 Ry
     estimated scf accuracy    <       0.00000201 Ry

     iteration # 15     ecut=    80.00 Ry     beta= 0.70
     Davidson diagonalization with overlap
     ethr =  6.43E-10,  avg # of iterations =  2.0

     negative rho (up, down):  1.875E-04 0.000E+00

     total cpu time spent up to now is      105.3 secs

     End of self-consistent calculation

          k = 0.0000 0.0000 0.0000 (105382 PWs)   bands (ev):

   -63.1279 -62.8697 -62.8568 -62.8495 -62.8323 -62.8194 -62.8136 -62.8056
   -62.7907 -62.7630 -62.7516 -62.7298 -37.4573 -37.3353 -37.2734 -37.1732
   -37.1528 -37.1342 -37.1097 -37.0812 -37.0667 -37.0656 -37.0525 -37.0471
   -37.0392 -37.0332 -37.0243 -37.0166 -37.0136 -37.0019 -36.9920 -36.9711
   -36.9651 -36.9533 -36.9466 -36.9380 -36.9378 -36.9289 -36.9150 -36.9013
   -36.8971 -36.8747 -36.8543 -36.8381 -36.8365 -36.7815 -36.7351 -36.7318
   -22.5771 -15.9244 -15.3016 -15.1587 -15.1110 -14.9245 -14.7790 -14.6556
   -14.5322 -14.4869 -14.4536 -14.4016 -14.3790 -14.3324 -14.2334 -14.1734
   -14.1142 -14.1043 -14.0763 -13.9031 -13.8966 -13.8475 -13.8282 -13.7235
    -8.8120  -8.2503  -7.9916  -7.4760  -7.3991  -7.2852  -7.2436  -7.1771
    -7.1282  -6.9664  -6.9194  -6.8060  -6.7657  -6.7256  -6.6544  -6.5712
    -6.5177  -6.4078  -6.3657  -6.2778  -6.1936  -6.0206  -5.9353  -5.8650
    -5.8368  -5.7833  -5.7531  -5.7195  -5.6819  -5.6672  -5.6223  -5.5615
    -5.5274  -5.4762  -5.3863  -5.3093  -5.2659  -5.1289  -5.0626  -5.0098
    -5.0051  -4.9895  -4.8956  -4.8579  -4.7717  -4.6169  -4.5071  -4.3938
    -4.3285  -4.2186  -4.1397  -4.1083  -3.9892  -3.9657  -3.9120  -3.8251
    -3.7661  -3.6760  -3.6443  -3.6216  -3.5419  -3.5136  -3.4952  -3.4891
    -3.4432  -3.4004  -3.2748  -3.2339  -3.1304  -3.0662  -3.0006  -2.7879
    -2.7694  -2.7313  -2.7244  -2.6724  -2.6488  -2.5912  -2.3226  -2.2441
    -2.0385  -1.9395  -1.7004  -1.2404  -1.0595  -0.7754  -0.6198  -0.2124
    -0.1431  -0.0924  -0.0398   0.0562   0.1314   0.1601   0.1968   0.2369
     0.3417   0.3704   0.4513   0.4899   0.5301   0.5550   0.5735   0.6227
     0.6752   0.7032   0.7367   0.7619   0.7858   0.8198   0.9178   0.9406
     1.0479   1.1745   1.2425

     the Fermi energy is    -1.1499 ev

!    total energy              =   -2246.14989225 Ry
     estimated scf accuracy    <       0.00000039 Ry
     smearing contrib. (-TS)   =      -0.00725538 Ry
     internal energy E=F+TS    =   -2246.14263686 Ry

     The total energy is F=E-TS. E is the sum of the following terms:
     one-electron contribution =  -18503.19155766 Ry
     hartree contribution      =    9240.24063928 Ry
     xc contribution           =    -392.18546983 Ry
     ewald contribution        =    7418.86079345 Ry
     one-center paw contrib.   =      -9.86704210 Ry

     convergence has been achieved in  15 iterations

     negative rho (up, down):  1.875E-04 0.000E+00

     Forces acting on atoms (cartesian axes, Ry/au):

     atom    1 type  1   force =     0.00761217   -0.02516314    0.00616258
     atom    2 type  2   force =    -0.01097072    0.01740696    0.00273772
     atom    3 type  2   force =    -0.00667835    0.00786109   -0.00633895
     atom    4 type  1   force =     0.00493627    0.00024958   -0.00072223
     atom    5 type  2   force =    -0.00181249   -0.00721300   -0.00590462
     atom    6 type  2   force =     0.00138106    0.01204329    0.00108863
     atom    7 type  1   force =    -0.01512219   -0.01584275   -0.01569346
     atom    8 type  2   force =     0.00434790   -0.00483528    0.01713908
     atom    9 type  2   force =     0.01440923    0.00351287    0.00689858
     atom   10 type  1   force =    -0.02305683    0.03242232   -0.02723696
     atom   11 type  2   force =     0.07182467   -0.05753382    0.04189686
     atom   12 type  2   force =    -0.00135074    0.00183258    0.00738853
     atom   13 type  1   force =     0.01392216    0.01851640   -0.00843392
     atom   14 type  2   force =    -0.00667305    0.09145120   -0.02523437
     atom   15 type  2   force =    -0.01310482   -0.00020284   -0.00943316
     atom   16 type  1   force =     0.00126381    0.00957586    0.00297814
     atom   17 type  2   force =     0.00655257    0.00074938    0.00178173
     atom   18 type  2   force =    -0.00364599   -0.00898129    0.01407242
     atom   19 type  1   force =    -0.00037691   -0.00538566   -0.00435527
     atom   20 type  2   force =     0.00433047   -0.00663582   -0.00146811
     atom   21 type  1   force =    -0.04732696    0.02352503   -0.04556310
     atom   22 type  2   force =    -0.09180027   -0.04426853   -0.04833725
     atom   23 type  2   force =     0.00322181    0.00547538    0.00895076
     atom   24 type  1   force =    -0.00877953    0.00110396   -0.02637966
     atom   25 type  2   force =     0.01475593    0.01849978    0.00994158
     atom   26 type  2   force =    -0.01501965   -0.00173474   -0.00784312
     atom   27 type  1   force =    -0.00243420   -0.00224203    0.00603195
     atom   28 type  2   force =     0.00064370   -0.00024115   -0.00401263
     atom   29 type  2   force =     0.00228334   -0.00003572   -0.00223170
     atom   30 type  1   force =    -0.00437122    0.01242352    0.00058544
     atom   31 type  2   force =     0.00183791    0.00216551    0.01805450
     atom   32 type  2   force =    -0.00841962    0.00403323    0.00628817
     atom   33 type  1   force =     0.00470389   -0.01343395   -0.01161641
     atom   34 type  2   force =     0.01227212   -0.04797167   -0.00807663
     atom   35 type  2   force =    -0.00668643    0.00851898    0.01157326
     atom   36 type  3   force =     0.09733099   -0.02964552    0.09531160
     The non-local contrib.  to forces
     atom    1 type  1   force =    -0.00419072    0.04323538   -0.00610473
     atom    2 type  2   force =    -0.01460328   -0.00074144   -0.26996258
     atom    3 type  2   force =    -0.00909257   -0.01254360    0.27119380
     atom    4 type  1   force =     0.00243469    0.00545037    0.00290442
     atom    5 type  2   force =     0.00324534   -0.03485202   -0.25511925
     atom    6 type  2   force =    -0.00216427    0.00991187    0.26362201
     atom    7 type  1   force =    -0.00768184    0.01210138   -0.00514419
     atom    8 type  2   force =     0.02208659   -0.00562560   -0.24654949
     atom    9 type  2   force =     0.00778431   -0.01022538    0.27670045
     atom   10 type  1   force =     0.00109535    0.00263831    0.00239183
     atom   11 type  2   force =    -0.40937668    0.29168290   -0.05712846
     atom   12 type  2   force =    -0.01626584   -0.01624051    0.25887345
     atom   13 type  1   force =     0.00222646    0.01711133   -0.00342832
     atom   14 type  2   force =     0.02060928    0.02024067   -0.27955428
     atom   15 type  2   force =    -0.01556642   -0.01608729    0.26291720
     atom   16 type  1   force =    -0.00135825    0.01909955   -0.02790182
     atom   17 type  2   force =     0.00137468   -0.02883692   -0.24914414
     atom   18 type  2   force =    -0.00387261   -0.00349281    0.27329277
     atom   19 type  1   force =     0.00278885   -0.00141805   -0.01485142
     atom   20 type  2   force =     0.00706893   -0.01892838    0.26517927
     atom   21 type  1   force =    -0.00696028    0.03409420   -0.01841867
     atom   22 type  2   force =     0.01020409    0.00133468   -0.25125510
     atom   23 type  2   force =     0.01733245   -0.00603624    0.27218360
     atom   24 type  1   force =     0.00950735    0.01435182   -0.00925832
     atom   25 type  2   force =     0.00229911    0.00929778   -0.25171877
     atom   26 type  2   force =    -0.00357061   -0.01337675    0.25862467
     atom   27 type  1   force =    -0.00549649    0.00938926    0.01012955
     atom   28 type  2   force =    -0.00461676   -0.02190226   -0.27458314
     atom   29 type  2   force =     0.00414340    0.00191839    0.26254063
     atom   30 type  1   force =     0.01168298    0.00830444    0.00827866
     atom   31 type  2   force =    -0.00538255    0.00515141   -0.25032400
     atom   32 type  2   force =    -0.00358770   -0.00918381    0.27435593
     atom   33 type  1   force =     0.00111861    0.00386343    0.00903163
     atom   34 type  2   force =     0.01406372   -0.03744713   -0.26767788
     atom   35 type  2   force =    -0.00260243   -0.00919983    0.27065296
     atom   36 type  3   force =     1.26197525   -0.80733186   -0.96710355
     The ionic contribution  to forces
     atom    1 type  1   force =     1.14244003    2.00037430    3.75964000
     atom    2 type  2   force =     0.25321572    1.19540292   38.96604709
     atom    3 type  2   force =     0.03898913    0.23508659  -36.81299591
     atom    4 type  1   force =     0.38395571    0.47033784   -0.24319521
     atom    5 type  2   force =    -0.81135787    1.73185758   38.57630329
     atom    6 type  2   force =     0.40775013   -0.39783037  -38.57773913
     atom    7 type  1   force =    -1.68859977   -4.75538107    0.05591996
     atom    8 type  2   force =    -0.58492955   -0.54301631   37.14831055
     atom    9 type  2   force =     0.45454434   -0.21822910  -38.58631006
     atom   10 type  1   force =     0.87965012   -0.14909721    3.22955683
     atom   11 type  2   force =     5.10738296   -5.17121940   35.77718407
     atom   12 type  2   force =     0.70201068    0.54637829  -39.03393866
     atom   13 type  1   force =    -0.37670940    2.47924418    1.08907760
     atom   14 type  2   force =    -0.45419086    3.79237816   37.04942085
     atom   15 type  2   force =     0.12403497    0.32159933  -37.85925885
     atom   16 type  1   force =    -0.08078539    3.75882517   -0.64257202
     atom   17 type  2   force =     0.61817627    1.72154042   37.75609408
     atom   18 type  2   force =    -0.23377448   -0.55870210  -39.09988581
     atom   19 type  1   force =     1.67765950   -4.03493277   -1.50873467
     atom   20 type  2   force =     0.20610589   -0.47233124  -39.19812990
     atom   21 type  1   force =    -0.75443935    0.68498982   -7.28728461
     atom   22 type  2   force =    -3.27184287   -3.37712492   36.70183099
     atom   23 type  2   force =    -0.36936883    0.54433634  -39.34800181
     atom   24 type  1   force =    -0.44427188    1.80221787    4.79931785
     atom   25 type  2   force =     0.00056845    0.86673778   39.00619381
     atom   26 type  2   force =    -0.44297558    0.25274956  -38.00207608
     atom   27 type  1   force =    -0.20587897    0.31137450   -3.13781378
     atom   28 type  2   force =     0.08205741    1.11897344   38.08517862
     atom   29 type  2   force =    -0.25049283   -0.36726446  -37.72874811
     atom   30 type  1   force =    -0.20499225   -1.56039941   -1.20843913
     atom   31 type  2   force =     0.92419808   -0.50654322   37.11475707
     atom   32 type  2   force =    -0.56871049   -0.16396585  -39.18736221
     atom   33 type  1   force =    -0.55612292   -0.70923878    0.12296482
     atom   34 type  2   force =     0.40486468   -1.60929185   39.11892379
     atom   35 type  2   force =    -0.26065872    0.41343327  -38.49258489
     atom   36 type  3   force =    -1.84750204    0.34673069   47.59834957
     The local contribution  to forces
     atom    1 type  1   force =    -1.13058853   -2.06869989   -3.74766503
     atom    2 type  2   force =    -0.25014142   -1.17741862  -38.71433300
     atom    3 type  2   force =    -0.03697081   -0.21517745   36.55641146
     atom    4 type  1   force =    -0.38142482   -0.47523580    0.23911569
     atom    5 type  2   force =     0.80685322   -1.70613846  -38.34786337
     atom    6 type  2   force =    -0.40449340    0.40106581   38.33609851
     atom    7 type  1   force =     1.68143451    4.72732261   -0.06698654
     atom    8 type  2   force =     0.56814011    0.54335256  -36.90509027
     atom    9 type  2   force =    -0.44775272    0.23142759   38.33757893
     atom   10 type  1   force =    -0.90368009    0.17872524   -3.25934178
     atom   11 type  2   force =    -4.64914130    4.83816327  -35.68677229
     atom   12 type  2   force =    -0.68837458   -0.52982820   38.80321373
     atom   13 type  1   force =     0.38842761   -2.47760373   -1.09447563
     atom   14 type  2   force =     0.42785625   -3.71879671  -36.81716255
     atom   15 type  2   force =    -0.12234587   -0.30655959   37.60761458
     atom   16 type  1   force =     0.08346602   -3.76837736    0.67288327
     atom   17 type  2   force =    -0.61307417   -1.69341945  -37.52566213
     atom   18 type  2   force =     0.23393312    0.55383528   38.86161900
     atom   19 type  1   force =    -1.68101072    4.03098025    1.51872645
     atom   20 type  2   force =    -0.20861460    0.48393125   38.95259466
     atom   21 type  1   force =     0.71412582   -0.69578688    7.25968870
     atom   22 type  2   force =     3.16974617    3.33134149  -36.51978065
     atom   23 type  2   force =     0.35634234   -0.53383898   39.10586701
     atom   24 type  1   force =     0.42585808   -1.81539641   -4.81675631
     atom   25 type  2   force =     0.01159556   -0.85690623  -38.76505578
     atom   26 type  2   force =     0.43160104   -0.24176177   37.75616066
     atom   27 type  1   force =     0.20881621   -0.32275614    3.13317715
     atom   28 type  2   force =    -0.07714020   -1.09891588  -37.83584716
     atom   29 type  2   force =     0.24906442    0.36605821   37.48443410
     atom   30 type  1   force =     0.18880166    1.56435145    1.20026910
     atom   31 type  2   force =    -0.91738271    0.50370891  -36.86714522
     atom   32 type  2   force =     0.56397712    0.17662470   38.94037026
     atom   33 type  1   force =     0.55955679    0.69166796   -0.14393005
     atom   34 type  2   force =    -0.40651187    1.59748724  -38.88044885
     atom   35 type  2   force =     0.25657984   -0.39676819   38.25461550
     atom   36 type  3   force =     0.69707079    0.42206000  -46.54552366
     The core correction contribution to forces
     atom    1 type  1   force =     0.00000000    0.00000000    0.00000000
     atom    2 type  2   force =     0.00054092    0.00011430    0.02069583
     atom    3 type  2   force =     0.00043056    0.00053383   -0.02090798
     atom    4 type  1   force =     0.00000000    0.00000000    0.00000000
     atom    5 type  2   force =    -0.00048844    0.00193968    0.02045724
     atom    6 type  2   force =     0.00030332   -0.00098916   -0.02089616
     atom    7 type  1   force =     0.00000000    0.00000000    0.00000000
     atom    8 type  2   force =    -0.00090822    0.00049848    0.02007271
     atom    9 type  2   force =    -0.00015306    0.00054261   -0.02098626
     atom   10 type  1   force =     0.00000000    0.00000000    0.00000000
     atom   11 type  2   force =     0.02325800   -0.01636613    0.00833979
     atom   12 type  2   force =     0.00136314    0.00131643   -0.02069586
     atom   13 type  1   force =     0.00000000    0.00000000    0.00000000
     atom   14 type  2   force =    -0.00089621   -0.00222290    0.02179348
     atom   15 type  2   force =     0.00079722    0.00097167   -0.02069102
     atom   16 type  1   force =     0.00000000    0.00000000    0.00000000
     atom   17 type  2   force =     0.00003632    0.00150552    0.02018553
     atom   18 type  2   force =     0.00004785   -0.00050076   -0.02099667
     atom   19 type  1   force =     0.00000000    0.00000000    0.00000000
     atom   20 type  2   force =    -0.00022127    0.00068397   -0.02112937
     atom   21 type  1   force =     0.00000000    0.00000000    0.00000000
     atom   22 type  2   force =    -0.00004601    0.00001805    0.02052878
     atom   23 type  2   force =    -0.00115651    0.00079003   -0.02108639
     atom   24 type  1   force =     0.00000000    0.00000000    0.00000000
     atom   25 type  2   force =     0.00023250   -0.00061596    0.02026259
     atom   26 type  2   force =    -0.00011920    0.00071684   -0.02060806
     atom   27 type  1   force =     0.00000000    0.00000000    0.00000000
     atom   28 type  2   force =     0.00031191    0.00168621    0.02094898
     atom   29 type  2   force =    -0.00042688   -0.00061148   -0.02051651
     atom   30 type  1   force =     0.00000000    0.00000000    0.00000000
     atom   31 type  2   force =     0.00032422   -0.00013468    0.02037167
     atom   32 type  2   force =    -0.00012139    0.00055036   -0.02104271
     atom   33 type  1   force =     0.00000000    0.00000000    0.00000000
     atom   34 type  2   force =    -0.00025604    0.00121507    0.02083173
     atom   35 type  2   force =    -0.00002565    0.00088534   -0.02108247
     atom   36 type  3   force =    -0.01422762    0.00893505    0.00964051
     The Hubbard contrib.    to forces
     atom    1 type  1   force =     0.00000000    0.00000000    0.00000000
     atom    2 type  2   force =     0.00000000    0.00000000    0.00000000
     atom    3 type  2   force =     0.00000000    0.00000000    0.00000000
     atom    4 type  1   force =     0.00000000    0.00000000    0.00000000
     atom    5 type  2   force =     0.00000000    0.00000000    0.00000000
     atom    6 type  2   force =     0.00000000    0.00000000    0.00000000
     atom    7 type  1   force =     0.00000000    0.00000000    0.00000000
     atom    8 type  2   force =     0.00000000    0.00000000    0.00000000
     atom    9 type  2   force =     0.00000000    0.00000000    0.00000000
     atom   10 type  1   force =     0.00000000    0.00000000    0.00000000
     atom   11 type  2   force =     0.00000000    0.00000000    0.00000000
     atom   12 type  2   force =     0.00000000    0.00000000    0.00000000
     atom   13 type  1   force =     0.00000000    0.00000000    0.00000000
     atom   14 type  2   force =     0.00000000    0.00000000    0.00000000
     atom   15 type  2   force =     0.00000000    0.00000000    0.00000000
     atom   16 type  1   force =     0.00000000    0.00000000    0.00000000
     atom   17 type  2   force =     0.00000000    0.00000000    0.00000000
     atom   18 type  2   force =     0.00000000    0.00000000    0.00000000
     atom   19 type  1   force =     0.00000000    0.00000000    0.00000000
     atom   20 type  2   force =     0.00000000    0.00000000    0.00000000
     atom   21 type  1   force =     0.00000000    0.00000000    0.00000000
     atom   22 type  2   force =     0.00000000    0.00000000    0.00000000
     atom   23 type  2   force =     0.00000000    0.00000000    0.00000000
     atom   24 type  1   force =     0.00000000    0.00000000    0.00000000
     atom   25 type  2   force =     0.00000000    0.00000000    0.00000000
     atom   26 type  2   force =     0.00000000    0.00000000    0.00000000
     atom   27 type  1   force =     0.00000000    0.00000000    0.00000000
     atom   28 type  2   force =     0.00000000    0.00000000    0.00000000
     atom   29 type  2   force =     0.00000000    0.00000000    0.00000000
     atom   30 type  1   force =     0.00000000    0.00000000    0.00000000
     atom   31 type  2   force =     0.00000000    0.00000000    0.00000000
     atom   32 type  2   force =     0.00000000    0.00000000    0.00000000
     atom   33 type  1   force =     0.00000000    0.00000000    0.00000000
     atom   34 type  2   force =     0.00000000    0.00000000    0.00000000
     atom   35 type  2   force =     0.00000000    0.00000000    0.00000000
     atom   36 type  3   force =     0.00000000    0.00000000    0.00000000
     The SCF correction term to forces
     atom    1 type  1   force =    -0.00004921   -0.00007338    0.00028466
     atom    2 type  2   force =     0.00001675    0.00004936    0.00028270
     atom    3 type  2   force =    -0.00003526   -0.00003873   -0.00004801
     atom    4 type  1   force =    -0.00002991   -0.00030329    0.00044518
     atom    5 type  2   force =    -0.00006533   -0.00002023    0.00030979
     atom    6 type  2   force =    -0.00001531   -0.00011531   -0.00000427
     atom    7 type  1   force =    -0.00027568    0.00011388    0.00050963
     atom    8 type  2   force =    -0.00004163   -0.00004486    0.00038790
     atom    9 type  2   force =    -0.00001424   -0.00000330   -0.00009216
     atom   10 type  1   force =    -0.00012279    0.00015552    0.00014848
     atom   11 type  2   force =    -0.00029890    0.00020509    0.00026606
     atom   12 type  2   force =    -0.00008474    0.00020611   -0.00007181
     atom   13 type  1   force =    -0.00002310   -0.00023583    0.00038475
     atom   14 type  2   force =    -0.00005211   -0.00014847    0.00026045
     atom   15 type  2   force =    -0.00002530   -0.00012741   -0.00002276
     atom   16 type  1   force =    -0.00005916    0.00002804    0.00056102
     atom   17 type  2   force =     0.00003888   -0.00004064    0.00030071
     atom   18 type  2   force =     0.00001954   -0.00012136    0.00003545
     atom   19 type  1   force =     0.00018486   -0.00001555    0.00049669
     atom   20 type  2   force =    -0.00000907    0.00000814    0.00000955
     atom   21 type  1   force =    -0.00005373    0.00022743    0.00044380
     atom   22 type  2   force =     0.00013777    0.00016172    0.00033105
     atom   23 type  2   force =     0.00007177    0.00022377   -0.00001932
     atom   24 type  1   force =     0.00012633   -0.00006976    0.00030943
     atom   25 type  2   force =     0.00005972   -0.00001405    0.00025205
     atom   26 type  2   force =     0.00004410   -0.00006307    0.00004801
     atom   27 type  1   force =     0.00012446   -0.00025010    0.00053135
     atom   28 type  2   force =     0.00003076   -0.00008311    0.00028238
     atom   29 type  2   force =    -0.00000536   -0.00013682    0.00005050
     atom   30 type  1   force =     0.00013580    0.00016659    0.00046913
     atom   31 type  2   force =     0.00008027   -0.00001737    0.00038730
     atom   32 type  2   force =     0.00002225    0.00000737   -0.00004078
     atom   33 type  1   force =     0.00015082    0.00027299    0.00030951
     atom   34 type  2   force =     0.00011103    0.00006454    0.00028689
     atom   35 type  2   force =     0.00001994    0.00016793   -0.00003553
     atom   36 type  3   force =     0.00001402   -0.00003985   -0.00005895

     Total force =     0.262035     Total SCF correction =     0.002076

     BFGS Geometry Optimization
     Energy error            =      0.0E+00 Ry
     Gradient error          =      9.7E-02 Ry/Bohr

     number of scf cycles    =   1
     number of bfgs steps    =   0

     energy             new  =   -2246.1498922453 Ry

     new trust radius        =       0.1394147773 bohr
     new conv_thr            =       0.0000010000 Ry


ATOMIC_POSITIONS (angstrom)
Mo            6.5785765938        1.7744904686        2.8269041305
S             8.1709038813        0.8189153903        4.4359870910
S             8.1896990554        0.8154016562        1.2745289967
Mo            8.0977747252        4.4951890141        2.7174362040
S             6.4989501267        3.7185945329        4.3435360575
S             6.5540806220        3.5181105888        1.1218563080
Mo            6.4819793792        7.2100536634        2.6635798631
S             8.0840285372        6.3413122748        4.2515311737
S             8.0885426815        6.3065612488        1.0875135704
Mo            8.1484179014        9.9193375663        2.8290485835
S             6.5331755732        8.9124812307        4.4052763967
S             6.6172324178        9.0496809704        1.1438171456
Mo            3.4290269518        1.7567543094        2.7720081256
S             4.9716342624        0.8653350983        4.3371796402
S             5.0508989824        0.8461547683        1.2216666482
Mo            4.9804254586        4.5182453276        2.6344605109
S             3.4313091329        3.6719962384        4.2806524282
S             3.4359912061        3.5434760043        1.0657984884
Mo            3.4536622858        7.2134745690        2.6283721508
S             4.9855257800        6.3234207632        1.0364768429
Mo            4.9872195713        9.9140489610        2.7192900079
S             3.4223795086        8.9203253737        4.3000123416
S             3.4101340729        9.0678874276        1.1008048390
Mo            0.2914445608        1.7480937218        2.8354851919
S             1.8582707132        0.8024836672        4.4034702972
S             1.8528519760        0.8535079339        1.2052504547
Mo            1.8594031853        4.4944803276        2.6633893519
S             0.2725544806        3.6542712142        4.3354607047
S             0.2324394998        3.5272303255        1.1708369193
Mo            0.2688390012        7.2232203401        2.7020062289
S             1.9032108252        6.3139447735        4.2319981537
S             1.8577827451        6.3124781051        1.0478868406
Mo            1.8468358553        9.9330302120        2.7667991109
S             0.3024070236        9.0646123112        4.4095954986
S             0.2732330955        9.0480337640        1.1565250861
O             5.3052608983        9.6988900459        5.1486461666



     Writing config-only to output data dir ./MoS2-V-O.save/
     NEW-OLD atomic charge density approx. for the potential

     negative rho (up, down):  1.539E-04 0.000E+00

     total cpu time spent up to now is      112.6 secs

     Self-consistent Calculation

     iteration #  1     ecut=    80.00 Ry     beta= 0.70
     Davidson diagonalization with overlap
     ethr =  1.00E-06,  avg # of iterations = 11.0

     negative rho (up, down):  6.911E-04 0.000E+00

     total cpu time spent up to now is      133.8 secs

     total energy              =   -2246.19836626 Ry
     estimated scf accuracy    <       0.03719752 Ry

     iteration #  2     ecut=    80.00 Ry     beta= 0.70
     Davidson diagonalization with overlap
     ethr =  1.19E-05,  avg # of iterations =  5.0

     negative rho (up, down):  8.389E-04 0.000E+00

     total cpu time spent up to now is      148.5 secs

     total energy              =   -2246.20182970 Ry
     estimated scf accuracy    <       0.02691869 Ry

     iteration #  3     ecut=    80.00 Ry     beta= 0.70
     Davidson diagonalization with overlap
     ethr =  8.63E-06,  avg # of iterations =  4.0

     negative rho (up, down):  1.373E-03 0.000E+00

     total cpu time spent up to now is      164.1 secs

     total energy              =   -2246.20475675 Ry
     estimated scf accuracy    <       0.00221459 Ry

     iteration #  4     ecut=    80.00 Ry     beta= 0.70
     Davidson diagonalization with overlap
     ethr =  7.10E-07,  avg # of iterations =  5.0

     negative rho (up, down):  1.581E-03 0.000E+00

     total cpu time spent up to now is      176.9 secs

     total energy              =   -2246.20480997 Ry
     estimated scf accuracy    <       0.00073069 Ry

     iteration #  5     ecut=    80.00 Ry     beta= 0.70
     Davidson diagonalization with overlap
     ethr =  2.34E-07,  avg # of iterations =  2.0

     negative rho (up, down):  1.501E-03 0.000E+00

     total cpu time spent up to now is      187.8 secs

     total energy              =   -2246.20484240 Ry
     estimated scf accuracy    <       0.00010521 Ry

     iteration #  6     ecut=    80.00 Ry     beta= 0.70
     Davidson diagonalization with overlap
     ethr =  3.37E-08,  avg # of iterations = 14.0

     negative rho (up, down):  1.318E-03 0.000E+00

     total cpu time spent up to now is      199.4 secs

     total energy              =   -2246.20486028 Ry
     estimated scf accuracy    <       0.00001210 Ry

     iteration #  7     ecut=    80.00 Ry     beta= 0.70
     Davidson diagonalization with overlap
     ethr =  3.88E-09,  avg # of iterations =  5.0

     negative rho (up, down):  1.059E-03 0.000E+00

     total cpu time spent up to now is      211.0 secs

     total energy              =   -2246.20486057 Ry
     estimated scf accuracy    <       0.00000512 Ry

     iteration #  8     ecut=    80.00 Ry     beta= 0.70
     Davidson diagonalization with overlap
     ethr =  1.64E-09,  avg # of iterations =  4.0

     negative rho (up, down):  7.928E-04 0.000E+00

     total cpu time spent up to now is      221.8 secs

     total energy              =   -2246.20485976 Ry
     estimated scf accuracy    <       0.00000164 Ry

     iteration #  9     ecut=    80.00 Ry     beta= 0.70
     Davidson diagonalization with overlap
     ethr =  5.24E-10,  avg # of iterations =  3.0

     negative rho (up, down):  1.896E-04 0.000E+00

     total cpu time spent up to now is      225.2 secs

     End of self-consistent calculation

          k = 0.0000 0.0000 0.0000 (105382 PWs)   bands (ev):

   -63.1330 -62.9013 -62.8845 -62.8818 -62.8590 -62.8456 -62.8435 -62.8364
   -62.8144 -62.7864 -62.7835 -62.7725 -37.4151 -37.3630 -37.2608 -37.2000
   -37.1777 -37.1642 -37.1424 -37.1123 -37.0933 -37.0877 -37.0789 -37.0704
   -37.0682 -37.0604 -37.0553 -37.0456 -37.0410 -37.0318 -37.0239 -37.0054
   -36.9976 -36.9846 -36.9743 -36.9703 -36.9664 -36.9609 -36.9440 -36.9413
   -36.9226 -36.9082 -36.8943 -36.8703 -36.8623 -36.8113 -36.7740 -36.7633
   -21.9188 -15.9558 -15.2189 -15.1776 -15.0975 -14.9386 -14.7496 -14.6301
   -14.5333 -14.5058 -14.4707 -14.4204 -14.4097 -14.3505 -14.2527 -14.1875
   -14.1468 -14.1211 -14.0973 -13.9062 -13.8990 -13.8762 -13.8724 -13.6877
    -8.4202  -7.9291  -7.7802  -7.4887  -7.3966  -7.3030  -7.2559  -7.2085
    -7.1390  -6.9369  -6.9090  -6.8401  -6.7813  -6.7192  -6.6845  -6.5948
    -6.5542  -6.4255  -6.3718  -6.2922  -6.1712  -6.0377  -5.9637  -5.8745
    -5.8605  -5.7962  -5.7652  -5.7381  -5.7127  -5.6913  -5.6425  -5.5788
    -5.5445  -5.4879  -5.3790  -5.3047  -5.2567  -5.1298  -5.0895  -5.0455
    -5.0360  -5.0072  -4.9211  -4.8726  -4.7219  -4.6377  -4.5084  -4.3742
    -4.3625  -4.2443  -4.1506  -4.1391  -4.0249  -4.0041  -3.9213  -3.8363
    -3.7753  -3.6984  -3.6580  -3.6237  -3.5642  -3.5318  -3.5119  -3.5013
    -3.4756  -3.4356  -3.2997  -3.2493  -3.1191  -3.0862  -3.0106  -2.8155
    -2.7947  -2.7607  -2.7325  -2.7093  -2.6905  -2.6232  -2.3471  -2.2946
    -2.0775  -1.9757  -1.7554  -1.3025  -1.0626  -0.8089  -0.6191  -0.2243
    -0.1728  -0.0956  -0.0611   0.0485   0.0981   0.1341   0.1728   0.2315
     0.3179   0.3670   0.4149   0.4604   0.5096   0.5453   0.5633   0.6107
     0.6685   0.6837   0.7078   0.7480   0.7876   0.8101   0.9018   0.9394
     0.9951   1.1407   1.2479

     the Fermi energy is    -1.1825 ev

!    total energy              =   -2246.20485835 Ry
     estimated scf accuracy    <       0.00000060 Ry
     smearing contrib. (-TS)   =      -0.00519044 Ry
     internal energy E=F+TS    =   -2246.19966790 Ry

     The total energy is F=E-TS. E is the sum of the following terms:
     one-electron contribution =  -18493.34121726 Ry
     hartree contribution      =    9235.12451110 Ry
     xc contribution           =    -392.13795543 Ry
     ewald contribution        =    7414.02128076 Ry
     one-center paw contrib.   =      -9.86628708 Ry

     convergence has been achieved in   9 iterations

     negative rho (up, down):  1.896E-04 0.000E+00

     Forces acting on atoms (cartesian axes, Ry/au):

     atom    1 type  1   force =     0.00619558   -0.01247269   -0.00391357
     atom    2 type  2   force =    -0.00776701    0.01214948    0.00086564
     atom    3 type  2   force =    -0.00622340    0.00793652   -0.01307425
     atom    4 type  1   force =     0.00529505    0.00102140    0.00108468
     atom    5 type  2   force =     0.00049694   -0.00633895   -0.00546979
     atom    6 type  2   force =     0.00093352    0.00843756    0.00207428
     atom    7 type  1   force =    -0.01063514   -0.01176906   -0.00504554
     atom    8 type  2   force =     0.00295644   -0.00601711    0.00926270
     atom    9 type  2   force =     0.01264710    0.00410998    0.00469368
     atom   10 type  1   force =    -0.01315370    0.02149454   -0.00618137
     atom   11 type  2   force =     0.02775624   -0.02538214    0.03898190
     atom   12 type  2   force =    -0.00530455    0.00260965    0.00311854
     atom   13 type  1   force =     0.00130804    0.01617884   -0.01135902
     atom   14 type  2   force =    -0.00573331    0.04432994   -0.01169883
     atom   15 type  2   force =    -0.01133717    0.00337293   -0.01468430
     atom   16 type  1   force =     0.00002147    0.00899665    0.00242478
     atom   17 type  2   force =     0.00495549    0.00330663    0.00248748
     atom   18 type  2   force =    -0.00223969   -0.00466432    0.00980560
     atom   19 type  1   force =    -0.00151219   -0.01335253   -0.00622422
     atom   20 type  2   force =     0.00238781   -0.00712170   -0.00537028
     atom   21 type  1   force =    -0.02608815    0.01027547    0.00025044
     atom   22 type  2   force =    -0.04761130   -0.01834667   -0.03308901
     atom   23 type  2   force =    -0.00063260    0.00329039   -0.00307451
     atom   24 type  1   force =    -0.00605450    0.00028169   -0.01195579
     atom   25 type  2   force =     0.01094976    0.01421603    0.00059703
     atom   26 type  2   force =    -0.00973929   -0.00134729   -0.00698817
     atom   27 type  1   force =    -0.00118977    0.00036061    0.00616582
     atom   28 type  2   force =     0.00014654   -0.00217094   -0.00455639
     atom   29 type  2   force =     0.00190067    0.00157363   -0.00400497
     atom   30 type  1   force =    -0.00409435    0.00425102    0.00460239
     atom   31 type  2   force =    -0.00007757   -0.00055166    0.01190509
     atom   32 type  2   force =    -0.00834966    0.00344552    0.00490165
     atom   33 type  1   force =    -0.00360555   -0.00373762   -0.00508412
     atom   34 type  2   force =     0.00427723   -0.03309261   -0.01479555
     atom   35 type  2   force =    -0.00813883    0.00753940    0.00502404
     atom   36 type  3   force =     0.09725986   -0.03281258    0.05832394
     The non-local contrib.  to forces
     atom    1 type  1   force =    -0.00325099    0.03755654   -0.00570458
     atom    2 type  2   force =    -0.01319930   -0.00214828   -0.27033582
     atom    3 type  2   force =    -0.00661763   -0.01283838    0.26501901
     atom    4 type  1   force =     0.00371754    0.00609515    0.00217517
     atom    5 type  2   force =     0.00435295   -0.03557672   -0.25680882
     atom    6 type  2   force =    -0.00240115    0.00639482    0.26588000
     atom    7 type  1   force =    -0.00697521    0.01098054   -0.00948811
     atom    8 type  2   force =     0.02416717   -0.00671316   -0.25308301
     atom    9 type  2   force =     0.00437348   -0.00998768    0.27586543
     atom   10 type  1   force =     0.00039935   -0.00023453    0.00012370
     atom   11 type  2   force =    -0.42925625    0.30621259   -0.06718761
     atom   12 type  2   force =    -0.01944303   -0.01662770    0.26046589
     atom   13 type  1   force =     0.00556281    0.01930965   -0.00421166
     atom   14 type  2   force =     0.02281322    0.00749845   -0.27274096
     atom   15 type  2   force =    -0.01423520   -0.01337705    0.25895062
     atom   16 type  1   force =    -0.00193781    0.01897436   -0.02954775
     atom   17 type  2   force =     0.00089064   -0.02640396   -0.25009332
     atom   18 type  2   force =    -0.00241737    0.00087419    0.27120777
     atom   19 type  1   force =     0.00476826    0.00140479   -0.01654843
     atom   20 type  2   force =     0.00515822   -0.01848645    0.26213962
     atom   21 type  1   force =    -0.01313686    0.03939739   -0.01781672
     atom   22 type  2   force =    -0.00578397   -0.00360657   -0.24865000
     atom   23 type  2   force =     0.01342674   -0.00725502    0.26654432
     atom   24 type  1   force =     0.00748239    0.01439757   -0.00909023
     atom   25 type  2   force =    -0.00094511    0.00577279   -0.25782945
     atom   26 type  2   force =     0.00054167   -0.01234629    0.25914717
     atom   27 type  1   force =    -0.00591845    0.00757476    0.00927723
     atom   28 type  2   force =    -0.00497403   -0.02145418   -0.27597153
     atom   29 type  2   force =     0.00372436    0.00263638    0.26195233
     atom   30 type  1   force =     0.01371070    0.00921633    0.00772063
     atom   31 type  2   force =    -0.00809803    0.00314593   -0.25499843
     atom   32 type  2   force =    -0.00304085   -0.00965471    0.27430891
     atom   33 type  1   force =     0.00189720    0.00074261    0.00524776
     atom   34 type  2   force =     0.00822611   -0.02859646   -0.27409634
     atom   35 type  2   force =    -0.00524406   -0.00898688    0.26840410
     atom   36 type  3   force =     1.33896047   -0.83504095   -0.94614013
     The ionic contribution  to forces
     atom    1 type  1   force =     1.12091882    2.15280319    3.87182893
     atom    2 type  2   force =     0.40646300    1.06345379   39.07025530
     atom    3 type  2   force =     0.03014537    0.26908586  -36.95531768
     atom    4 type  1   force =     0.33250099    0.50864141   -0.17445671
     atom    5 type  2   force =    -0.76683605    1.74119715   38.51910657
     atom    6 type  2   force =     0.38894022   -0.44560362  -38.49437570
     atom    7 type  1   force =    -1.62576405   -4.22213836   -0.09379926
     atom    8 type  2   force =    -0.63456201   -0.51605232   37.17401575
     atom    9 type  2   force =     0.45381936   -0.19437032  -38.52126036
     atom   10 type  1   force =     0.82674380   -0.42525662    2.95879692
     atom   11 type  2   force =     4.56659817   -4.92676787   35.65062359
     atom   12 type  2   force =     0.67972265    0.45676994  -38.82937796
     atom   13 type  1   force =    -0.75724869    2.21364826    0.98223812
     atom   14 type  2   force =    -0.47765295    2.98867869   37.12062608
     atom   15 type  2   force =     0.19733933    0.43339469  -37.95824353
     atom   16 type  1   force =    -0.02395792    3.69252383   -0.50914237
     atom   17 type  2   force =     0.57044771    1.73795037   37.82129861
     atom   18 type  2   force =    -0.23169741   -0.47152483  -39.06121378
     atom   19 type  1   force =     1.85564927   -4.08602068   -1.58790654
     atom   20 type  2   force =     0.15941665   -0.46208068  -39.27590264
     atom   21 type  1   force =    -0.25008681    0.31816598   -6.72172159
     atom   22 type  2   force =    -2.37002391   -2.90778145   36.71199333
     atom   23 type  2   force =    -0.41716278    0.41618942  -39.40550848
     atom   24 type  1   force =    -0.18334032    1.59786770    4.45056301
     atom   25 type  2   force =    -0.05186038    0.76127108   38.96131693
     atom   26 type  2   force =    -0.38072668    0.24339644  -37.92829847
     atom   27 type  1   force =    -0.23514204    0.40483841   -2.90430654
     atom   28 type  2   force =     0.08531776    1.02659532   38.08916848
     atom   29 type  2   force =    -0.23746494   -0.28815594  -37.76130494
     atom   30 type  1   force =    -0.36713095   -1.64905003   -1.16282936
     atom   31 type  2   force =     0.91250583   -0.55269055   37.20182273
     atom   32 type  2   force =    -0.57728998   -0.19876140  -39.14094714
     atom   33 type  1   force =    -0.81892907   -0.17560094    0.14884978
     atom   34 type  2   force =     0.24575220   -1.33582106   39.00241639
     atom   35 type  2   force =    -0.30789301    0.38941913  -38.40603681
     atom   36 type  3   force =    -2.11751119    0.44178604   47.15702936
     The local contribution  to forces
     atom    1 type  1   force =    -1.11129764   -2.20271783   -3.86920810
     atom    2 type  2   force =    -0.40162129   -1.04919328  -38.81945089
     atom    3 type  2   force =    -0.03001687   -0.24890897   36.69814799
     atom    4 type  1   force =    -0.33076695   -0.51363935    0.17406285
     atom    5 type  2   force =     0.76357318   -1.71386300  -38.28779914
     atom    6 type  2   force =    -0.38583926    0.44860468   38.25154623
     atom    7 type  1   force =     1.62219391    4.19904069    0.09879209
     atom    8 type  2   force =     0.61445739    0.51608687  -36.93156699
     atom    9 type  2   force =    -0.44556933    0.20791526   38.27119757
     atom   10 type  1   force =    -0.84010245    0.44701903   -2.96454071
     atom   11 type  2   force =    -4.13344655    4.61202042  -35.55235222
     atom   12 type  2   force =    -0.66702587   -0.43888044   38.59279427
     atom   13 type  1   force =     0.75294915   -2.21666942   -0.98861338
     atom   14 type  2   force =     0.45005406   -2.94979686  -36.88086395
     atom   15 type  2   force =    -0.19528214   -0.41762945   37.70527646
     atom   16 type  1   force =     0.02594782   -3.70242070    0.54176753
     atom   17 type  2   force =    -0.56649149   -1.70959914  -37.58851666
     atom   18 type  2   force =     0.23184003    0.46666157   38.82085486
     atom   19 type  1   force =    -1.86208748    4.07120291    1.59896400
     atom   20 type  2   force =    -0.16193020    0.47280051   39.02957875
     atom   21 type  1   force =     0.23690111   -0.34726283    6.74014683
     atom   22 type  2   force =     2.32688775    2.89257892  -36.51682144
     atom   23 type  2   force =     0.40413470   -0.40639150   39.15697528
     atom   24 type  1   force =     0.16972225   -1.61174614   -4.45275447
     atom   25 type  2   force =     0.06340572   -0.75231566  -38.72276119
     atom   26 type  2   force =     0.37063463   -0.23300842   37.68278029
     atom   27 type  1   force =     0.23968845   -0.41201143    2.90188589
     atom   28 type  2   force =    -0.08052348   -1.00882458  -37.83838688
     atom   29 type  2   force =     0.23602148    0.28770918   37.51602060
     atom   30 type  1   force =     0.34939336    1.64393405    1.16041382
     atom   31 type  2   force =    -0.90496531    0.54900714  -36.95500136
     atom   32 type  2   force =     0.57210566    0.21128675   38.89269771
     atom   33 type  1   force =     0.81348046    0.17089964   -0.15844345
     atom   34 type  2   force =    -0.24949991    1.33026335  -38.76370601
     atom   35 type  2   force =     0.30492074   -0.37383088   38.16376281
     atom   36 type  3   force =     0.89087499    0.35110076  -46.16161719
     The core correction contribution to forces
     atom    1 type  1   force =     0.00000000    0.00000000    0.00000000
     atom    2 type  2   force =     0.00059742    0.00012556    0.02082710
     atom    3 type  2   force =     0.00030191    0.00063398   -0.02079621
     atom    4 type  1   force =     0.00000000    0.00000000    0.00000000
     atom    5 type  2   force =    -0.00053431    0.00193067    0.02050150
     atom    6 type  2   force =     0.00030115   -0.00089767   -0.02092482
     atom    7 type  1   force =     0.00000000    0.00000000    0.00000000
     atom    8 type  2   force =    -0.00105866    0.00059766    0.02031944
     atom    9 type  2   force =     0.00003197    0.00052302   -0.02098140
     atom   10 type  1   force =     0.00000000    0.00000000    0.00000000
     atom   11 type  2   force =     0.02398055   -0.01698089    0.00840819
     atom   12 type  2   force =     0.00147998    0.00128785   -0.02073388
     atom   13 type  1   force =     0.00000000    0.00000000    0.00000000
     atom   14 type  2   force =    -0.00097785   -0.00189940    0.02173047
     atom   15 type  2   force =     0.00081421    0.00099569   -0.02059202
     atom   16 type  1   force =     0.00000000    0.00000000    0.00000000
     atom   17 type  2   force =     0.00004717    0.00138338    0.02026045
     atom   18 type  2   force =    -0.00002844   -0.00065099   -0.02097630
     atom   19 type  1   force =     0.00000000    0.00000000    0.00000000
     atom   20 type  2   force =    -0.00021045    0.00064303   -0.02109060
     atom   21 type  1   force =     0.00000000    0.00000000    0.00000000
     atom   22 type  2   force =     0.00114966    0.00038048    0.02081596
     atom   23 type  2   force =    -0.00106415    0.00072281   -0.02098580
     atom   24 type  1   force =     0.00000000    0.00000000    0.00000000
     atom   25 type  2   force =     0.00035321   -0.00047005    0.02037686
     atom   26 type  2   force =    -0.00023164    0.00065114   -0.02056114
     atom   27 type  1   force =     0.00000000    0.00000000    0.00000000
     atom   28 type  2   force =     0.00032582    0.00157559    0.02104433
     atom   29 type  2   force =    -0.00038542   -0.00058305   -0.02053248
     atom   30 type  1   force =     0.00000000    0.00000000    0.00000000
     atom   31 type  2   force =     0.00044013   -0.00002170    0.02051760
     atom   32 type  2   force =    -0.00016956    0.00054893   -0.02103839
     atom   33 type  1   force =     0.00000000    0.00000000    0.00000000
     atom   34 type  2   force =    -0.00013223    0.00094275    0.02107712
     atom   35 type  2   force =     0.00007945    0.00088257   -0.02101150
     atom   36 type  3   force =    -0.01512221    0.00930379    0.00961569
     The Hubbard contrib.    to forces
     atom    1 type  1   force =     0.00000000    0.00000000    0.00000000
     atom    2 type  2   force =     0.00000000    0.00000000    0.00000000
     atom    3 type  2   force =     0.00000000    0.00000000    0.00000000
     atom    4 type  1   force =     0.00000000    0.00000000    0.00000000
     atom    5 type  2   force =     0.00000000    0.00000000    0.00000000
     atom    6 type  2   force =     0.00000000    0.00000000    0.00000000
     atom    7 type  1   force =     0.00000000    0.00000000    0.00000000
     atom    8 type  2   force =     0.00000000    0.00000000    0.00000000
     atom    9 type  2   force =     0.00000000    0.00000000    0.00000000
     atom   10 type  1   force =     0.00000000    0.00000000    0.00000000
     atom   11 type  2   force =     0.00000000    0.00000000    0.00000000
     atom   12 type  2   force =     0.00000000    0.00000000    0.00000000
     atom   13 type  1   force =     0.00000000    0.00000000    0.00000000
     atom   14 type  2   force =     0.00000000    0.00000000    0.00000000
     atom   15 type  2   force =     0.00000000    0.00000000    0.00000000
     atom   16 type  1   force =     0.00000000    0.00000000    0.00000000
     atom   17 type  2   force =     0.00000000    0.00000000    0.00000000
     atom   18 type  2   force =     0.00000000    0.00000000    0.00000000
     atom   19 type  1   force =     0.00000000    0.00000000    0.00000000
     atom   20 type  2   force =     0.00000000    0.00000000    0.00000000
     atom   21 type  1   force =     0.00000000    0.00000000    0.00000000
     atom   22 type  2   force =     0.00000000    0.00000000    0.00000000
     atom   23 type  2   force =     0.00000000    0.00000000    0.00000000
     atom   24 type  1   force =     0.00000000    0.00000000    0.00000000
     atom   25 type  2   force =     0.00000000    0.00000000    0.00000000
     atom   26 type  2   force =     0.00000000    0.00000000    0.00000000
     atom   27 type  1   force =     0.00000000    0.00000000    0.00000000
     atom   28 type  2   force =     0.00000000    0.00000000    0.00000000
     atom   29 type  2   force =     0.00000000    0.00000000    0.00000000
     atom   30 type  1   force =     0.00000000    0.00000000    0.00000000
     atom   31 type  2   force =     0.00000000    0.00000000    0.00000000
     atom   32 type  2   force =     0.00000000    0.00000000    0.00000000
     atom   33 type  1   force =     0.00000000    0.00000000    0.00000000
     atom   34 type  2   force =     0.00000000    0.00000000    0.00000000
     atom   35 type  2   force =     0.00000000    0.00000000    0.00000000
     atom   36 type  3   force =     0.00000000    0.00000000    0.00000000
     The SCF correction term to forces
     atom    1 type  1   force =    -0.00017545   -0.00011449   -0.00080572
     atom    2 type  2   force =    -0.00000767   -0.00008824   -0.00040595
     atom    3 type  2   force =    -0.00003702   -0.00003589   -0.00010326
     atom    4 type  1   force =    -0.00015736   -0.00007572   -0.00067253
     atom    5 type  2   force =    -0.00005965   -0.00002697   -0.00044581
     atom    6 type  2   force =    -0.00006828   -0.00006057   -0.00002733
     atom    7 type  1   force =    -0.00009063    0.00034816   -0.00052616
     atom    8 type  2   force =    -0.00004827    0.00006393   -0.00039839
     atom    9 type  2   force =    -0.00000922    0.00002978   -0.00010346
     atom   10 type  1   force =    -0.00019524   -0.00003325   -0.00053718
     atom   11 type  2   force =    -0.00012051    0.00013369   -0.00048595
     atom   12 type  2   force =    -0.00003911    0.00006008   -0.00000568
     atom   13 type  1   force =     0.00004393   -0.00010957   -0.00074800
     atom   14 type  2   force =     0.00002938   -0.00015085   -0.00042638
     atom   15 type  2   force =     0.00002580   -0.00001086   -0.00005174
     atom   16 type  1   force =    -0.00003145   -0.00008076   -0.00062854
     atom   17 type  2   force =     0.00006063   -0.00002394   -0.00043750
     atom   18 type  2   force =     0.00006266   -0.00002417   -0.00004285
     atom   19 type  1   force =     0.00015691    0.00006054   -0.00070916
     atom   20 type  2   force =    -0.00004724    0.00000197   -0.00007131
     atom   21 type  1   force =     0.00023358   -0.00002500   -0.00033397
     atom   22 type  2   force =     0.00015833    0.00008204   -0.00040278
     atom   23 type  2   force =     0.00003207    0.00002476   -0.00007574
     atom   24 type  1   force =     0.00008034   -0.00023735   -0.00065000
     atom   25 type  2   force =    -0.00000452   -0.00004204   -0.00048203
     atom   26 type  2   force =     0.00004190   -0.00004007   -0.00003194
     atom   27 type  1   force =     0.00018144   -0.00004104   -0.00066666
     atom   28 type  2   force =    -0.00000037   -0.00006300   -0.00038669
     atom   29 type  2   force =     0.00000435   -0.00003286   -0.00011638
     atom   30 type  1   force =    -0.00006829    0.00015075   -0.00067860
     atom   31 type  2   force =     0.00003897    0.00000761   -0.00041136
     atom   32 type  2   force =     0.00004424    0.00002605   -0.00009535
     atom   33 type  1   force =    -0.00005497    0.00022116   -0.00071412
     atom   34 type  2   force =    -0.00006978    0.00011888   -0.00046262
     atom   35 type  2   force =    -0.00000279    0.00005554   -0.00007046
     atom   36 type  3   force =     0.00005696    0.00003787   -0.00053969

     Total force =     0.171989     Total SCF correction =     0.002862
     Energy error            =      5.5E-02 Ry
     Gradient error          =      9.7E-02 Ry/Bohr

     number of scf cycles    =   2
     number of bfgs steps    =   1

     energy             old  =   -2246.1498922453 Ry
     energy             new  =   -2246.2048583457 Ry

     CASE: energy            _new < energy            _old

     new trust radius        =       0.1533562550 bohr
     new conv_thr            =       0.0000000973 Ry


ATOMIC_POSITIONS (angstrom)
Mo            6.5828801597        1.7648845576        2.8252362710
S             8.1653720422        0.8275920902        4.4367486980
S             8.1854688577        0.8207335186        1.2663786081
Mo            8.1013024767        4.4958022228        2.7179928618
S             6.4990632792        3.7142464676        4.3398147612
S             6.5547514783        3.5241320237        1.1231573388
Mo            6.4743951839        7.2017462403        2.6591659637
S             8.0861506534        6.3373775937        4.2585166558
S             8.0972194288        6.3092689500        1.0908822646
Mo            8.1386207707        9.9348439028        2.8228739461
S             6.5560678443        8.8923272161        4.4317795898
S             6.6140425374        9.0513621295        1.1463239570
Mo            3.4311148280        1.7678620480        2.7646467504
S             4.9676873378        0.8996692343        4.3280133969
S             5.0431029286        0.8480814032        1.2122910136
Mo            4.9805588699        4.5243530527        2.6361447053
S             3.4347957465        3.6739758061        4.2822582311
S             3.4343498464        3.5399248127        1.0728035438
Mo            3.4527537110        7.2052549087        2.6243639399
S             4.9873181451        6.3186763535        1.0332377978
Mo            4.9676356254        9.9222302899        2.7150713922
S             3.3861187198        8.9055008575        4.2762924013
S             3.4100776075        9.0703101855        1.0998880801
Mo            0.2871106038        1.7483619617        2.8260610190
S             1.8660013547        0.8124573434        4.4047667637
S             1.8457944753        0.8525644749        1.2004674740
Mo            1.8584836343        4.4944736915        2.6675244277
S             0.2727006685        3.6529955659        4.3324475833
S             0.2337547691        3.5281348322        1.1683124894
Mo            0.2660581212        7.2268627010        2.7047177069
S             1.9033420654        6.3138338550        4.2405958607
S             1.8521590286        6.3148522688        1.0513170714
Mo            1.8452060272        9.9295873084        2.7627533692
S             0.3060500047        9.0409253006        4.4002855778
S             0.2678969889        9.0531995042        1.1605320284
O             5.3706967475        9.6771195154        5.1914240097



     Writing config-only to output data dir ./MoS2-V-O.save/
     NEW-OLD atomic charge density approx. for the potential

     negative rho (up, down):  1.558E-04 0.000E+00

     total cpu time spent up to now is      232.5 secs

     Self-consistent Calculation

     iteration #  1     ecut=    80.00 Ry     beta= 0.70
     Davidson diagonalization with overlap
     ethr =  1.00E-06,  avg # of iterations = 11.0

     negative rho (up, down):  3.831E-04 0.000E+00

     total cpu time spent up to now is      246.9 secs

     total energy              =   -2246.23208602 Ry
     estimated scf accuracy    <       0.02538612 Ry

     iteration #  2     ecut=    80.00 Ry     beta= 0.70
     Davidson diagonalization with overlap
     ethr =  8.14E-06,  avg # of iterations =  5.0

     negative rho (up, down):  4.171E-04 0.000E+00

     total cpu time spent up to now is      258.1 secs

     total energy              =   -2246.23542553 Ry
     estimated scf accuracy    <       0.02292850 Ry

     iteration #  3     ecut=    80.00 Ry     beta= 0.70
     Davidson diagonalization with overlap
     ethr =  7.35E-06,  avg # of iterations =  4.0

     negative rho (up, down):  5.954E-04 0.000E+00

     total cpu time spent up to now is      270.3 secs

     total energy              =   -2246.23769545 Ry
     estimated scf accuracy    <       0.00072848 Ry

     iteration #  4     ecut=    80.00 Ry     beta= 0.70
     Davidson diagonalization with overlap
     ethr =  2.33E-07,  avg # of iterations =  6.0

     negative rho (up, down):  7.221E-04 0.000E+00

     total cpu time spent up to now is      283.8 secs

     total energy              =   -2246.23773946 Ry
     estimated scf accuracy    <       0.00042234 Ry

     iteration #  5     ecut=    80.00 Ry     beta= 0.70
     Davidson diagonalization with overlap
     ethr =  1.35E-07,  avg # of iterations =  2.0

     negative rho (up, down):  7.186E-04 0.000E+00

     total cpu time spent up to now is      297.9 secs

     total energy              =   -2246.23775840 Ry
     estimated scf accuracy    <       0.00005679 Ry

     iteration #  6     ecut=    80.00 Ry     beta= 0.70
     Davidson diagonalization with overlap
     ethr =  1.82E-08,  avg # of iterations =  6.0

     negative rho (up, down):  6.488E-04 0.000E+00

     total cpu time spent up to now is      310.6 secs

     total energy              =   -2246.23776603 Ry
     estimated scf accuracy    <       0.00000597 Ry

     iteration #  7     ecut=    80.00 Ry     beta= 0.70
     Davidson diagonalization with overlap
     ethr =  1.91E-09,  avg # of iterations = 15.0

     negative rho (up, down):  5.747E-04 0.000E+00

     total cpu time spent up to now is      321.5 secs

     total energy              =   -2246.23776744 Ry
     estimated scf accuracy    <       0.00000188 Ry

     iteration #  8     ecut=    80.00 Ry     beta= 0.70
     Davidson diagonalization with overlap
     ethr =  6.02E-10,  avg # of iterations =  2.0

     negative rho (up, down):  4.532E-04 0.000E+00

     total cpu time spent up to now is      331.4 secs

     total energy              =   -2246.23776734 Ry
     estimated scf accuracy    <       0.00000069 Ry

     iteration #  9     ecut=    80.00 Ry     beta= 0.70
     Davidson diagonalization with overlap
     ethr =  2.22E-10,  avg # of iterations =  2.0

     negative rho (up, down):  3.748E-04 0.000E+00

     total cpu time spent up to now is      341.4 secs

     total energy              =   -2246.23776735 Ry
     estimated scf accuracy    <       0.00000020 Ry

     iteration # 10     ecut=    80.00 Ry     beta= 0.70
     Davidson diagonalization with overlap
     ethr =  6.46E-11,  avg # of iterations =  4.0

     negative rho (up, down):  2.902E-04 0.000E+00

     total cpu time spent up to now is      352.5 secs

     total energy              =   -2246.23776734 Ry
     estimated scf accuracy    <       0.00000010 Ry

     iteration # 11     ecut=    80.00 Ry     beta= 0.70
     Davidson diagonalization with overlap
     ethr =  3.35E-11,  avg # of iterations =  2.0

     negative rho (up, down):  1.914E-04 0.000E+00

     total cpu time spent up to now is      355.8 secs

     End of self-consistent calculation

          k = 0.0000 0.0000 0.0000 (105382 PWs)   bands (ev):

   -63.1510 -62.9249 -62.9067 -62.8996 -62.8792 -62.8677 -62.8606 -62.8485
   -62.8317 -62.8160 -62.8065 -62.7962 -37.4117 -37.3852 -37.2633 -37.2201
   -37.1958 -37.1867 -37.1671 -37.1350 -37.1141 -37.1073 -37.0995 -37.0880
   -37.0835 -37.0809 -37.0719 -37.0638 -37.0593 -37.0531 -37.0411 -37.0293
   -37.0213 -37.0072 -36.9965 -36.9915 -36.9900 -36.9878 -36.9732 -36.9606
   -36.9402 -36.9298 -36.9209 -36.8931 -36.8800 -36.8339 -36.7997 -36.7833
   -21.8029 -15.9812 -15.2330 -15.1870 -15.0790 -14.9502 -14.7601 -14.5925
   -14.5369 -14.5181 -14.4834 -14.4438 -14.4181 -14.3638 -14.2674 -14.2013
   -14.1696 -14.1259 -14.1122 -13.9212 -13.9097 -13.9019 -13.8869 -13.5968
    -8.2309  -7.8345  -7.6792  -7.5031  -7.4135  -7.3178  -7.2662  -7.2326
    -7.1488  -6.9381  -6.9126  -6.8615  -6.7981  -6.7188  -6.7039  -6.6099
    -6.5777  -6.4469  -6.3780  -6.3066  -6.1552  -6.0596  -5.9868  -5.8905
    -5.8774  -5.8103  -5.7727  -5.7567  -5.7353  -5.7069  -5.6549  -5.5981
    -5.5562  -5.4993  -5.3819  -5.3114  -5.2570  -5.1481  -5.1122  -5.0628
    -5.0467  -5.0133  -4.9459  -4.8850  -4.7128  -4.6447  -4.4810  -4.3964
    -4.3662  -4.2624  -4.1685  -4.1574  -4.0488  -4.0255  -3.9265  -3.8394
    -3.7831  -3.7271  -3.6671  -3.6332  -3.5895  -3.5535  -3.5257  -3.4979
    -3.4897  -3.4483  -3.3163  -3.2671  -3.1260  -3.0902  -3.0133  -2.8380
    -2.8043  -2.7898  -2.7513  -2.7193  -2.7132  -2.6449  -2.3693  -2.3428
    -2.1045  -2.0041  -1.8155  -1.3573  -1.0697  -0.8279  -0.6165  -0.2344
    -0.1992  -0.1057  -0.0783   0.0432   0.0734   0.1018   0.1574   0.2188
     0.3015   0.3571   0.3907   0.4387   0.4921   0.5190   0.5591   0.5948
     0.6321   0.6617   0.7050   0.7418   0.7830   0.8121   0.8934   0.9352
     0.9575   1.1199   1.2379

     the Fermi energy is    -1.2135 ev

!    total energy              =   -2246.23776738 Ry
     estimated scf accuracy    <       0.00000002 Ry
     smearing contrib. (-TS)   =      -0.00369201 Ry
     internal energy E=F+TS    =   -2246.23407537 Ry

     The total energy is F=E-TS. E is the sum of the following terms:
     one-electron contribution =  -18483.98756934 Ry
     hartree contribution      =    9230.34084625 Ry
     xc contribution           =    -392.12558676 Ry
     ewald contribution        =    7409.40231421 Ry
     one-center paw contrib.   =      -9.86407972 Ry

     convergence has been achieved in  11 iterations

     negative rho (up, down):  1.914E-04 0.000E+00

     Forces acting on atoms (cartesian axes, Ry/au):

     atom    1 type  1   force =     0.00236486   -0.00364529   -0.01049399
     atom    2 type  2   force =    -0.00530957    0.00845914    0.00028037
     atom    3 type  2   force =    -0.00519524    0.00651648   -0.01505884
     atom    4 type  1   force =     0.00511872    0.00048122    0.00071358
     atom    5 type  2   force =     0.00208540   -0.00538526   -0.00508565
     atom    6 type  2   force =     0.00110130    0.00618456    0.00232464
     atom    7 type  1   force =    -0.00635398   -0.00601348    0.00221977
     atom    8 type  2   force =     0.00153041   -0.00641254    0.00433753
     atom    9 type  2   force =     0.00947624    0.00425368    0.00379015
     atom   10 type  1   force =    -0.00773516    0.01123136    0.00335280
     atom   11 type  2   force =     0.01583909   -0.01335859    0.02537944
     atom   12 type  2   force =    -0.00871614    0.00321961    0.00429831
     atom   13 type  1   force =    -0.00581113    0.01131218   -0.01153446
     atom   14 type  2   force =    -0.00530887    0.01537391   -0.00179928
     atom   15 type  2   force =    -0.00976533    0.00294591   -0.01314280
     atom   16 type  1   force =    -0.00136372    0.00714468    0.00180060
     atom   17 type  2   force =     0.00350861    0.00510273    0.00304197
     atom   18 type  2   force =    -0.00119753    0.00025941    0.00541028
     atom   19 type  1   force =    -0.00244112   -0.01565680   -0.00837997
     atom   20 type  2   force =     0.00166655   -0.00666091   -0.00755872
     atom   21 type  1   force =    -0.00984066    0.00310698    0.01392891
     atom   22 type  2   force =    -0.01845675   -0.00289846   -0.01599173
     atom   23 type  2   force =    -0.00175625    0.00164550   -0.00673209
     atom   24 type  1   force =    -0.00491042    0.00048460   -0.00451969
     atom   25 type  2   force =     0.00748267    0.01067366   -0.00486138
     atom   26 type  2   force =    -0.00616105   -0.00070980   -0.00581119
     atom   27 type  1   force =    -0.00064401    0.00143202    0.00472610
     atom   28 type  2   force =    -0.00004676   -0.00316398   -0.00371195
     atom   29 type  2   force =     0.00185362    0.00256410   -0.00412160
     atom   30 type  1   force =    -0.00289535   -0.00084037    0.00410351
     atom   31 type  2   force =    -0.00090709   -0.00248159    0.00796433
     atom   32 type  2   force =    -0.00808584    0.00248482    0.00384196
     atom   33 type  1   force =    -0.00778999    0.00353910   -0.00555031
     atom   34 type  2   force =    -0.00165189   -0.02028178   -0.01445124
     atom   35 type  2   force =    -0.00924176    0.00598753    0.00204325
     atom   36 type  3   force =     0.07955814   -0.02689436    0.04524740
     The non-local contrib.  to forces
     atom    1 type  1   force =    -0.00147914    0.03312071   -0.00486764
     atom    2 type  2   force =    -0.01142780   -0.00342288   -0.26957660
     atom    3 type  2   force =    -0.00458012   -0.01271035    0.26127176
     atom    4 type  1   force =     0.00483942    0.00680096    0.00162330
     atom    5 type  2   force =     0.00543293   -0.03530467   -0.25801263
     atom    6 type  2   force =    -0.00240954    0.00373739    0.26729100
     atom    7 type  1   force =    -0.00648460    0.01175598   -0.01122767
     atom    8 type  2   force =     0.02476657   -0.00746385   -0.25730498
     atom    9 type  2   force =     0.00022498   -0.00967864    0.27536000
     atom   10 type  1   force =    -0.00095711   -0.00333449    0.00057583
     atom   11 type  2   force =    -0.42973150    0.30888517   -0.06926382
     atom   12 type  2   force =    -0.02177716   -0.01734740    0.26417598
     atom   13 type  1   force =     0.00703684    0.02227808   -0.00440385
     atom   14 type  2   force =     0.02300356    0.00337655   -0.26732542
     atom   15 type  2   force =    -0.01260890   -0.01271700    0.25945396
     atom   16 type  1   force =    -0.00115251    0.02008171   -0.03051674
     atom   17 type  2   force =     0.00042984   -0.02420883   -0.25092513
     atom   18 type  2   force =    -0.00140700    0.00511758    0.26839549
     atom   19 type  1   force =     0.00794737    0.00320527   -0.01724769
     atom   20 type  2   force =     0.00349255   -0.01734569    0.25933157
     atom   21 type  1   force =    -0.01702027    0.04200609   -0.01780239
     atom   22 type  2   force =    -0.01584060   -0.00787630   -0.24287574
[...]
     atom   28 type  2   force =    -0.00161139   -0.01192302   -0.27734634
     atom   29 type  2   force =     0.00070836   -0.00951665    0.26845687
     atom   30 type  1   force =     0.00069392    0.02052889    0.00311770
     atom   31 type  2   force =    -0.00889617    0.00307954   -0.26830764
     atom   32 type  2   force =     0.00750879   -0.01214760    0.26987773
     atom   33 type  1   force =    -0.00281878    0.00685358    0.00935468
     atom   34 type  2   force =     0.00185725   -0.00724936   -0.27920299
     atom   35 type  2   force =    -0.00068063   -0.01250251    0.26281645
     atom   36 type  3   force =     0.00890474   -0.02803923   -2.31614515
     The ionic contribution  to forces
     atom    1 type  1   force =    -0.12099056    1.52359814    0.85001905
     atom    2 type  2   force =     0.34826443    1.11470564   38.19612380
     atom    3 type  2   force =     0.11172184    0.10223124  -38.39931379
     atom    4 type  1   force =     0.23894332   -0.21530182    0.22961525
     atom    5 type  2   force =    -0.86611401    1.04359996   38.10031110
     atom    6 type  2   force =     0.27289877   -0.31755420  -38.53073278
     atom    7 type  1   force =    -2.85265854   -2.78602443   -1.00730654
     atom    8 type  2   force =    -0.54780973   -0.91142538   37.83604972
     atom    9 type  2   force =     0.50561999   -0.07976683  -38.57396202
     atom   10 type  1   force =     0.64648264    0.27792130   -1.51798017
     atom   11 type  2   force =    -0.46074000   -1.59094794   28.42506400
     atom   12 type  2   force =     0.21580923    0.21296019  -38.58885994
     atom   13 type  1   force =    -0.32388041    1.20486869    0.81599130
     atom   14 type  2   force =    -0.57664041    1.03540548   37.88419653
     atom   15 type  2   force =    -0.03974836    0.04596192  -38.42448455
     atom   16 type  1   force =    -0.43571253    2.96796305    0.46519497
     atom   17 type  2   force =     0.68166899    1.11184042   38.06570335
     atom   18 type  2   force =    -0.32354935   -0.27814803  -38.48917806
     atom   19 type  1   force =     2.10203796   -2.51784908    1.33229477
     atom   20 type  2   force =    -0.12745875   -0.07556065  -39.38672018
     atom   21 type  1   force =    -1.08793764    0.25551733   -3.07334839
     atom   22 type  2   force =    -0.59114676   -1.43522991   37.78474106
     atom   23 type  2   force =    -0.25679355    0.24725064  -38.65333200
     atom   24 type  1   force =     0.49884534    0.96242554    1.03815707
     atom   25 type  2   force =     0.17531299    0.39942469   38.43079513
     atom   26 type  2   force =    -0.09624892    0.03720398  -38.01804545
     atom   27 type  1   force =     0.18450909    0.14485881    0.12690164
     atom   28 type  2   force =     0.16256592    0.43312058   38.04920483
     atom   29 type  2   force =     0.06045363   -0.03797090  -37.96353352
     atom   30 type  1   force =     0.63637275   -1.25783595    1.36204281
     atom   31 type  2   force =     1.19032015   -0.19066106   38.04064112
     atom   32 type  2   force =    -0.36347070   -0.09843145  -38.19229772
     atom   33 type  1   force =     0.46725050   -0.04398558    1.68421490
     atom   34 type  2   force =     1.03986982   -0.42665462   38.21595922
     atom   35 type  2   force =     0.08315098    0.03435467  -38.23349895
     atom   36 type  3   force =    -0.55119814   -0.89186447   50.11937246
     The local contribution  to forces
     atom    1 type  1   force =     0.12513815   -1.54439071   -0.84314969
     atom    2 type  2   force =    -0.34644686   -1.10509107  -37.94520886
     atom    3 type  2   force =    -0.10993333   -0.09226542   38.15657591
     atom    4 type  1   force =    -0.24614543    0.21186514   -0.23141894
     atom    5 type  2   force =     0.86103408   -1.02122621  -37.86424529
     atom    6 type  2   force =    -0.27269480    0.32206456   38.28473648
     atom    7 type  1   force =     2.86770662    2.77066070    1.01655225
     atom    8 type  2   force =     0.54573609    0.90518786  -37.58639635
     atom    9 type  2   force =    -0.49797084    0.09324053   38.32631030
     atom   10 type  1   force =    -0.63849604   -0.28256500    1.49849470
     atom   11 type  2   force =     0.47497960    1.57655204  -28.71420393
     atom   12 type  2   force =    -0.20859487   -0.20022289   38.33560233
     atom   13 type  1   force =     0.32117622   -1.22854336   -0.81074037
     atom   14 type  2   force =     0.57630081   -1.02841202  -37.63210851
     atom   15 type  2   force =     0.03909557   -0.03704669   38.18307531
     atom   16 type  1   force =     0.44016662   -2.99489891   -0.43164436
     atom   17 type  2   force =    -0.67783892   -1.09117999  -37.82909174
     atom   18 type  2   force =     0.32350314    0.28091302   38.24439196
     atom   19 type  1   force =    -2.11625712    2.51117470   -1.30914634
     atom   20 type  2   force =     0.12603844    0.08891196   39.14457928
     atom   21 type  1   force =     1.07706959   -0.26665491    3.04816812
     atom   22 type  2   force =     0.59555488    1.42949851  -37.54110648
     atom   23 type  2   force =     0.24912214   -0.23231908   38.41026304
     atom   24 type  1   force =    -0.49951102   -0.97985946   -1.04125962
     atom   25 type  2   force =    -0.17557502   -0.38787315  -38.18093159
     atom   26 type  2   force =     0.09385434   -0.02484356   37.76990362
     atom   27 type  1   force =    -0.17946696   -0.14994727   -0.12877046
     atom   28 type  2   force =    -0.16103992   -0.42215792  -37.79338868
     atom   29 type  2   force =    -0.06037330    0.04659960   37.71630468
     atom   30 type  1   force =    -0.63729722    1.23770152   -1.36541526
     atom   31 type  2   force =    -1.18206398    0.18714098  -37.79328787
     atom   32 type  2   force =     0.35712675    0.10928615   37.94221933
     atom   33 type  1   force =    -0.46443868    0.03695444   -1.69361610
     atom   34 type  2   force =    -1.04180041    0.43333801  -37.95875123
     atom   35 type  2   force =    -0.08324302   -0.02197910   37.99148708
     atom   36 type  3   force =     0.54172451    0.91873886  -47.82760962
     The core correction contribution to forces
     atom    1 type  1   force =     0.00000000    0.00000000    0.00000000
     atom    2 type  2   force =    -0.00000529    0.00046099    0.02128933
     atom    3 type  2   force =     0.00006051    0.00049905   -0.02082537
     atom    4 type  1   force =     0.00000000    0.00000000    0.00000000
     atom    5 type  2   force =    -0.00049438    0.00101161    0.02053862
     atom    6 type  2   force =     0.00027475   -0.00021988   -0.02091325
     atom    7 type  1   force =     0.00000000    0.00000000    0.00000000
     atom    8 type  2   force =    -0.00014171    0.00000647    0.02130062
     atom    9 type  2   force =     0.00082931    0.00072738   -0.02098533
     atom   10 type  1   force =     0.00000000    0.00000000    0.00000000
     atom   11 type  2   force =     0.00084199   -0.00098329   -0.00985428
     atom   12 type  2   force =     0.00068346    0.00081793   -0.02129097
     atom   13 type  1   force =     0.00000000    0.00000000    0.00000000
     atom   14 type  2   force =    -0.00003557    0.00012810    0.02130869
     atom   15 type  2   force =     0.00005013    0.00041681   -0.02066931
     atom   16 type  1   force =     0.00000000    0.00000000    0.00000000
     atom   17 type  2   force =     0.00040674    0.00088471    0.02052277
     atom   18 type  2   force =    -0.00020146   -0.00023858   -0.02085293
     atom   19 type  1   force =     0.00000000    0.00000000    0.00000000
     atom   20 type  2   force =    -0.00018241    0.00067900   -0.02122400
     atom   21 type  1   force =     0.00000000    0.00000000    0.00000000
     atom   22 type  2   force =     0.00007452   -0.00055377    0.02106597
     atom   23 type  2   force =    -0.00060936    0.00099945   -0.02082728
     atom   24 type  1   force =     0.00000000    0.00000000    0.00000000
     atom   25 type  2   force =     0.00004242    0.00055751    0.02099945
     atom   26 type  2   force =    -0.00020118    0.00049521   -0.02096761
     atom   27 type  1   force =     0.00000000    0.00000000    0.00000000
     atom   28 type  2   force =     0.00008596    0.00073836    0.02131070
     atom   29 type  2   force =    -0.00006514    0.00034458   -0.02086318
     atom   30 type  1   force =     0.00000000    0.00000000    0.00000000
     atom   31 type  2   force =     0.00047945    0.00011931    0.02099812
     atom   32 type  2   force =    -0.00070566    0.00069354   -0.02099610
     atom   33 type  1   force =     0.00000000    0.00000000    0.00000000
     atom   34 type  2   force =    -0.00013126    0.00031700    0.02165460
     atom   35 type  2   force =     0.00007840    0.00060837   -0.02079981
     atom   36 type  3   force =    -0.00008064    0.00027204    0.02455394
     The Hubbard contrib.    to forces
     atom    1 type  1   force =     0.00000000    0.00000000    0.00000000
     atom    2 type  2   force =     0.00000000    0.00000000    0.00000000
     atom    3 type  2   force =     0.00000000    0.00000000    0.00000000
     atom    4 type  1   force =     0.00000000    0.00000000    0.00000000
     atom    5 type  2   force =     0.00000000    0.00000000    0.00000000
     atom    6 type  2   force =     0.00000000    0.00000000    0.00000000
     atom    7 type  1   force =     0.00000000    0.00000000    0.00000000
     atom    8 type  2   force =     0.00000000    0.00000000    0.00000000
     atom    9 type  2   force =     0.00000000    0.00000000    0.00000000
     atom   10 type  1   force =     0.00000000    0.00000000    0.00000000
     atom   11 type  2   force =     0.00000000    0.00000000    0.00000000
     atom   12 type  2   force =     0.00000000    0.00000000    0.00000000
     atom   13 type  1   force =     0.00000000    0.00000000    0.00000000
     atom   14 type  2   force =     0.00000000    0.00000000    0.00000000
     atom   15 type  2   force =     0.00000000    0.00000000    0.00000000
     atom   16 type  1   force =     0.00000000    0.00000000    0.00000000
     atom   17 type  2   force =     0.00000000    0.00000000    0.00000000
     atom   18 type  2   force =     0.00000000    0.00000000    0.00000000
     atom   19 type  1   force =     0.00000000    0.00000000    0.00000000
     atom   20 type  2   force =     0.00000000    0.00000000    0.00000000
     atom   21 type  1   force =     0.00000000    0.00000000    0.00000000
     atom   22 type  2   force =     0.00000000    0.00000000    0.00000000
     atom   23 type  2   force =     0.00000000    0.00000000    0.00000000
     atom   24 type  1   force =     0.00000000    0.00000000    0.00000000
     atom   25 type  2   force =     0.00000000    0.00000000    0.00000000
     atom   26 type  2   force =     0.00000000    0.00000000    0.00000000
     atom   27 type  1   force =     0.00000000    0.00000000    0.00000000
     atom   28 type  2   force =     0.00000000    0.00000000    0.00000000
     atom   29 type  2   force =     0.00000000    0.00000000    0.00000000
     atom   30 type  1   force =     0.00000000    0.00000000    0.00000000
     atom   31 type  2   force =     0.00000000    0.00000000    0.00000000
     atom   32 type  2   force =     0.00000000    0.00000000    0.00000000
     atom   33 type  1   force =     0.00000000    0.00000000    0.00000000
     atom   34 type  2   force =     0.00000000    0.00000000    0.00000000
     atom   35 type  2   force =     0.00000000    0.00000000    0.00000000
     atom   36 type  3   force =     0.00000000    0.00000000    0.00000000
     The SCF correction term to forces
     atom    1 type  1   force =    -0.00001233   -0.00001925   -0.00000687
     atom    2 type  2   force =    -0.00000541    0.00000079   -0.00000497
     atom    3 type  2   force =     0.00000925    0.00001260    0.00000215
     atom    4 type  1   force =     0.00000054   -0.00005188   -0.00002673
     atom    5 type  2   force =     0.00000107   -0.00002610   -0.00000800
     atom    6 type  2   force =    -0.00000042   -0.00002091   -0.00000313
     atom    7 type  1   force =    -0.00002615    0.00000552    0.00000508
     atom    8 type  2   force =    -0.00000146   -0.00000039   -0.00001035
     atom    9 type  2   force =     0.00000791   -0.00000424    0.00000029
     atom   10 type  1   force =     0.00000812    0.00005303    0.00000191
     atom   11 type  2   force =    -0.00001172    0.00002693    0.00000661
     atom   12 type  2   force =    -0.00001168    0.00001986   -0.00000274
     atom   13 type  1   force =     0.00000245   -0.00001110   -0.00003196
     atom   14 type  2   force =     0.00000453   -0.00000014   -0.00000075
     atom   15 type  2   force =    -0.00001059    0.00000660    0.00000037
     atom   16 type  1   force =    -0.00002089   -0.00002229   -0.00003431
     atom   17 type  2   force =     0.00000209   -0.00002560   -0.00001963
     atom   18 type  2   force =    -0.00000799   -0.00001746   -0.00000970
     atom   19 type  1   force =    -0.00000722    0.00001610   -0.00000997
     atom   20 type  2   force =    -0.00001819   -0.00000269    0.00000311
     atom   21 type  1   force =    -0.00001707    0.00003727   -0.00000265
     atom   22 type  2   force =    -0.00000091    0.00000826   -0.00000872
     atom   23 type  2   force =    -0.00000462    0.00001565    0.00000421
     atom   24 type  1   force =     0.00000488   -0.00002192   -0.00002973
     atom   25 type  2   force =    -0.00000001   -0.00000720   -0.00001762
     atom   26 type  2   force =     0.00000107    0.00000697   -0.00000200
     atom   27 type  1   force =     0.00001061   -0.00002516   -0.00004413
     atom   28 type  2   force =    -0.00000013   -0.00002240   -0.00001413
     atom   29 type  2   force =     0.00001249   -0.00002031   -0.00000702
     atom   30 type  1   force =     0.00001676    0.00002358   -0.00002921
     atom   31 type  2   force =     0.00001419    0.00001204   -0.00002227
     atom   32 type  2   force =     0.00001051   -0.00000937   -0.00000139
     atom   33 type  1   force =     0.00002409    0.00003618   -0.00001603
     atom   34 type  2   force =     0.00000950    0.00002408   -0.00001562
     atom   35 type  2   force =     0.00001102    0.00001293    0.00000502
     atom   36 type  3   force =    -0.00004124    0.00007940    0.00000885

     Total force =     0.005549     Total SCF correction =     0.000196
     Energy error            =      7.3E-05 Ry
     Gradient error          =      1.4E-03 Ry/Bohr

     bfgs converged in  26 scf cycles and  25 bfgs steps
     (criteria: energy <  1.0E-04 Ry, force <  1.0E-02 Ry/Bohr)

     End of BFGS Geometry Optimization

     Final energy             =   -2246.4457890028 Ry

     File ./MoS2-V-O.bfgs deleted, as requested
Begin final coordinates

ATOMIC_POSITIONS (angstrom)
Mo            6.5269633285        1.7764576953        2.7457656718
S             8.1027189455        0.8791499768        4.3579536103
S             8.1089329773        0.8842124867        1.1493929973
Mo            8.0832340098        4.5218398283        2.7190171163
S             6.4786938522        3.6799304922        4.3030150824
S             6.5213958400        3.5880755194        1.1028075506
Mo            6.4792294662        7.1718207339        2.6539656663
S             8.0256868481        6.3287260521        4.3214915789
S             8.1129022245        6.3372036454        1.1099384837
Mo            8.1313460390        9.9797511684        2.7431414949
S             6.5123112413        8.9903656416        4.2288015993
S             6.5619273463        9.0472568465        1.1279166346
Mo            3.3931526171        1.7743595192        2.7377254145
S             4.9555106739        0.8372793171        4.3334869806
S             4.9612486023        0.8706390696        1.1411398100
Mo            4.9590331048        4.5508869101        2.6434693316
S             3.4339642283        3.6752369437        4.2961050362
S             3.3910610005        3.5852892537        1.1010832441
Mo            3.4371636018        7.2030536361        2.6663631337
S             4.9436869060        6.3261952676        1.0277938096
Mo            4.9481107908        9.9438243724        2.7070854726
S             3.4457379208        8.9676229112        4.3190245556
S             3.3560407929        9.0380844981        1.1134430953
Mo            0.2297407340        1.7724026317        2.7537028018
S             1.8243312145        0.8730870365        4.3511927203
S             1.8088979153        0.8566725614        1.1618005174
Mo            1.8304478606        4.5169926104        2.7129998758
S             0.2310377145        3.6300146445        4.3165690907
S             0.2267889832        3.5931655867        1.1471554559
Mo            0.2219430479        7.2366045788        2.7478365190
S             1.8718253925        6.3281396634        4.3050112641
S             1.8061842872        6.3488712914        1.1211709638
Mo            1.8224030869        9.9479169887        2.7615412994
S             0.2302608597        9.0565815153        4.3572745268
S             0.2479218542        9.0579716895        1.1617192063
O             6.5042672594        9.0198416047        5.7271859381
End final coordinates



     Writing all to output data dir ./MoS2-V-O.save/
 
     init_run     :      4.54s CPU      5.04s WALL (       1 calls)
     electrons    :   2462.13s CPU   2779.78s WALL (      26 calls)
     update_pot   :     76.05s CPU     80.94s WALL (      25 calls)
     forces       :     70.77s CPU     80.46s WALL (      26 calls)

     Called by init_run:
     wfcinit      :      0.48s CPU      0.53s WALL (       1 calls)
     potinit      :      2.32s CPU      2.57s WALL (       1 calls)
     hinit0       :      0.43s CPU      0.46s WALL (       1 calls)

     Called by electrons:
     c_bands      :    366.53s CPU    375.07s WALL (     253 calls)
     sum_band     :    141.27s CPU    181.00s WALL (     253 calls)
     v_of_rho     :    236.50s CPU    286.60s WALL (     271 calls)
     newd         :     80.57s CPU    119.03s WALL (     271 calls)
     PAW_pot      :     10.67s CPU     10.72s WALL (     296 calls)
     mix_rho      :   1651.79s CPU   1834.89s WALL (     253 calls)

     Called by c_bands:
     init_us_2    :      5.81s CPU      6.24s WALL (     532 calls)
     init_us_2:cp :      5.81s CPU      6.23s WALL (     532 calls)
     regterg      :    347.68s CPU    355.78s WALL (     253 calls)

     Called by *egterg:
     rdiaghg      :     25.11s CPU     25.36s WALL (    1437 calls)
     h_psi        :    224.08s CPU    225.97s WALL (    1471 calls)
     s_psi        :     21.67s CPU     21.77s WALL (    1471 calls)
     g_psi        :      1.10s CPU      1.11s WALL (    1217 calls)

     Called by h_psi:
     h_psi:calbec :     24.28s CPU     24.45s WALL (    1471 calls)
     vloc_psi     :    175.70s CPU    177.29s WALL (    1471 calls)
     add_vuspsi   :     21.26s CPU     21.38s WALL (    1471 calls)

     General routines
     calbec       :     34.72s CPU     34.95s WALL (    1853 calls)
     fft          :    160.54s CPU    185.90s WALL (   18046 calls)
     ffts         :    741.21s CPU    917.63s WALL (  404221 calls)
     fftw         :    110.99s CPU    111.82s WALL (  155676 calls)
     interpolate  :      3.37s CPU      3.85s WALL (     271 calls)
 
     Parallel routines
 
     PWSCF        :  43m44.47s CPU  49m22.26s WALL

 
   This run was terminated on:  22:43: 1   1Nov2023            

=------------------------------------------------------------------------------=
   JOB DONE.
=------------------------------------------------------------------------------=
