
     Program PWSCF v.7.2 starts on  1Nov2023 at 23:32:23 

     This program is part of the open-source Quantum ESPRESSO suite
     for quantum simulation of materials; please cite
         "P. Giannozzi et al., J. Phys.:Condens. Matter 21 395502 (2009);
         "P. Giannozzi et al., J. Phys.:Condens. Matter 29 465901 (2017);
         "P. Giannozzi et al., J. Chem. Phys. 152 154105 (2020);
          URL http://www.quantum-espresso.org", 
     in publications or presentations arising from this work. More details at
     http://www.quantum-espresso.org/quote

     Parallel version (MPI & OpenMP), running on      48 processor cores
     Number of MPI processes:                48
     Threads/MPI process:                     1

     MPI processes distributed on     1 nodes
     56067 MiB available memory on the printing compute node when the environment starts
 
     Waiting for input...
     Reading input from standard input
Warning: card &CELL ignored
Warning: card CELL_DYNAMICS = 'BFGS', ignored
Warning: card CELL_DOFREE = '2DXY' ignored
Warning: card / ignored

     Current dimensions of program PWSCF are:
     Max number of different atomic species (ntypx) = 10
     Max number of k-points (npk) =  40000
     Max angular momentum in pseudopotentials (lmaxx) =  4
     file O.pbe-n-kjpaw_psl.0.1.UPF: wavefunction(s)  2P renormalized

     IMPORTANT: XC functional enforced from input :
     Exchange-correlation= RVV10
                           (   1   4  13   4  26   0   0)
     Any further DFT definition will be discarded
     Please, verify this is what you really want


     gamma-point specific algorithms are used
     signal trapping enabled: kill the code with -SIGUSR1 to stop cleanly the simulation 
 
     R & G space division:  proc/nbgrp/npool/nimage =      48
     Subspace diagonalization in iterative solution of the eigenvalue problem:
     one sub-group per band group will be used
     scalapack distributed-memory algorithm (size of sub-group:  2*  2 procs)

 
     Parallelization info
     --------------------
     sticks:   dense  smooth     PW     G-vecs:    dense   smooth      PW
     Min         396     194     47               101632    35090    4376
     Max         398     196     50               101674    35128    4410
     Sum       19091    9389   2349              4879585  1685513  210763
 
     Using Slab Decomposition
 


     bravais-lattice index     =            0
     lattice parameter (alat)  =      17.8707  a.u.
     unit-cell volume          =   17436.2743 (a.u.)^3
     number of atoms/cell      =           36
     number of atomic types    =            3
     number of electrons       =       312.00
     number of Kohn-Sham states=          187
     kinetic-energy cutoff     =      80.0000  Ry
     charge density cutoff     =     650.0000  Ry
     scf convergence threshold =      1.0E-06
     mixing beta               =       0.7000
     number of iterations used =            8  local-TF  mixing
     energy convergence thresh.=      1.0E-04
     force convergence thresh. =      1.0E-02
     Exchange-correlation= RVV10
                           (   1   4  13   4  26   0   0)
     nstep                     =          200


     celldm(1)=  17.870686  celldm(2)=   0.000000  celldm(3)=   0.000000
     celldm(4)=   0.000000  celldm(5)=   0.000000  celldm(6)=   0.000000

     crystal axes: (cart. coord. in units of alat)
               a(1) = (   1.000000   0.000000   0.000000 )  
               a(2) = (   0.000000   1.155671   0.000000 )  
               a(3) = (   0.000000   0.000000   2.643601 )  

     reciprocal axes: (cart. coord. in units 2 pi/alat)
               b(1) = (  1.000000  0.000000  0.000000 )  
               b(2) = (  0.000000  0.865298  0.000000 )  
               b(3) = (  0.000000  0.000000  0.378272 )  


     PseudoPot. # 1 for Mo read from file:
     ../pseudo/Mo_ONCV_PBE-1.0.oncvpsp.upf
     MD5 check sum: 1b5d28e075c9ccadda658a603575cd1f
     Pseudo is Norm-conserving, Zval = 14.0
     Generated using ONCVPSP code by D. R. Hamann
     Using radial grid of 1526 points,  6 beta functions with: 
                l(1) =   0
                l(2) =   0
                l(3) =   1
                l(4) =   1
                l(5) =   2
                l(6) =   2

     PseudoPot. # 2 for S  read from file:
     ../pseudo/s_pbe_v1.4.uspp.F.UPF
     MD5 check sum: 88d86576ff6df21479756cfb9bdac1df
     Pseudo is Ultrasoft + core correction, Zval =  6.0
     Generated by new atomic code, or converted to UPF format
     Using radial grid of  907 points,  6 beta functions with: 
                l(1) =   0
                l(2) =   0
                l(3) =   1
                l(4) =   1
                l(5) =   2
                l(6) =   2
     Q(r) pseudized with  8 coefficients,  rinner =    1.300   1.300   1.300
                                                       1.300   1.300

     PseudoPot. # 3 for O  read from file:
     ../pseudo/O.pbe-n-kjpaw_psl.0.1.UPF
     MD5 check sum: 0234752ac141de4415c5fc33072bef88
     Pseudo is Projector augmented-wave + core cor, Zval =  6.0
     Generated using "atomic" code by A. Dal Corso  v.5.0.99 svn rev. 10869
     Shape of augmentation charge: BESSEL
     Using radial grid of 1095 points,  4 beta functions with: 
                l(1) =   0
                l(2) =   0
                l(3) =   1
                l(4) =   1
     Q(r) pseudized with 0 coefficients 


     atomic species   valence    mass     pseudopotential
        Mo            14.00    95.94000     Mo( 1.00)
        S              6.00    32.06500     S ( 1.00)
        O              6.00    15.99940     O ( 1.00)

     No symmetry found



   Cartesian axes

     site n.     atom                  positions (alat units)
         1           Mo  tau(   1) = (   0.6952221   0.1890506   0.2985846  )
         2           S   tau(   2) = (   0.8646417   0.0856217   0.4689279  )
         3           S   tau(   3) = (   0.8663890   0.0857843   0.1351291  )
         4           Mo  tau(   4) = (   0.8560186   0.4753274   0.2873942  )
         5           S   tau(   5) = (   0.6873294   0.3936244   0.4596353  )
         6           S   tau(   6) = (   0.6929804   0.3713468   0.1185692  )
         7           Mo  tau(   7) = (   0.6862796   0.7633098   0.2825370  )
         8           S   tau(   8) = (   0.8545980   0.6708292   0.4486168  )
         9           S   tau(   9) = (   0.8545123   0.6666874   0.1146125  )
        10           Mo  tau(  10) = (   0.8629403   1.0471007   0.3006803  )
        11           S   tau(  11) = (   0.6868280   0.9456650   0.4634891  )
        12           S   tau(  12) = (   0.6998113   0.9568511   0.1205389  )
        13           Mo  tau(  13) = (   0.3618216   0.1847309   0.2935964  )
        14           S   tau(  14) = (   0.5260962   0.0863870   0.4600448  )
        15           S   tau(  15) = (   0.5348379   0.0894875   0.1297123  )
        16           Mo  tau(  16) = (   0.5265817   0.4772436   0.2784130  )
        17           S   tau(  17) = (   0.3624753   0.3882513   0.4525556  )
        18           S   tau(  18) = (   0.3635411   0.3752055   0.1119148  )
        19           Mo  tau(  19) = (   0.3652268   0.7630864   0.2781795  )
        20           S   tau(  20) = (   0.5269494   0.6690381   0.1096838  )
        21           Mo  tau(  21) = (   0.5300192   1.0470394   0.2900995  )
        22           S   tau(  22) = (   0.3670346   0.9457522   0.4574073  )
        23           S   tau(  23) = (   0.3604225   0.9585725   0.1159032  )
        24           Mo  tau(  24) = (   0.0313099   0.1847895   0.3013130  )
        25           S   tau(  25) = (   0.1956761   0.0838230   0.4650863  )
        26           S   tau(  26) = (   0.1967693   0.0903508   0.1278874  )
        27           Mo  tau(  27) = (   0.1967578   0.4753919   0.2813011  )
        28           S   tau(  28) = (   0.0287851   0.3864324   0.4586755  )
        29           S   tau(  29) = (   0.0244514   0.3729871   0.1239344  )
        30           Mo  tau(  30) = (   0.0286728   0.7631204   0.2856894  )
        31           S   tau(  31) = (   0.2011512   0.6675435   0.4465001  )
        32           S   tau(  32) = (   0.1969214   0.6672839   0.1104564  )
        33           Mo  tau(  33) = (   0.1950294   1.0511147   0.2932237  )
        34           S   tau(  34) = (   0.0312912   0.9612169   0.4667423  )
        35           S   tau(  35) = (   0.0292670   0.9563028   0.1216485  )
        36           O   tau(  36) = (   0.8888889   1.1556707   0.5656742  )

     number of k points=     1  Gaussian smearing, width (Ry)=  0.0100
                       cart. coord. in units 2pi/alat
        k(    1) = (   0.0000000   0.0000000   0.0000000), wk =   2.0000000

     Dense  grid:  2439793 G-vectors     FFT dimensions: ( 150, 180, 384)

     Smooth grid:   842757 G-vectors     FFT dimensions: ( 108, 120, 270)

     Estimated max dynamical RAM per process >     269.22 MB

     Estimated total dynamical RAM >      12.62 GB

     Initial potential from superposition of free atoms

     starting charge     311.9873, renormalised to     312.0000

     negative rho (up, down):  2.761E-04 0.000E+00


---------------------------------------------------------------------------------
Carrying out rVV10 run using the following parameters:
Nqs =      20    Nr_points =    1024   r_max =   100.000
b_value =  6.30000    beta =  0.00901
     q_mesh =  0.00010000  0.00030000  0.00058939  0.00100810
               0.00161396  0.00249058  0.00375900  0.00559430
               0.00824984  0.01209221  0.01765183  0.02569619
               0.03733578  0.05417739  0.07854596  0.11380545
               0.16482331  0.23864234  0.34545298  0.50000000

Gradients computed in Reciprocal space

---------------------------------------------------------------------------------


     Starting wfcs are  216 randomized atomic wfcs
     Checking if some PAW data can be deallocated... 

     total cpu time spent up to now is        5.3 secs

     Self-consistent Calculation

     iteration #  1     ecut=    80.00 Ry     beta= 0.70
     Davidson diagonalization with overlap
     ethr =  1.00E-02,  avg # of iterations =  2.0

     Threshold (ethr) on eigenvalues was too large:
     Diagonalizing with lowered threshold

     Davidson diagonalization with overlap
     ethr =  4.85E-04,  avg # of iterations =  4.0

     negative rho (up, down):  3.613E-08 0.000E+00

     total cpu time spent up to now is       21.3 secs

     total energy              =   -2246.06541747 Ry
     estimated scf accuracy    <       1.75807222 Ry

     iteration #  2     ecut=    80.00 Ry     beta= 0.70
     Davidson diagonalization with overlap
     ethr =  5.63E-04,  avg # of iterations =  4.0

     total cpu time spent up to now is       25.9 secs

     total energy              =   -2246.05739809 Ry
     estimated scf accuracy    <       0.58495310 Ry

     iteration #  3     ecut=    80.00 Ry     beta= 0.70
     Davidson diagonalization with overlap
     ethr =  1.87E-04,  avg # of iterations =  2.0

     total cpu time spent up to now is       29.9 secs

     total energy              =   -2246.07393369 Ry
     estimated scf accuracy    <       0.11599019 Ry

     iteration #  4     ecut=    80.00 Ry     beta= 0.70
     Davidson diagonalization with overlap
     ethr =  3.72E-05,  avg # of iterations = 15.0

     total cpu time spent up to now is       34.6 secs

     total energy              =   -2246.09161426 Ry
     estimated scf accuracy    <       0.02433272 Ry

     iteration #  5     ecut=    80.00 Ry     beta= 0.70
     Davidson diagonalization with overlap
     ethr =  7.80E-06,  avg # of iterations =  7.0

     total cpu time spent up to now is       38.5 secs

     total energy              =   -2246.09087310 Ry
     estimated scf accuracy    <       0.01500403 Ry

     iteration #  6     ecut=    80.00 Ry     beta= 0.70
     Davidson diagonalization with overlap
     ethr =  4.81E-06,  avg # of iterations =  2.0

     total cpu time spent up to now is       42.1 secs

     total energy              =   -2246.08965964 Ry
     estimated scf accuracy    <       0.00936589 Ry

     iteration #  7     ecut=    80.00 Ry     beta= 0.70
     Davidson diagonalization with overlap
     ethr =  3.00E-06,  avg # of iterations =  2.0

     negative rho (up, down):  1.040E-04 0.000E+00

     total cpu time spent up to now is       49.1 secs

     total energy              =   -2246.08877352 Ry
     estimated scf accuracy    <       0.00532697 Ry

     iteration #  8     ecut=    80.00 Ry     beta= 0.70
     Davidson diagonalization with overlap
     ethr =  1.71E-06,  avg # of iterations =  2.0

     negative rho (up, down):  2.539E-02 0.000E+00

     total cpu time spent up to now is       54.9 secs

     total energy              =   -2246.08821254 Ry
     estimated scf accuracy    <       0.00312158 Ry

     iteration #  9     ecut=    80.00 Ry     beta= 0.70
     Davidson diagonalization with overlap
     ethr =  1.00E-06,  avg # of iterations =  2.0

     negative rho (up, down):  3.118E-02 0.000E+00

     total cpu time spent up to now is       61.1 secs

     total energy              =   -2246.08812732 Ry
     estimated scf accuracy    <       0.00148307 Ry

     iteration # 10     ecut=    80.00 Ry     beta= 0.70
     Davidson diagonalization with overlap
     ethr =  4.75E-07,  avg # of iterations =  2.0

     negative rho (up, down):  2.179E-02 0.000E+00

     total cpu time spent up to now is       67.6 secs

     total energy              =   -2246.08813287 Ry
     estimated scf accuracy    <       0.00044147 Ry

     iteration # 11     ecut=    80.00 Ry     beta= 0.70
     Davidson diagonalization with overlap
     ethr =  1.41E-07,  avg # of iterations =  5.0

     negative rho (up, down):  9.571E-03 0.000E+00

     total cpu time spent up to now is       74.8 secs

     total energy              =   -2246.08812820 Ry
     estimated scf accuracy    <       0.00006986 Ry

     iteration # 12     ecut=    80.00 Ry     beta= 0.70
     Davidson diagonalization with overlap
     ethr =  2.24E-08,  avg # of iterations =  5.0

     negative rho (up, down):  2.792E-03 0.000E+00

     total cpu time spent up to now is       82.4 secs

     total energy              =   -2246.08817131 Ry
     estimated scf accuracy    <       0.00001088 Ry

     iteration # 13     ecut=    80.00 Ry     beta= 0.70
     Davidson diagonalization with overlap
     ethr =  3.49E-09,  avg # of iterations =  2.0

     negative rho (up, down):  4.053E-04 0.000E+00

     total cpu time spent up to now is       92.1 secs

     total energy              =   -2246.08817263 Ry
     estimated scf accuracy    <       0.00000238 Ry

     iteration # 14     ecut=    80.00 Ry     beta= 0.70
     Davidson diagonalization with overlap
     ethr =  7.64E-10,  avg # of iterations =  4.0

     negative rho (up, down):  2.345E-04 0.000E+00

     total cpu time spent up to now is       95.8 secs

     End of self-consistent calculation

          k = 0.0000 0.0000 0.0000 (105382 PWs)   bands (ev):

   -62.9027 -62.8865 -62.8774 -62.8698 -62.8545 -62.7987 -62.7964 -62.7865
   -62.7810 -62.7752 -62.7276 -62.5732 -37.2337 -37.1758 -37.1571 -37.1460
   -37.1402 -37.1115 -37.0998 -37.0921 -37.0740 -37.0580 -37.0557 -37.0449
   -37.0390 -37.0329 -37.0131 -37.0038 -36.9876 -36.9767 -36.9736 -36.9638
   -36.9600 -36.9442 -36.9364 -36.9254 -36.9104 -36.9050 -36.8977 -36.8838
   -36.8638 -36.8427 -36.8321 -36.8015 -36.7754 -36.7242 -36.6950 -36.6588
   -26.9445 -15.9257 -15.1771 -15.1075 -14.9577 -14.8579 -14.7625 -14.5037
   -14.4621 -14.4203 -14.3981 -14.3854 -14.3370 -14.2893 -14.2029 -14.1312
   -14.1254 -14.0926 -14.0285 -13.9580 -13.8389 -13.8238 -13.7933 -13.2219
    -9.8155  -9.5756  -8.4909  -7.5720  -7.4304  -7.2649  -7.2445  -7.1815
    -7.1642  -7.0525  -6.9643  -6.8039  -6.7903  -6.7050  -6.6782  -6.6118
    -6.4701  -6.4481  -6.3716  -6.3206  -6.0813  -6.0609  -5.8976  -5.8769
    -5.8192  -5.7652  -5.7442  -5.6956  -5.6653  -5.6328  -5.6019  -5.5887
    -5.5004  -5.4810  -5.3937  -5.3539  -5.2661  -5.2050  -5.1097  -5.0131
    -4.9849  -4.9134  -4.8519  -4.7913  -4.7679  -4.6309  -4.5100  -4.3096
    -4.2639  -4.2336  -4.2159  -4.1445  -4.0533  -3.9567  -3.8700  -3.7711
    -3.7510  -3.7030  -3.6379  -3.5859  -3.5513  -3.5095  -3.4909  -3.4331
    -3.3901  -3.3753  -3.2492  -3.2189  -3.1897  -2.9816  -2.9350  -2.8282
    -2.7557  -2.7421  -2.7226  -2.6876  -2.6298  -2.6137  -2.5508  -2.2780
    -2.1691  -1.9667  -1.8814  -1.6427  -0.8594  -0.6889  -0.5336  -0.1620
    -0.1198  -0.0496  -0.0354   0.0991   0.1416   0.2311   0.2635   0.3033
     0.3149   0.4239   0.4421   0.5213   0.5356   0.5760   0.5944   0.6378
     0.7445   0.7622   0.7772   0.8123   0.8438   0.8817   0.9225   0.9876
     1.0247   1.1691   1.2481

     the Fermi energy is    -1.2510 ev

!    total energy              =   -2246.08817414 Ry
     estimated scf accuracy    <       0.00000023 Ry
     smearing contrib. (-TS)   =      -0.00000284 Ry
     internal energy E=F+TS    =   -2246.08817131 Ry

     The total energy is F=E-TS. E is the sum of the following terms:
     one-electron contribution =  -18473.02550939 Ry
     hartree contribution      =    9225.00519278 Ry
     xc contribution           =    -392.57245275 Ry
     ewald contribution        =    7404.34265876 Ry
     one-center paw contrib.   =      -9.83806071 Ry

     convergence has been achieved in  14 iterations

     negative rho (up, down):  2.345E-04 0.000E+00

     Forces acting on atoms (cartesian axes, Ry/au):

     atom    1 type  1   force =    -0.00260758   -0.02015257    0.03248129
     atom    2 type  2   force =    -0.17343611    0.64991641   -0.88432961
     atom    3 type  2   force =    -0.01240672    0.00861286   -0.00117008
     atom    4 type  1   force =     0.00696575    0.00284961    0.00239763
     atom    5 type  2   force =    -0.00390467    0.00162288   -0.00814424
     atom    6 type  2   force =     0.00161279    0.01127874   -0.00414462
     atom    7 type  1   force =     0.00299405   -0.01403578   -0.00812200
     atom    8 type  2   force =     0.00105350   -0.00477163    0.01815919
     atom    9 type  2   force =     0.01192935    0.00550786    0.01185815
     atom   10 type  1   force =    -0.02478614   -0.00533027   -0.12547685
     atom   11 type  2   force =     0.00195043   -0.00503289   -0.00585265
     atom   12 type  2   force =    -0.00186316    0.00054217    0.00945884
     atom   13 type  1   force =     0.00272826    0.00289732   -0.00003294
     atom   14 type  2   force =     0.00507754    0.00125770    0.01032605
     atom   15 type  2   force =    -0.01001358   -0.00029987   -0.01097216
     atom   16 type  1   force =    -0.00252226    0.01360628    0.00474856
     atom   17 type  2   force =     0.00558929    0.00166036    0.00198347
     atom   18 type  2   force =    -0.00241400   -0.00543299    0.01312823
     atom   19 type  1   force =     0.00287466   -0.01361163   -0.00476764
     atom   20 type  2   force =     0.00278851   -0.00376539    0.00167087
     atom   21 type  1   force =    -0.00434195   -0.00076087   -0.00349741
     atom   22 type  2   force =    -0.00456822   -0.00133780   -0.00276919
     atom   23 type  2   force =     0.00083295    0.00224522    0.00851917
     atom   24 type  1   force =    -0.00035280   -0.00259799   -0.00439660
     atom   25 type  2   force =     0.01688059    0.01993078    0.00622766
     atom   26 type  2   force =    -0.01160880   -0.00333411   -0.00703502
     atom   27 type  1   force =     0.00116593   -0.00052444    0.00538622
     atom   28 type  2   force =     0.00247006    0.00535335   -0.00410807
     atom   29 type  2   force =     0.00184100    0.00510701   -0.00431216
     atom   30 type  1   force =     0.00079383    0.00893601   -0.00817303
     atom   31 type  2   force =     0.00057872    0.00089356    0.01749400
     atom   32 type  2   force =    -0.00905100    0.00769585    0.00810251
     atom   33 type  1   force =     0.00956375   -0.00554113   -0.00900889
     atom   34 type  2   force =     0.02111673   -0.06737705   -0.02017784
     atom   35 type  2   force =    -0.00591826    0.00689050    0.01699922
     atom   36 type  3   force =     0.16898754   -0.60289804    0.94754993
     The non-local contrib.  to forces
     atom    1 type  1   force =     0.01030719    0.00925121   -0.00833755
     atom    2 type  2   force =    -0.09603076    0.30602876   -0.37661810
     atom    3 type  2   force =    -0.01553349    0.00174198    0.27236750
     atom    4 type  1   force =     0.00249209    0.01102834    0.00340135
     atom    5 type  2   force =     0.00600648   -0.03643184   -0.25098664
     atom    6 type  2   force =    -0.00026757    0.01470029    0.26088552
     atom    7 type  1   force =    -0.01596273    0.00855591   -0.02481483
     atom    8 type  2   force =     0.00302048   -0.00446817   -0.25422030
     atom    9 type  2   force =     0.00485483   -0.00944238    0.27846127
     atom   10 type  1   force =     0.00749772    0.04321179    0.03898720
     atom   11 type  2   force =    -0.00422448   -0.00528568   -0.25663979
     atom   12 type  2   force =    -0.01466796   -0.01676598    0.26306344
     atom   13 type  1   force =    -0.00283417    0.02892571   -0.00394055
     atom   14 type  2   force =     0.01969020   -0.00169546   -0.26274260
     atom   15 type  2   force =    -0.01500885   -0.00192475    0.25659752
     atom   16 type  1   force =    -0.00308372    0.03471602   -0.02745127
     atom   17 type  2   force =     0.00198071   -0.03057146   -0.25115574
     atom   18 type  2   force =    -0.00322192   -0.00570352    0.27470676
     atom   19 type  1   force =     0.01324675    0.00651168   -0.01777732
     atom   20 type  2   force =    -0.00065501   -0.02252179    0.26732581
     atom   21 type  1   force =     0.00420544    0.02809639    0.00457973
     atom   22 type  2   force =    -0.00875070    0.00353669   -0.25512743
     atom   23 type  2   force =     0.00599403   -0.01431490    0.26912528
     atom   24 type  1   force =    -0.02355374    0.00535174    0.00591376
     atom   25 type  2   force =     0.00850657    0.01617478   -0.26107337
     atom   26 type  2   force =     0.00035433   -0.00915142    0.25726933
     atom   27 type  1   force =    -0.00335551    0.00948720    0.01162423
     atom   28 type  2   force =    -0.00524066   -0.03126305   -0.27300102
     atom   29 type  2   force =     0.00505770    0.00706867    0.26092018
     atom   30 type  1   force =     0.00391682    0.02491033    0.00848235
     atom   31 type  2   force =    -0.00751617    0.00075713   -0.25223448
     atom   32 type  2   force =    -0.00236607   -0.01108372    0.27627069
     atom   33 type  1   force =    -0.00537976    0.00431483    0.00539445
     atom   34 type  2   force =     0.03584276   -0.06953523   -0.27403735
     atom   35 type  2   force =     0.00226053   -0.00932449    0.26978795
     atom   36 type  3   force =    -0.47173667    1.78578507   -1.44789370
     The ionic contribution  to forces
     atom    1 type  1   force =    -1.08632433    1.82723382    2.86962970
     atom    2 type  2   force =    -3.04551876    8.85177483   29.64842927
     atom    3 type  2   force =    -0.20824199    0.20490651  -37.35200575
     atom    4 type  1   force =     0.01554414    1.24648332   -0.63000653
     atom    5 type  2   force =    -1.32305263    2.17015817   38.43045242
     atom    6 type  2   force =     0.24559773   -0.30388761  -38.65191276
     atom    7 type  1   force =    -3.09206026   -3.67265436    1.16825756
     atom    8 type  2   force =    -1.03634081   -0.39854689   37.08775284
     atom    9 type  2   force =     0.32589804   -0.14399897  -38.57712098
     atom   10 type  1   force =    -1.62117946   -2.58001730   -0.40595810
     atom   11 type  2   force =    -1.91507519   -3.10331154   38.31157917
     atom   12 type  2   force =     0.26099653    0.45875816  -38.71150880
     atom   13 type  1   force =     0.64928296    1.54827666    1.47438496
     atom   14 type  2   force =    -0.87978940    0.32024408   38.02617466
     atom   15 type  2   force =    -0.02170226    0.02685766  -37.55485093
     atom   16 type  1   force =    -0.26370938    4.27861817   -0.52152227
     atom   17 type  2   force =     0.86041064    1.79820748   37.71672387
     atom   18 type  2   force =    -0.14618579   -0.52656499  -39.08063334
     atom   19 type  1   force =     2.78130625   -2.90876967   -0.38853265
     atom   20 type  2   force =     0.17688444   -0.26478186  -38.96880071
     atom   21 type  1   force =    -0.99673551   -0.47395092   -0.70258944
     atom   22 type  2   force =     0.55148927   -2.08964331   38.13827066
     atom   23 type  2   force =    -0.05783883    0.53837773  -38.90368141
     atom   24 type  1   force =     0.88314870    3.13210894    2.41980581
     atom   25 type  2   force =     2.15204853    0.76969339   38.59609660
     atom   26 type  2   force =    -0.07159534    0.16728056  -38.14107711
     atom   27 type  1   force =     0.33167576    0.79240900   -3.30416519
     atom   28 type  2   force =     0.37672568    1.85890439   37.83189947
     atom   29 type  2   force =    -0.18221479   -0.20569515  -37.92350536
     atom   30 type  1   force =     0.06479573   -1.95216576   -1.54891620
     atom   31 type  2   force =     1.41386569   -0.27019587   37.10174249
     atom   32 type  2   force =    -0.41614013   -0.07906314  -39.13920748
     atom   33 type  1   force =     2.23190039   -1.51323659   -0.18530720
     atom   34 type  2   force =     1.91853071   -3.80729639   38.05457789
     atom   35 type  2   force =    -0.14302997    0.21722799  -38.73131617
     atom   36 type  3   force =     1.26663365   -5.91374057   52.54684102
     The local contribution  to forces
     atom    1 type  1   force =     1.07328663   -1.85675933   -2.82855934
     atom    2 type  2   force =     2.96175463   -8.48663293  -30.18842409
     atom    3 type  2   force =     0.21067317   -0.19791708   37.09975186
     atom    4 type  1   force =    -0.01093278   -1.25439263    0.62914858
     atom    5 type  2   force =     1.31383214   -2.13424153  -38.20787070
     atom    6 type  2   force =    -0.24397126    0.30177291   38.40785142
     atom    7 type  1   force =     3.11126896    3.65038111   -1.15140085
     atom    8 type  2   force =     1.03450884    0.39778855  -36.83582863
     atom    9 type  2   force =    -0.31877528    0.15846079   38.33178859
     atom   10 type  1   force =     1.58894607    2.53115597    0.24195713
     atom   11 type  2   force =     1.92114544    3.10377361  -38.08131540
     atom   12 type  2   force =    -0.24952641   -0.44293018   38.47895582
     atom   13 type  1   force =    -0.64376806   -1.57441185   -1.47025530
     atom   14 type  2   force =     0.86641695   -0.31699270  -37.77369125
     atom   15 type  2   force =     0.02587243   -0.02545179   37.30788609
     atom   16 type  1   force =     0.26423524   -4.29972850    0.55378225
     atom   17 type  2   force =    -0.85682949   -1.76759093  -37.48398501
     atom   18 type  2   force =     0.14698780    0.52728607   38.84034071
     atom   19 type  1   force =    -2.79195462    2.88881416    0.40164397
     atom   20 type  2   force =    -0.17365895    0.28267734   38.72449174
     atom   21 type  1   force =     0.98825717    0.44490904    0.69483516
     atom   22 type  2   force =    -0.54761410    2.08523655  -37.90633130
     atom   23 type  2   force =     0.05316880   -0.52317042   38.66424893
     atom   24 type  1   force =    -0.85976666   -3.14023003   -2.42981237
     atom   25 type  2   force =    -2.14393185   -0.76503601  -38.34947939
     atom   26 type  2   force =     0.05994595   -0.16200316   37.89761038
     atom   27 type  1   force =    -0.32725800   -0.80214752    3.29802224
     atom   28 type  2   force =    -0.36942289   -1.82453374  -37.58385063
     atom   29 type  2   force =     0.17951118    0.20470565   37.67892512
     atom   30 type  1   force =    -0.06791650    1.93632899    1.53250771
     atom   31 type  2   force =    -1.40626025    0.27032475  -36.85255163
     atom   32 type  2   force =     0.40965190    0.09724209   38.89239704
     atom   33 type  1   force =    -2.21708709    1.50318970    0.17125042
     atom   34 type  2   force =    -1.93177081    3.80662242  -37.82207696
     atom   35 type  2   force =     0.13524451   -0.20198954   38.49977216
     atom   36 type  3   force =    -0.62937989    3.53860504  -50.15965074
     The core correction contribution to forces
     atom    1 type  1   force =     0.00000000    0.00000000    0.00000000
     atom    2 type  2   force =     0.00639345   -0.02134162    0.03243361
     atom    3 type  2   force =     0.00072268   -0.00022987   -0.02107281
     atom    4 type  1   force =     0.00000000    0.00000000    0.00000000
     atom    5 type  2   force =    -0.00064931    0.00212881    0.02019418
     atom    6 type  2   force =     0.00022443   -0.00123940   -0.02078486
     atom    7 type  1   force =     0.00000000    0.00000000    0.00000000
     atom    8 type  2   force =    -0.00005455    0.00061183    0.02040040
     atom    9 type  2   force =    -0.00000028    0.00056326   -0.02107992
     atom   10 type  1   force =     0.00000000    0.00000000    0.00000000
     atom   11 type  2   force =     0.00023230   -0.00014656    0.02050155
     atom   12 type  2   force =     0.00137358    0.00140528   -0.02080035
     atom   13 type  1   force =     0.00000000    0.00000000    0.00000000
     atom   14 type  2   force =    -0.00119068   -0.00042367    0.02054380
     atom   15 type  2   force =     0.00081994    0.00016561   -0.02037103
     atom   16 type  1   force =     0.00000000    0.00000000    0.00000000
     atom   17 type  2   force =    -0.00001224    0.00164176    0.02030232
     atom   18 type  2   force =     0.00000513   -0.00037064   -0.02110676
     atom   19 type  1   force =     0.00000000    0.00000000    0.00000000
     atom   20 type  2   force =     0.00017352    0.00092212   -0.02125767
     atom   21 type  1   force =     0.00000000    0.00000000    0.00000000
     atom   22 type  2   force =     0.00024928   -0.00048836    0.02037980
     atom   23 type  2   force =    -0.00051596    0.00123243   -0.02094996
     atom   24 type  1   force =     0.00000000    0.00000000    0.00000000
     atom   25 type  2   force =     0.00014764   -0.00103321    0.02066845
     atom   26 type  2   force =    -0.00033790    0.00047835   -0.02057932
     atom   27 type  1   force =     0.00000000    0.00000000    0.00000000
     atom   28 type  2   force =     0.00039475    0.00224521    0.02078187
     atom   29 type  2   force =    -0.00048479   -0.00088524   -0.02044539
     atom   30 type  1   force =     0.00000000    0.00000000    0.00000000
     atom   31 type  2   force =     0.00043693    0.00013748    0.02045100
     atom   32 type  2   force =    -0.00019159    0.00067476   -0.02114750
     atom   33 type  1   force =     0.00000000    0.00000000    0.00000000
     atom   34 type  2   force =    -0.00155974    0.00285540    0.02136638
     atom   35 type  2   force =    -0.00041082    0.00089998   -0.02097811
     atom   36 type  3   force =     0.00349925   -0.01360936    0.00811707
     The Hubbard contrib.    to forces
     atom    1 type  1   force =     0.00000000    0.00000000    0.00000000
     atom    2 type  2   force =     0.00000000    0.00000000    0.00000000
     atom    3 type  2   force =     0.00000000    0.00000000    0.00000000
     atom    4 type  1   force =     0.00000000    0.00000000    0.00000000
     atom    5 type  2   force =     0.00000000    0.00000000    0.00000000
     atom    6 type  2   force =     0.00000000    0.00000000    0.00000000
     atom    7 type  1   force =     0.00000000    0.00000000    0.00000000
     atom    8 type  2   force =     0.00000000    0.00000000    0.00000000
     atom    9 type  2   force =     0.00000000    0.00000000    0.00000000
     atom   10 type  1   force =     0.00000000    0.00000000    0.00000000
     atom   11 type  2   force =     0.00000000    0.00000000    0.00000000
     atom   12 type  2   force =     0.00000000    0.00000000    0.00000000
     atom   13 type  1   force =     0.00000000    0.00000000    0.00000000
     atom   14 type  2   force =     0.00000000    0.00000000    0.00000000
     atom   15 type  2   force =     0.00000000    0.00000000    0.00000000
     atom   16 type  1   force =     0.00000000    0.00000000    0.00000000
     atom   17 type  2   force =     0.00000000    0.00000000    0.00000000
     atom   18 type  2   force =     0.00000000    0.00000000    0.00000000
     atom   19 type  1   force =     0.00000000    0.00000000    0.00000000
     atom   20 type  2   force =     0.00000000    0.00000000    0.00000000
     atom   21 type  1   force =     0.00000000    0.00000000    0.00000000
     atom   22 type  2   force =     0.00000000    0.00000000    0.00000000
     atom   23 type  2   force =     0.00000000    0.00000000    0.00000000
     atom   24 type  1   force =     0.00000000    0.00000000    0.00000000
     atom   25 type  2   force =     0.00000000    0.00000000    0.00000000
     atom   26 type  2   force =     0.00000000    0.00000000    0.00000000
     atom   27 type  1   force =     0.00000000    0.00000000    0.00000000
     atom   28 type  2   force =     0.00000000    0.00000000    0.00000000
     atom   29 type  2   force =     0.00000000    0.00000000    0.00000000
     atom   30 type  1   force =     0.00000000    0.00000000    0.00000000
     atom   31 type  2   force =     0.00000000    0.00000000    0.00000000
     atom   32 type  2   force =     0.00000000    0.00000000    0.00000000
     atom   33 type  1   force =     0.00000000    0.00000000    0.00000000
     atom   34 type  2   force =     0.00000000    0.00000000    0.00000000
     atom   35 type  2   force =     0.00000000    0.00000000    0.00000000
     atom   36 type  3   force =     0.00000000    0.00000000    0.00000000
     The SCF correction term to forces
     atom    1 type  1   force =     0.00012171    0.00012036   -0.00024200
     atom    2 type  2   force =    -0.00003588    0.00008600   -0.00014079
     atom    3 type  2   force =    -0.00002830    0.00010995   -0.00020137
     atom    4 type  1   force =    -0.00013892   -0.00027079   -0.00013626
     atom    5 type  2   force =    -0.00004257    0.00000790    0.00007600
     atom    6 type  2   force =     0.00002825   -0.00006882   -0.00017443
     atom    7 type  1   force =    -0.00025314   -0.00031981   -0.00015437
     atom    8 type  2   force =    -0.00008167   -0.00015832    0.00006439
     atom    9 type  2   force =    -0.00004918   -0.00007621   -0.00018131
     atom   10 type  1   force =    -0.00005168    0.00031789   -0.00045357
     atom   11 type  2   force =    -0.00012885   -0.00006410    0.00003134
     atom   12 type  2   force =    -0.00004011    0.00007351   -0.00024176
     atom   13 type  1   force =     0.00004631    0.00010543   -0.00021255
     atom   14 type  2   force =    -0.00005073    0.00012407    0.00005095
     atom   15 type  2   force =     0.00000395    0.00005202   -0.00022430
     atom   16 type  1   force =     0.00003438   -0.00000078   -0.00005063
     atom   17 type  2   force =     0.00003847   -0.00002786    0.00010754
     atom   18 type  2   force =    -0.00000043   -0.00008129   -0.00016962
     atom   19 type  1   force =     0.00027505   -0.00016917   -0.00009213
     atom   20 type  2   force =     0.00004330   -0.00006259   -0.00007878
     atom   21 type  1   force =    -0.00007026    0.00018324   -0.00031335
     atom   22 type  2   force =     0.00005682    0.00001926    0.00004859
     atom   23 type  2   force =     0.00002369    0.00011900   -0.00021416
     atom   24 type  1   force =    -0.00018231    0.00016999   -0.00029429
     atom   25 type  2   force =     0.00010847    0.00013046    0.00002489
     atom   26 type  2   force =     0.00002295    0.00006019   -0.00024878
     atom   27 type  1   force =     0.00010247   -0.00027449   -0.00008554
     atom   28 type  2   force =     0.00001196   -0.00000084    0.00007175
     atom   29 type  2   force =    -0.00002951   -0.00008829   -0.00019720
     atom   30 type  1   force =    -0.00000343   -0.00013892   -0.00023738
     atom   31 type  2   force =     0.00005131   -0.00013131    0.00009613
     atom   32 type  2   force =    -0.00000634   -0.00007550   -0.00020073
     atom   33 type  1   force =     0.00012900    0.00018955   -0.00033705
     atom   34 type  2   force =     0.00007260   -0.00002462    0.00000171
     atom   35 type  2   force =     0.00001627    0.00007519   -0.00025710
     atom   36 type  3   force =    -0.00003002    0.00006040    0.00014579

     Total force =     1.597746     Total SCF correction =     0.001521

     BFGS Geometry Optimization
     Energy error            =      0.0E+00 Ry
     Gradient error          =      9.5E-01 Ry/Bohr

     number of scf cycles    =   1
     number of bfgs steps    =   0

     energy             new  =   -2246.0881741444 Ry

     new trust radius        =       0.5000000000 bohr
     new conv_thr            =       0.0000010000 Ry


ATOMIC_POSITIONS (angstrom)
Mo            6.5739409283        1.7831113492        2.8312100975
S             8.1363044710        0.9611130208        4.2285188451
S             8.1903427319        0.8132482566        1.2776108374
Mo            8.0967853538        4.4957208082        2.7183769621
S             6.4989995971        3.7227895658        4.3447633099
S             6.5537255253        3.5143651272        1.1203146679
Mo            6.4906792108        7.2151674132        2.6699923281
S             8.0819731596        6.3427593603        4.2466920521
S             8.0836967906        6.3059854653        1.0866255560
Mo            8.1548446994        9.9009386368        2.8142298106
S             6.4956219821        8.9417543174        4.3817420610
S             6.6175131454        9.0488375197        1.1421108985
Mo            3.4222952562        1.7476308303        2.7764634878
S             4.9763483900        0.8172342109        4.3529387215
S             5.0555009228        0.8461922481        1.2241023120
Mo            4.9791690792        4.5163478152        2.6339908072
S             3.4291437824        3.6719864945        4.2801716619
S             3.4373581996        3.5469629902        1.0614101242
Mo            3.4545314399        7.2131534795        2.6295661601
S             4.9838838234        6.3260550739        1.0376429880
Mo            5.0112523898        9.9014227928        2.7425861804
S             3.4698938728        8.9434396062        4.3249461825
S             3.4086232150        9.0655130458        1.0980529837
Mo            0.2960082974        1.7469042849        2.8484204467
S             1.8543948305        0.7973372192        4.3996602781
S             1.8580955682        0.8536491815        1.2077619282
Mo            1.8609629330        4.4955445840        2.6614521914
S             0.2727892906        3.6556459794        4.3366270552
S             0.2316600999        3.5284389903        1.1710132940
Mo            0.2713370877        7.2187278882        2.6997923821
S             1.9023730705        6.3130070051        4.2265196428
S             1.8601296305        6.3121366910        1.0464468995
Mo            1.8465746996        9.9388482529        2.7708474793
S             0.3008323982        9.0743012073        4.4091686970
S             0.2753926404        9.0451309720        1.1543610344
O             8.4453773879       10.7884447270        5.5701924557



     Writing config-only to output data dir ./MoS2-V-O.save/
     NEW-OLD atomic charge density approx. for the potential

     negative rho (up, down):  1.882E-04 0.000E+00

     total cpu time spent up to now is      103.2 secs

     Self-consistent Calculation

     iteration #  1     ecut=    80.00 Ry     beta= 0.70
     Davidson diagonalization with overlap
     ethr =  1.00E-06,  avg # of iterations = 18.0

     negative rho (up, down):  6.339E-03 0.000E+00

     total cpu time spent up to now is      118.5 secs

     total energy              =   -2246.24783839 Ry
     estimated scf accuracy    <       0.19398713 Ry

     iteration #  2     ecut=    80.00 Ry     beta= 0.70
     Davidson diagonalization with overlap
     ethr =  6.22E-05,  avg # of iterations =  5.0

     negative rho (up, down):  1.034E-02 0.000E+00

     total cpu time spent up to now is      131.1 secs

     total energy              =   -2246.26447529 Ry
     estimated scf accuracy    <       0.10945359 Ry

     iteration #  3     ecut=    80.00 Ry     beta= 0.70
     Davidson diagonalization with overlap
     ethr =  3.51E-05,  avg # of iterations =  3.0

     negative rho (up, down):  1.785E-02 0.000E+00

     total cpu time spent up to now is      139.5 secs

     total energy              =   -2246.26730357 Ry
     estimated scf accuracy    <       0.01789530 Ry

     iteration #  4     ecut=    80.00 Ry     beta= 0.70
     Davidson diagonalization with overlap
     ethr =  5.74E-06,  avg # of iterations =  3.0

     negative rho (up, down):  1.928E-02 0.000E+00

     total cpu time spent up to now is      151.4 secs

     total energy              =   -2246.26877026 Ry
     estimated scf accuracy    <       0.00719928 Ry

     iteration #  5     ecut=    80.00 Ry     beta= 0.70
     Davidson diagonalization with overlap
     ethr =  2.31E-06,  avg # of iterations =  2.0

     negative rho (up, down):  1.919E-02 0.000E+00

     total cpu time spent up to now is      164.4 secs

     total energy              =   -2246.26832409 Ry
     estimated scf accuracy    <       0.00272352 Ry

     iteration #  6     ecut=    80.00 Ry     beta= 0.70
     Davidson diagonalization with overlap
     ethr =  8.73E-07,  avg # of iterations =  5.0

     negative rho (up, down):  1.719E-02 0.000E+00

     total cpu time spent up to now is      176.6 secs

     total energy              =   -2246.26866538 Ry
     estimated scf accuracy    <       0.00074540 Ry

     iteration #  7     ecut=    80.00 Ry     beta= 0.70
     Davidson diagonalization with overlap
     ethr =  2.39E-07,  avg # of iterations =  4.0

     negative rho (up, down):  1.247E-02 0.000E+00

     total cpu time spent up to now is      187.4 secs

     total energy              =   -2246.26859375 Ry
     estimated scf accuracy    <       0.00016571 Ry

     iteration #  8     ecut=    80.00 Ry     beta= 0.70
     Davidson diagonalization with overlap
     ethr =  5.31E-08,  avg # of iterations =  5.0

     negative rho (up, down):  1.044E-02 0.000E+00

     total cpu time spent up to now is      198.2 secs

     total energy              =   -2246.26859828 Ry
     estimated scf accuracy    <       0.00014219 Ry

     iteration #  9     ecut=    80.00 Ry     beta= 0.70
     Davidson diagonalization with overlap
     ethr =  4.56E-08,  avg # of iterations =  2.0

     negative rho (up, down):  5.564E-03 0.000E+00

     total cpu time spent up to now is      205.1 secs

     total energy              =   -2246.26852303 Ry
     estimated scf accuracy    <       0.00007204 Ry

     iteration # 10     ecut=    80.00 Ry     beta= 0.70
     Davidson diagonalization with overlap
     ethr =  2.31E-08,  avg # of iterations =  4.0

     negative rho (up, down):  3.867E-03 0.000E+00

     total cpu time spent up to now is      215.0 secs

     total energy              =   -2246.26851288 Ry
     estimated scf accuracy    <       0.00001191 Ry

     iteration # 11     ecut=    80.00 Ry     beta= 0.70
     Davidson diagonalization with overlap
     ethr =  3.82E-09,  avg # of iterations =  2.0

     negative rho (up, down):  1.633E-03 0.000E+00

     total cpu time spent up to now is      222.5 secs

     total energy              =   -2246.26849487 Ry
     estimated scf accuracy    <       0.00000576 Ry

     iteration # 12     ecut=    80.00 Ry     beta= 0.70
     Davidson diagonalization with overlap
     ethr =  1.85E-09,  avg # of iterations =  5.0

     negative rho (up, down):  9.043E-04 0.000E+00

     total cpu time spent up to now is      229.8 secs

     total energy              =   -2246.26849074 Ry
     estimated scf accuracy    <       0.00000258 Ry

     iteration # 13     ecut=    80.00 Ry     beta= 0.70
     Davidson diagonalization with overlap
     ethr =  8.26E-10,  avg # of iterations =  2.0

     negative rho (up, down):  2.862E-04 0.000E+00

     total cpu time spent up to now is      240.9 secs

     total energy              =   -2246.26848780 Ry
     estimated scf accuracy    <       0.00000121 Ry

     iteration # 14     ecut=    80.00 Ry     beta= 0.70
     Davidson diagonalization with overlap
     ethr =  3.89E-10,  avg # of iterations =  3.0

     negative rho (up, down):  1.949E-04 0.000E+00

     total cpu time spent up to now is      244.4 secs

     End of self-consistent calculation

          k = 0.0000 0.0000 0.0000 (105382 PWs)   bands (ev):

   -63.0677 -63.0525 -63.0466 -63.0339 -63.0233 -63.0122 -62.9622 -62.9454
   -62.9321 -62.9194 -62.8791 -62.8330 -37.4079 -37.3857 -37.3488 -37.3292
   -37.3162 -37.3006 -37.2778 -37.2666 -37.2456 -37.2308 -37.2256 -37.2180
   -37.2125 -37.2011 -37.1960 -37.1897 -37.1623 -37.1577 -37.1345 -37.1316
   -37.1252 -37.0971 -37.0896 -37.0865 -37.0827 -37.0750 -37.0600 -37.0537
   -37.0401 -37.0376 -36.9965 -36.9721 -36.9537 -36.9327 -36.9212 -36.8387
   -19.7985 -16.1078 -15.3734 -15.3022 -15.1317 -15.0567 -14.8975 -14.7339
   -14.6294 -14.6044 -14.5604 -14.5458 -14.4793 -14.4525 -14.4205 -14.3334
   -14.2757 -14.2601 -14.1775 -14.1598 -14.0432 -14.0097 -13.9758 -13.9263
    -7.9072  -7.8533  -7.7031  -7.5632  -7.5163  -7.4374  -7.3724  -7.3481
    -7.2396  -7.0148  -6.9500  -6.9032  -6.8840  -6.7831  -6.7363  -6.6467
    -6.6203  -6.5490  -6.5081  -6.4477  -6.1330  -6.1217  -6.0638  -6.0369
    -5.9381  -5.9334  -5.8908  -5.8364  -5.8014  -5.7749  -5.7253  -5.6696
    -5.6237  -5.6049  -5.5348  -5.4475  -5.3313  -5.2530  -5.1694  -5.1470
    -5.1357  -5.0779  -5.0021  -4.8713  -4.8267  -4.6680  -4.6120  -4.4546
    -4.4050  -4.3642  -4.2798  -4.2061  -4.0733  -4.0394  -3.9572  -3.9056
    -3.8963  -3.8417  -3.7712  -3.7517  -3.6698  -3.6591  -3.6249  -3.5863
    -3.5641  -3.5438  -3.3990  -3.3056  -3.1175  -3.0771  -3.0442  -3.0357
    -2.9302  -2.9042  -2.8648  -2.8544  -2.7992  -2.7380  -2.5406  -2.4219
    -2.2361  -2.1599  -1.9834  -1.6312  -1.0151  -0.8501  -0.7299  -0.3571
    -0.3086  -0.2143  -0.1968  -0.0408  -0.0251   0.0577   0.0869   0.1266
     0.1422   0.2533   0.2815   0.3309   0.3891   0.4054   0.4343   0.4835
     0.5514   0.5903   0.6287   0.6519   0.6898   0.7123   0.7601   0.8495
     0.8846   0.9991   1.0661

     the Fermi energy is    -1.3232 ev

!    total energy              =   -2246.26848828 Ry
     estimated scf accuracy    <       0.00000023 Ry
     smearing contrib. (-TS)   =      -0.00006702 Ry
     internal energy E=F+TS    =   -2246.26842126 Ry

     The total energy is F=E-TS. E is the sum of the following terms:
     one-electron contribution =  -18450.22160745 Ry
     hartree contribution      =    9212.50050862 Ry
     xc contribution           =    -392.04274191 Ry
     ewald contribution        =    7393.36515955 Ry
     one-center paw contrib.   =      -9.86974007 Ry

     convergence has been achieved in  14 iterations

     negative rho (up, down):  1.949E-04 0.000E+00

     Forces acting on atoms (cartesian axes, Ry/au):

     atom    1 type  1   force =    -0.05221044    0.01501399   -0.03287759
     atom    2 type  2   force =     0.05451396   -0.16999062    0.18245107
     atom    3 type  2   force =    -0.01133125    0.00923800   -0.02068870
     atom    4 type  1   force =     0.00593479    0.00165748   -0.00146703
     atom    5 type  2   force =    -0.00325292    0.00419755   -0.00454873
     atom    6 type  2   force =     0.00074972    0.01130952   -0.00167979
     atom    7 type  1   force =     0.00079085   -0.01301091   -0.00379635
     atom    8 type  2   force =     0.00132294   -0.00330576    0.01671864
     atom    9 type  2   force =     0.01157703    0.00517193    0.00935987
     atom   10 type  1   force =    -0.01043994   -0.00931356   -0.05807925
     atom   11 type  2   force =     0.00809773   -0.00235414   -0.01148926
     atom   12 type  2   force =    -0.00341414   -0.00009916    0.00255983
     atom   13 type  1   force =     0.00436719    0.00215752   -0.00318361
     atom   14 type  2   force =     0.00317452   -0.00068889    0.01275428
     atom   15 type  2   force =    -0.01054886   -0.00171109   -0.01066504
     atom   16 type  1   force =     0.00057919    0.01260424    0.00339647
     atom   17 type  2   force =     0.00530124    0.00113217    0.00376911
     atom   18 type  2   force =    -0.00213953   -0.00493230    0.01199725
     atom   19 type  1   force =     0.00197861   -0.01148637   -0.00265917
     atom   20 type  2   force =     0.00214444   -0.00358056   -0.00065585
     atom   21 type  1   force =    -0.00344546   -0.00257646   -0.00209438
     atom   22 type  2   force =    -0.00417224   -0.00229736   -0.00230514
     atom   23 type  2   force =     0.00150642    0.00046135    0.00569335
     atom   24 type  1   force =     0.03635490    0.02443274   -0.04915256
     atom   25 type  2   force =     0.01133170    0.01625119    0.00524879
     atom   26 type  2   force =    -0.00936002   -0.00376566   -0.00583298
     atom   27 type  1   force =    -0.00030643    0.00079308    0.00451128
     atom   28 type  2   force =     0.00350457    0.00649210   -0.00140866
     atom   29 type  2   force =     0.00297583    0.00446154   -0.00336711
     atom   30 type  1   force =     0.00389802    0.00138093   -0.00658407
     atom   31 type  2   force =    -0.00014715    0.00204900    0.01546185
     atom   32 type  2   force =    -0.00774341    0.00625262    0.00628840
     atom   33 type  1   force =     0.00637769   -0.00376932   -0.00330192
     atom   34 type  2   force =    -0.00510607   -0.03606588   -0.01845743
     atom   35 type  2   force =    -0.00535431    0.00670747    0.01047388
     atom   36 type  3   force =    -0.03750919    0.13718363   -0.04638946
     The non-local contrib.  to forces
     atom    1 type  1   force =     0.00611876    0.00891540   -0.00941760
     atom    2 type  2   force =     0.05741023   -0.29191204    0.33708909
     atom    3 type  2   force =    -0.01484769    0.00292628    0.26485568
     atom    4 type  1   force =     0.00272412    0.01750170    0.00395034
     atom    5 type  2   force =     0.00371954   -0.03412654   -0.25535240
     atom    6 type  2   force =     0.00079999    0.01475921    0.26204259
     atom    7 type  1   force =    -0.01704751    0.01297734   -0.02212095
     atom    8 type  2   force =     0.00337178   -0.00767567   -0.25611223
     atom    9 type  2   force =     0.00391817   -0.01084744    0.27732300
     atom   10 type  1   force =     0.00844579    0.00570093    0.01423128
     atom   11 type  2   force =    -0.01091643   -0.00692554   -0.26552432
     atom   12 type  2   force =    -0.01119903   -0.01690748    0.26200916
     atom   13 type  1   force =    -0.00458493    0.02480316   -0.00237904
     atom   14 type  2   force =     0.01338129   -0.00313095   -0.26911906
     atom   15 type  2   force =    -0.01503013   -0.00548568    0.25499760
     atom   16 type  1   force =    -0.00483133    0.03602803   -0.02818999
     atom   17 type  2   force =     0.00242205   -0.03077717   -0.25290890
     atom   18 type  2   force =    -0.00283034   -0.00290449    0.27397548
     atom   19 type  1   force =     0.01223866    0.00744292   -0.01744973
     atom   20 type  2   force =    -0.00099208   -0.02217290    0.26622945
     atom   21 type  1   force =     0.00223719    0.02541400    0.00439649
     atom   22 type  2   force =    -0.00740790    0.00411109   -0.25823242
     atom   23 type  2   force =     0.00636630   -0.01617354    0.26808553
     atom   24 type  1   force =    -0.00587573    0.00924453   -0.00312516
     atom   25 type  2   force =     0.01197947    0.01107692   -0.26848967
     atom   26 type  2   force =     0.00135194   -0.01072613    0.25433469
     atom   27 type  1   force =    -0.00251562    0.01117326    0.01121106
     atom   28 type  2   force =    -0.00366033   -0.02742429   -0.27948483
     atom   29 type  2   force =     0.00527189    0.00365384    0.26317631
     atom   30 type  1   force =     0.00499581    0.03184932    0.01157940
     atom   31 type  2   force =    -0.00815918    0.00169005   -0.25557029
     atom   32 type  2   force =    -0.00105042   -0.01147896    0.27559368
     atom   33 type  1   force =    -0.00354544   -0.00051270    0.00540328
     atom   34 type  2   force =     0.00653103   -0.02162148   -0.25994070
     atom   35 type  2   force =    -0.00202185   -0.00794933    0.26738799
     atom   36 type  3   force =    -0.26250962    1.06779498   -1.09257885
     The ionic contribution  to forces
     atom    1 type  1   force =    -2.22156671    2.09685613    2.77500538
     atom    2 type  2   force =    -1.42656872    3.30286855   32.89400856
     atom    3 type  2   force =    -0.17304771    0.24763964  -37.51293674
     atom    4 type  1   force =     0.00320321    1.38428650   -0.59202686
     atom    5 type  2   force =    -1.36543199    2.21664808   38.49595421
     atom    6 type  2   force =     0.20425556   -0.31753036  -38.63685296
     atom    7 type  1   force =    -3.07242559   -3.52392129    1.24873142
     atom    8 type  2   force =    -1.03736517   -0.33584772   37.13787087
     atom    9 type  2   force =     0.32463549   -0.15556959  -38.55367353
     atom   10 type  1   force =    -1.28239546   -2.31645177   -0.16159742
     atom   11 type  2   force =    -1.70777603   -2.82929525   38.24405527
     atom   12 type  2   force =     0.13903286    0.38173936  -38.70741261
     atom   13 type  1   force =     0.58385906    1.45488907    1.56543866
     atom   14 type  2   force =    -0.83609807    0.20819741   38.16756262
     atom   15 type  2   force =    -0.04739382    0.04585141  -37.55983190
     atom   16 type  1   force =    -0.27219674    4.20699153   -0.44209579
     atom   17 type  2   force =     0.84469325    1.76320790   37.75133644
     atom   18 type  2   force =    -0.13948649   -0.52602731  -39.04170612
     atom   19 type  1   force =     2.76698290   -2.80576507   -0.36617400
     atom   20 type  2   force =     0.16566319   -0.25513202  -38.99086319
     atom   21 type  1   force =    -0.95297873   -0.48641797   -0.46853354
     atom   22 type  2   force =     0.56384125   -2.04980072   38.13571780
     atom   23 type  2   force =    -0.05799106    0.52633772  -38.86519373
     atom   24 type  1   force =     1.85947120    2.90179678    2.48333069
     atom   25 type  2   force =     1.87023760    0.66362562   38.65023650
     atom   26 type  2   force =    -0.03999018    0.15873693  -38.09820303
     atom   27 type  1   force =     0.34890272    0.79408765   -3.19294273
     atom   28 type  2   force =     0.43405548    1.80791448   37.93364321
     atom   29 type  2   force =    -0.14457153   -0.18359877  -37.94839690
     atom   30 type  1   force =     0.05161102   -1.90895548   -1.50841277
     atom   31 type  2   force =     1.40762345   -0.25349435   37.14365730
     atom   32 type  2   force =    -0.40407418   -0.09031722  -39.11890116
     atom   33 type  1   force =     1.99327537   -1.32675462    0.06562862
     atom   34 type  2   force =     1.62949681   -3.33429062   37.76362775
     atom   35 type  2   force =    -0.03810225    0.19935626  -38.67807564
     atom   36 type  3   force =     0.02862001   -1.66186088   47.98802533
     The local contribution  to forces
     atom    1 type  1   force =     2.16333914   -2.09094239   -2.79834087
     atom    2 type  2   force =     1.42704077   -3.19690191  -33.03838391
     atom    3 type  2   force =     0.17586697   -0.24119434   37.24799035
     atom    4 type  1   force =    -0.00004076   -1.40040602    0.58649913
     atom    5 type  2   force =     1.35906797   -2.18052738  -38.26561626
     atom    6 type  2   force =    -0.20446638    0.31527432   38.39377415
     atom    7 type  1   force =     3.09026929    3.49811517   -1.23054031
     atom    8 type  2   force =     1.03537082    0.33942349  -36.88550982
     atom    9 type  2   force =    -0.31702914    0.17096153   38.30652648
     atom   10 type  1   force =     1.26352457    2.30172611    0.08935605
     atom   11 type  2   force =     1.72585262    2.83364352  -38.01119061
     atom   12 type  2   force =    -0.13222794   -0.36615827   38.46864519
     atom   13 type  1   force =    -0.57485635   -1.47776046   -1.56628271
     atom   14 type  2   force =     0.82679750   -0.20533876  -37.90667294
     atom   15 type  2   force =     0.05107426   -0.04241394   37.31432756
     atom   16 type  1   force =     0.27772721   -4.23060183    0.47348639
     atom   17 type  2   force =    -0.84174955   -1.73307388  -37.51507649
     atom   18 type  2   force =     0.14020313    0.52443284   38.80060547
     atom   19 type  1   force =    -2.77722041    2.78701332    0.38075415
     atom   20 type  2   force =    -0.16272851    0.27281406   38.74497860
     atom   21 type  1   force =     0.94735401    0.45862909    0.46204087
     atom   22 type  2   force =    -0.56079163    2.04403981  -37.90033558
     atom   23 type  2   force =     0.05364293   -0.51095708   38.62352050
     atom   24 type  1   force =    -1.81740857   -2.88682407   -2.52924456
     atom   25 type  2   force =    -1.87055040   -0.65758025  -38.39773882
     atom   26 type  2   force =     0.02960670   -0.15232872   37.85834011
     atom   27 type  1   force =    -0.34676844   -0.80462615    3.18602873
     atom   28 type  2   force =    -0.42731667   -1.77619474  -37.67673508
     atom   29 type  2   force =     0.14273409    0.18500767   37.70225270
     atom   30 type  1   force =    -0.05273877    1.87869630    1.49008446
     atom   31 type  2   force =    -1.40007771    0.25378740  -36.89323937
     atom   32 type  2   force =     0.39765447    0.10739131   38.87047628
     atom   33 type  1   force =    -1.98342544    1.32367671   -0.07435821
     atom   34 type  2   force =    -1.64048373    3.31869334  -37.54312094
     atom   35 type  2   force =     0.03478983   -0.18540064   38.44196341
     atom   36 type  3   force =     0.19320451    0.74402195  -46.95375089
     The core correction contribution to forces
     atom    1 type  1   force =     0.00000000    0.00000000    0.00000000
     atom    2 type  2   force =    -0.00339573    0.01593388   -0.00997993
     atom    3 type  2   force =     0.00067531   -0.00014210   -0.02069189
     atom    4 type  1   force =     0.00000000    0.00000000    0.00000000
     atom    5 type  2   force =    -0.00054802    0.00202298    0.02050256
     atom    6 type  2   force =     0.00016439   -0.00126557   -0.02079796
     atom    7 type  1   force =     0.00000000    0.00000000    0.00000000
     atom    8 type  2   force =    -0.00005501    0.00083109    0.02052600
     atom    9 type  2   force =     0.00005983    0.00062775   -0.02105604
     atom   10 type  1   force =     0.00000000    0.00000000    0.00000000
     atom   11 type  2   force =     0.00096946    0.00037342    0.02129628
     atom   12 type  2   force =     0.00099047    0.00129943   -0.02087573
     atom   13 type  1   force =     0.00000000    0.00000000    0.00000000
     atom   14 type  2   force =    -0.00081419   -0.00044136    0.02108001
     atom   15 type  2   force =     0.00082710    0.00034000   -0.02029657
     atom   16 type  1   force =     0.00000000    0.00000000    0.00000000
     atom   17 type  2   force =    -0.00003789    0.00164588    0.02044234
     atom   18 type  2   force =    -0.00000285   -0.00049269   -0.02109493
     atom   19 type  1   force =     0.00000000    0.00000000    0.00000000
     atom   20 type  2   force =     0.00018603    0.00092045   -0.02124196
     atom   21 type  1   force =     0.00000000    0.00000000    0.00000000
     atom   22 type  2   force =     0.00019398   -0.00052986    0.02058701
     atom   23 type  2   force =    -0.00052494    0.00129194   -0.02091045
     atom   24 type  1   force =     0.00000000    0.00000000    0.00000000
     atom   25 type  2   force =    -0.00039960   -0.00091117    0.02134708
     atom   26 type  2   force =    -0.00033463    0.00052392   -0.02045069
     atom   27 type  1   force =     0.00000000    0.00000000    0.00000000
     atom   28 type  2   force =     0.00033559    0.00201792    0.02124599
     atom   29 type  2   force =    -0.00048918   -0.00066145   -0.02057749
     atom   30 type  1   force =     0.00000000    0.00000000    0.00000000
     atom   31 type  2   force =     0.00045167    0.00012168    0.02061803
     atom   32 type  2   force =    -0.00026789    0.00069400   -0.02112266
     atom   33 type  1   force =     0.00000000    0.00000000    0.00000000
     atom   34 type  2   force =    -0.00068676    0.00128707    0.02106467
     atom   35 type  2   force =    -0.00001970    0.00076233   -0.02097186
     atom   36 type  3   force =     0.00304350   -0.01232445    0.01184335
     The Hubbard contrib.    to forces
     atom    1 type  1   force =     0.00000000    0.00000000    0.00000000
     atom    2 type  2   force =     0.00000000    0.00000000    0.00000000
     atom    3 type  2   force =     0.00000000    0.00000000    0.00000000
     atom    4 type  1   force =     0.00000000    0.00000000    0.00000000
     atom    5 type  2   force =     0.00000000    0.00000000    0.00000000
     atom    6 type  2   force =     0.00000000    0.00000000    0.00000000
     atom    7 type  1   force =     0.00000000    0.00000000    0.00000000
     atom    8 type  2   force =     0.00000000    0.00000000    0.00000000
     atom    9 type  2   force =     0.00000000    0.00000000    0.00000000
     atom   10 type  1   force =     0.00000000    0.00000000    0.00000000
     atom   11 type  2   force =     0.00000000    0.00000000    0.00000000
     atom   12 type  2   force =     0.00000000    0.00000000    0.00000000
     atom   13 type  1   force =     0.00000000    0.00000000    0.00000000
     atom   14 type  2   force =     0.00000000    0.00000000    0.00000000
     atom   15 type  2   force =     0.00000000    0.00000000    0.00000000
     atom   16 type  1   force =     0.00000000    0.00000000    0.00000000
     atom   17 type  2   force =     0.00000000    0.00000000    0.00000000
     atom   18 type  2   force =     0.00000000    0.00000000    0.00000000
     atom   19 type  1   force =     0.00000000    0.00000000    0.00000000
     atom   20 type  2   force =     0.00000000    0.00000000    0.00000000
     atom   21 type  1   force =     0.00000000    0.00000000    0.00000000
     atom   22 type  2   force =     0.00000000    0.00000000    0.00000000
     atom   23 type  2   force =     0.00000000    0.00000000    0.00000000
     atom   24 type  1   force =     0.00000000    0.00000000    0.00000000
     atom   25 type  2   force =     0.00000000    0.00000000    0.00000000
     atom   26 type  2   force =     0.00000000    0.00000000    0.00000000
     atom   27 type  1   force =     0.00000000    0.00000000    0.00000000
     atom   28 type  2   force =     0.00000000    0.00000000    0.00000000
     atom   29 type  2   force =     0.00000000    0.00000000    0.00000000
     atom   30 type  1   force =     0.00000000    0.00000000    0.00000000
     atom   31 type  2   force =     0.00000000    0.00000000    0.00000000
     atom   32 type  2   force =     0.00000000    0.00000000    0.00000000
     atom   33 type  1   force =     0.00000000    0.00000000    0.00000000
     atom   34 type  2   force =     0.00000000    0.00000000    0.00000000
     atom   35 type  2   force =     0.00000000    0.00000000    0.00000000
     atom   36 type  3   force =     0.00000000    0.00000000    0.00000000
     The SCF correction term to forces
     atom    1 type  1   force =    -0.00010260    0.00018414   -0.00013934
     atom    2 type  2   force =     0.00002642    0.00002019   -0.00029757
     atom    3 type  2   force =     0.00002088    0.00000782    0.00007907
     atom    4 type  1   force =     0.00004723    0.00027458    0.00009553
     atom    5 type  2   force =    -0.00006140    0.00017970   -0.00005166
     atom    6 type  2   force =    -0.00000482    0.00007122    0.00013956
     atom    7 type  1   force =    -0.00000632   -0.00018284    0.00011866
     atom    8 type  2   force =    -0.00000048   -0.00003765   -0.00007101
     atom    9 type  2   force =    -0.00000831   -0.00000102    0.00022513
     atom   10 type  1   force =    -0.00001583   -0.00028954   -0.00008399
     atom   11 type  2   force =    -0.00003288   -0.00015099   -0.00014070
     atom   12 type  2   force =    -0.00001148   -0.00007290    0.00017899
     atom   13 type  1   force =    -0.00005157    0.00022505    0.00002465
     atom   14 type  2   force =    -0.00009300    0.00002408   -0.00011119
     atom   15 type  2   force =    -0.00002726   -0.00000358    0.00012344
     atom   16 type  1   force =    -0.00012094    0.00018581    0.00018102
     atom   17 type  2   force =    -0.00002760    0.00012874   -0.00003912
     atom   18 type  2   force =    -0.00002397    0.00005865    0.00020252
     atom   19 type  1   force =    -0.00002353   -0.00017824    0.00019557
     atom   20 type  2   force =     0.00001482   -0.00001085    0.00022642
     atom   21 type  1   force =    -0.00005891   -0.00020229   -0.00001303
     atom   22 type  2   force =    -0.00000893   -0.00011839   -0.00005677
     atom   23 type  2   force =     0.00001220   -0.00003841    0.00017667
     atom   24 type  1   force =     0.00016701    0.00021479   -0.00012836
     atom   25 type  2   force =     0.00006365    0.00003936   -0.00012113
     atom   26 type  2   force =     0.00000516    0.00002763    0.00013111
     atom   27 type  1   force =     0.00007391    0.00015761    0.00019940
     atom   28 type  2   force =     0.00008951    0.00017801   -0.00009278
     atom   29 type  2   force =     0.00002958    0.00005954    0.00016343
     atom   30 type  1   force =     0.00002897   -0.00020991    0.00015000
     atom   31 type  2   force =     0.00001363   -0.00005649   -0.00001865
     atom   32 type  2   force =    -0.00000639   -0.00003723    0.00022743
     atom   33 type  1   force =     0.00007221   -0.00017941    0.00000956
     atom   34 type  2   force =     0.00003560   -0.00013490   -0.00010304
     atom   35 type  2   force =    -0.00000132   -0.00006185    0.00015514
     atom   36 type  3   force =     0.00013142   -0.00044868    0.00005677

     Total force =     0.324624     Total SCF correction =     0.001327
     Energy error            =      1.8E-01 Ry
     Gradient error          =      1.8E-01 Ry/Bohr

     number of scf cycles    =   2
     number of bfgs steps    =   1

     energy             old  =   -2246.0881741445 Ry
     energy             new  =   -2246.2684882839 Ry

     CASE: energy            _new < energy            _old

     new trust radius        =       0.1238586386 bohr
     new conv_thr            =       0.0000001825 Ry


ATOMIC_POSITIONS (angstrom)
Mo            6.5499401002        1.7890355501        2.8176924673
S             8.1531249796        0.9137640939        4.2706027685
S             8.1845800101        0.8178761692        1.2680939652
Mo            8.0998254788        4.4966121503        2.7178181455
S             6.4973292199        3.7247852531        4.3423019936
S             6.5541438503        3.5200651517        1.1193525509
Mo            6.4911809485        7.2085602932        2.6678761556
S             8.0826274916        6.3410242685        4.2551877922
S             8.0895495968        6.3086085033        1.0914609919
Mo            8.1489106200        9.8964296974        2.7817980357
S             6.4994167708        8.9404422353        4.3762136174
S             6.6158645192        9.0488175254        1.1437240624
Mo            3.4244202325        1.7487531022        2.7750058949
S             4.9780377654        0.8169779674        4.3592549605
S             5.0502079633        0.8453956398        1.2187113833
Mo            4.9793160073        4.5227488551        2.6357663085
S             3.4318297691        3.6725819617        4.2819882651
S             3.4362667602        3.5444530520        1.0675111934
Mo            3.4555708253        7.2072634583        2.6281269784
S             4.9849950219        6.3242413638        1.0374211805
Mo            5.0094735000        9.9002088402        2.7414647212
S             3.4677720000        8.9423263186        4.3237623892
S             3.4093511483        9.0658290602        1.1010553402
Mo            0.3126190065        1.7579572852        2.8257344858
S             1.8603670097        0.8057020294        4.4023521347
S             1.8532717241        0.8517709848        1.2047651298
Mo            1.8608773163        4.4958827747        2.6637673862
S             0.2745076645        3.6588655775        4.3357906524
S             0.2331072282        3.5307183745        1.1692716313
Mo            0.2731570094        7.2197774194        2.6963988379
S             1.9023328376        6.3139859237        4.2344094683
S             1.8561647875        6.3153563232        1.0497019197
Mo            1.8499389004        9.9368651558        2.7689159591
S             0.2994847607        9.0546548468        4.3997832901
S             0.2726669949        9.0485209693        1.1599464300
O             8.4361260820       10.8229882357        5.5932943330



     Writing config-only to output data dir ./MoS2-V-O.save/
     NEW-OLD atomic charge density approx. for the potential

     negative rho (up, down):  1.732E-04 0.000E+00

     total cpu time spent up to now is      251.6 secs

     Self-consistent Calculation

     iteration #  1     ecut=    80.00 Ry     beta= 0.70
     Davidson diagonalization with overlap
     ethr =  1.00E-06,  avg # of iterations = 13.0

     negative rho (up, down):  1.234E-04 0.000E+00

     total cpu time spent up to now is      264.9 secs

     total energy              =   -2246.31599885 Ry
     estimated scf accuracy    <       0.00637213 Ry

     iteration #  2     ecut=    80.00 Ry     beta= 0.70
     Davidson diagonalization with overlap
     ethr =  2.04E-06,  avg # of iterations =  3.0

     negative rho (up, down):  1.159E-04 0.000E+00

     total cpu time spent up to now is      276.6 secs

     total energy              =   -2246.31636534 Ry
     estimated scf accuracy    <       0.00190926 Ry

     iteration #  3     ecut=    80.00 Ry     beta= 0.70
     Davidson diagonalization with overlap
     ethr =  6.12E-07,  avg # of iterations =  3.0

     negative rho (up, down):  1.033E-04 0.000E+00

     total cpu time spent up to now is      293.5 secs

     total energy              =   -2246.31643303 Ry
     estimated scf accuracy    <       0.00036020 Ry

     iteration #  4     ecut=    80.00 Ry     beta= 0.70
     Davidson diagonalization with overlap
     ethr =  1.15E-07,  avg # of iterations =  5.0

     negative rho (up, down):  1.009E-04 0.000E+00

     total cpu time spent up to now is      309.4 secs

     total energy              =   -2246.31648399 Ry
     estimated scf accuracy    <       0.00003428 Ry

     iteration #  5     ecut=    80.00 Ry     beta= 0.70
     Davidson diagonalization with overlap
     ethr =  1.10E-08,  avg # of iterations =  5.0

     negative rho (up, down):  9.638E-05 0.000E+00

     total cpu time spent up to now is      322.4 secs

     total energy              =   -2246.31649053 Ry
     estimated scf accuracy    <       0.00001112 Ry

     iteration #  6     ecut=    80.00 Ry     beta= 0.70
     Davidson diagonalization with overlap
     ethr =  3.56E-09,  avg # of iterations =  2.0

     negative rho (up, down):  9.077E-05 0.000E+00

     total cpu time spent up to now is      337.2 secs

     total energy              =   -2246.31649133 Ry
     estimated scf accuracy    <       0.00000353 Ry

     iteration #  7     ecut=    80.00 Ry     beta= 0.70
     Davidson diagonalization with overlap
     ethr =  1.13E-09,  avg # of iterations =  5.0

     negative rho (up, down):  9.168E-05 0.000E+00

     total cpu time spent up to now is      348.9 secs

     total energy              =   -2246.31649192 Ry
     estimated scf accuracy    <       0.00000099 Ry

     iteration #  8     ecut=    80.00 Ry     beta= 0.70
     Davidson diagonalization with overlap
     ethr =  3.19E-10,  avg # of iterations =  2.0

     negative rho (up, down):  1.082E-04 0.000E+00

     total cpu time spent up to now is      361.0 secs

     total energy              =   -2246.31649219 Ry
     estimated scf accuracy    <       0.00000049 Ry

     iteration #  9     ecut=    80.00 Ry     beta= 0.70
     Davidson diagonalization with overlap
     ethr =  1.58E-10,  avg # of iterations =  4.0

     negative rho (up, down):  1.946E-04 0.000E+00

     total cpu time spent up to now is      364.5 secs

     End of self-consistent calculation

          k = 0.0000 0.0000 0.0000 (105382 PWs)   bands (ev):

   -63.0590 -63.0417 -63.0357 -63.0225 -63.0143 -63.0066 -62.9519 -62.9413
   -62.9315 -62.9193 -62.8507 -62.8383 -37.3950 -37.3456 -37.3281 -37.3184
   -37.3100 -37.2876 -37.2665 -37.2553 -37.2343 -37.2208 -37.2132 -37.2074
   -37.2035 -37.1910 -37.1868 -37.1791 -37.1521 -37.1480 -37.1304 -37.1256
   -37.1151 -37.0919 -37.0851 -37.0767 -37.0720 -37.0694 -37.0586 -37.0446
   -37.0247 -37.0185 -36.9996 -36.9706 -36.9526 -36.9211 -36.9130 -36.8415
   -20.3585 -16.0935 -15.3428 -15.2832 -15.1154 -15.0425 -14.8891 -14.6705
   -14.6222 -14.5789 -14.5581 -14.5451 -14.4702 -14.4484 -14.3822 -14.3185
   -14.2674 -14.2589 -14.1732 -14.1029 -14.0352 -14.0137 -13.9797 -13.9100
    -7.8744  -7.8109  -7.6690  -7.5382  -7.5019  -7.4348  -7.3620  -7.3492
    -7.2456  -7.0072  -6.9523  -6.9061  -6.8906  -6.7754  -6.7375  -6.6603
    -6.6180  -6.5587  -6.5052  -6.4316  -6.1291  -6.1207  -6.0621  -6.0173
    -5.9379  -5.9209  -5.8807  -5.8388  -5.8088  -5.7790  -5.7209  -5.6738
    -5.6235  -5.6001  -5.5166  -5.4398  -5.3251  -5.2288  -5.1792  -5.1491
    -5.1366  -5.0744  -4.9939  -4.8364  -4.8333  -4.6637  -4.5877  -4.4489
    -4.3990  -4.3732  -4.2856  -4.2053  -4.0743  -4.0637  -3.9666  -3.9144
    -3.8934  -3.8339  -3.7636  -3.7318  -3.6784  -3.6577  -3.6206  -3.5805
    -3.5449  -3.5364  -3.3803  -3.3137  -3.1074  -3.0894  -3.0613  -3.0077
    -2.9359  -2.8918  -2.8565  -2.8526  -2.7924  -2.7347  -2.6100  -2.4131
    -2.2494  -2.1488  -2.0096  -1.7778  -0.9862  -0.8623  -0.6429  -0.3364
    -0.2944  -0.2137  -0.1931  -0.0319  -0.0123   0.0720   0.0809   0.1427
     0.1515   0.2694   0.3029   0.3582   0.3993   0.4240   0.4439   0.4956
     0.5867   0.6053   0.6124   0.6463   0.7091   0.7304   0.7771   0.8455
     0.8874   0.9684   1.0630

     the Fermi energy is    -1.3821 ev

!    total energy              =   -2246.31649221 Ry
     estimated scf accuracy    <       0.00000009 Ry
     smearing contrib. (-TS)   =      -0.00000239 Ry
     internal energy E=F+TS    =   -2246.31648982 Ry

     The total energy is F=E-TS. E is the sum of the following terms:
     one-electron contribution =  -18440.72628048 Ry
     hartree contribution      =    9207.81455673 Ry
     xc contribution           =    -392.03948246 Ry
     ewald contribution        =    7388.50221927 Ry
     one-center paw contrib.   =      -9.86750287 Ry

     convergence has been achieved in   9 iterations

     negative rho (up, down):  1.946E-04 0.000E+00

     Forces acting on atoms (cartesian axes, Ry/au):

     atom    1 type  1   force =    -0.01240337    0.00046564   -0.00344370
     atom    2 type  2   force =     0.04181982   -0.14693798    0.12741747
     atom    3 type  2   force =    -0.01172796    0.01381189   -0.01655753
     atom    4 type  1   force =     0.00457034   -0.00073513    0.00170470
     atom    5 type  2   force =    -0.00315828    0.00147633   -0.00551807
     atom    6 type  2   force =    -0.00136522    0.01132667   -0.00281231
     atom    7 type  1   force =     0.00067414   -0.00869021    0.00001073
     atom    8 type  2   force =     0.00188350   -0.00335755    0.01150349
     atom    9 type  2   force =     0.01013406    0.00417753    0.00589469
     atom   10 type  1   force =    -0.00343969   -0.00294138   -0.02887300
     atom   11 type  2   force =     0.00833530   -0.00122269   -0.01430847
     atom   12 type  2   force =    -0.00891539   -0.00474875   -0.00586458
     atom   13 type  1   force =     0.00259255   -0.00149331   -0.00033955
     atom   14 type  2   force =     0.00167701   -0.00046410    0.00773108
     atom   15 type  2   force =    -0.01263281   -0.00220338   -0.01214564
     atom   16 type  1   force =    -0.00030747    0.01048944    0.00269948
     atom   17 type  2   force =     0.00487639    0.00171369    0.00281153
     atom   18 type  2   force =    -0.00115183   -0.00243670    0.00953011
     atom   19 type  1   force =     0.00184542   -0.00823758    0.00066797
     atom   20 type  2   force =     0.00182257   -0.00338234   -0.00312370
     atom   21 type  1   force =    -0.00168866    0.00222595    0.00227067
     atom   22 type  2   force =    -0.00266877   -0.00255331   -0.00354823
     atom   23 type  2   force =     0.00102097   -0.00145808    0.00349951
     atom   24 type  1   force =     0.00887979    0.00834406   -0.01647601
     atom   25 type  2   force =     0.00885242    0.01392808   -0.00122374
     atom   26 type  2   force =    -0.00298194   -0.00357484   -0.00850247
     atom   27 type  1   force =    -0.00041461    0.00284271    0.00578950
     atom   28 type  2   force =     0.00310177    0.00239667   -0.00394113
     atom   29 type  2   force =     0.00413306    0.00747097   -0.00788192
     atom   30 type  1   force =     0.00198272   -0.00044886    0.00115792
     atom   31 type  2   force =     0.00028456    0.00047982    0.01062543
     atom   32 type  2   force =    -0.00569905    0.00454552    0.00453570
     atom   33 type  1   force =     0.00247950    0.00049605    0.00165167
     atom   34 type  2   force =    -0.00668014   -0.02841988   -0.02285841
     atom   35 type  2   force =    -0.00039005    0.00398906    0.00059015
     atom   36 type  3   force =    -0.03534065    0.13312597   -0.04267331
     The non-local contrib.  to forces
     atom    1 type  1   force =    -0.00043993    0.01350683   -0.01131052
     atom    2 type  2   force =     0.05411067   -0.26826984    0.32205271
     atom    3 type  2   force =    -0.01351186    0.00311136    0.26977555
     atom    4 type  1   force =     0.00310315    0.01448707    0.00283501
     atom    5 type  2   force =     0.00479360   -0.03352475   -0.25499692
     atom    6 type  2   force =    -0.00183300    0.01373828    0.26234184
     atom    7 type  1   force =    -0.01740549    0.01099015   -0.02404287
     atom    8 type  2   force =     0.00405355   -0.00671689   -0.25958102
     atom    9 type  2   force =     0.00255908   -0.01108919    0.27529782
     atom   10 type  1   force =     0.00591826    0.00688048    0.01983877
     atom   11 type  2   force =    -0.00876384   -0.00714785   -0.26700449
     atom   12 type  2   force =    -0.01610507   -0.01936178    0.25706795
[...]
     atom   28 type  2   force =     0.00002498   -0.01253549   -0.27757620
     atom   29 type  2   force =    -0.00108861   -0.00861400    0.26652134
     atom   30 type  1   force =     0.00484375    0.01797813    0.00451329
     atom   31 type  2   force =    -0.00915792    0.00019117   -0.26749153
     atom   32 type  2   force =     0.00701330   -0.01266810    0.26948168
     atom   33 type  1   force =    -0.00273577    0.00645945    0.00259940
     atom   34 type  2   force =    -0.00219855   -0.00617851   -0.27868944
     atom   35 type  2   force =    -0.00097253   -0.01356221    0.26570278
     atom   36 type  3   force =    -0.01947417   -0.02528926   -2.32136872
     The ionic contribution  to forces
     atom    1 type  1   force =    -1.09395652    1.22894554   -1.50461031
     atom    2 type  2   force =    -0.25226878   -0.09795470   28.63205114
     atom    3 type  2   force =     0.03855575   -0.08234832  -38.14589444
     atom    4 type  1   force =    -0.15352331    1.22869805   -0.84359310
     atom    5 type  2   force =    -1.31671580    2.12749524   37.79564429
     atom    6 type  2   force =     0.16425318   -0.17533416  -38.76352520
     atom    7 type  1   force =    -2.79042278   -2.34121326    1.81633973
     atom    8 type  2   force =    -1.16207512    0.17475263   37.92951033
     atom    9 type  2   force =     0.32979787   -0.00588267  -38.29965934
     atom   10 type  1   force =    -0.47072241   -1.55534225   -1.18212319
     atom   11 type  2   force =    -0.99488554   -2.28859659   37.94439206
     atom   12 type  2   force =     0.12714432    0.21612632  -38.70814152
     atom   13 type  1   force =     0.16975792    1.05322624    1.33626328
     atom   14 type  2   force =    -0.98021751   -0.14558592   37.86759794
     atom   15 type  2   force =    -0.04855672   -0.12231359  -38.32116651
     atom   16 type  1   force =    -0.39133647    3.82812400    1.29119955
     atom   17 type  2   force =     0.81271650    1.42984967   38.06083118
     atom   18 type  2   force =    -0.17106371   -0.23316770  -38.33899343
     atom   19 type  1   force =     2.64308607   -2.00777679    1.95855744
     atom   20 type  2   force =    -0.04965984   -0.04223735  -39.07220090
     atom   21 type  1   force =    -0.53951101   -0.80527950   -0.55345331
     atom   22 type  2   force =     0.44656251   -1.68136778   38.22576760
     atom   23 type  2   force =    -0.19479461    0.19567571  -38.36833938
     atom   24 type  1   force =     0.93249947    0.93473822   -1.95084902
     atom   25 type  2   force =     1.16359500   -0.01412288   38.13698341
     atom   26 type  2   force =     0.00778239   -0.08542610  -38.33599322
     atom   27 type  1   force =     0.55402764    0.86348889   -0.26536179
     atom   28 type  2   force =     0.50879404    1.52025370   37.58347443
     atom   29 type  2   force =     0.00602032    0.08060259  -38.45025756
     atom   30 type  1   force =     0.16701007   -1.15576322    0.98903948
     atom   31 type  2   force =     1.27948278    0.16543377   38.11443824
     atom   32 type  2   force =    -0.28204153   -0.02338346  -38.34010774
     atom   33 type  1   force =     1.01478666   -0.97055659    1.35728395
     atom   34 type  2   force =     0.56718609   -1.42595920   38.24969489
     atom   35 type  2   force =     0.07322322    0.05755598  -38.33290440
     atom   36 type  3   force =    -0.11453014    0.15464546   50.48810542
     The local contribution  to forces
     atom    1 type  1   force =     1.08853068   -1.24187396    1.49401607
     atom    2 type  2   force =     0.24601920    0.09279087  -28.92006364
     atom    3 type  2   force =    -0.03636429    0.09267681   37.88839468
     atom    4 type  1   force =     0.14840712   -1.23161553    0.84102582
     atom    5 type  2   force =     1.31241145   -2.10731334  -37.55813554
     atom    6 type  2   force =    -0.16409042    0.17747563   38.51894403
     atom    7 type  1   force =     2.80917658    2.34124080   -1.78981967
     atom    8 type  2   force =     1.15562970   -0.17513868  -37.68269477
     atom    9 type  2   force =    -0.32389089    0.01888250   38.04950356
     atom   10 type  1   force =     0.46962421    1.53792080    1.16587235
     atom   11 type  2   force =     0.98840548    2.28774892  -37.70282307
     atom   12 type  2   force =    -0.11997608   -0.20327738   38.46492498
     atom   13 type  1   force =    -0.17107551   -1.07801425   -1.33878908
     atom   14 type  2   force =     0.98013391    0.14979480  -37.61455196
     atom   15 type  2   force =     0.04906786    0.13239168   38.08144213
     atom   16 type  1   force =     0.39140417   -3.86359400   -1.25644435
     atom   17 type  2   force =    -0.80860899   -1.40663648  -37.82300216
     atom   18 type  2   force =     0.17130072    0.23896175   38.09140465
     atom   19 type  1   force =    -2.65759220    2.00393694   -1.93287833
     atom   20 type  2   force =     0.04998008    0.05441605   38.83102592
     atom   21 type  1   force =     0.53899986    0.77681172    0.55057593
     atom   22 type  2   force =    -0.44181402    1.68057588  -37.98439410
     atom   23 type  2   force =     0.18726978   -0.18291365   38.12328522
     atom   24 type  1   force =    -0.92545433   -0.94262793    1.93155104
     atom   25 type  2   force =    -1.16462450    0.02081762  -37.88575910
     atom   26 type  2   force =    -0.01085777    0.09516337   38.09295635
     atom   27 type  1   force =    -0.55066783   -0.87038181    0.25962078
     atom   28 type  2   force =    -0.50887066   -1.50802558  -37.32731818
     atom   29 type  2   force =    -0.00612971   -0.07308983   38.20413081
     atom   30 type  1   force =    -0.17181242    1.13734462   -0.99296839
     atom   31 type  2   force =    -1.27081905   -0.16614821  -37.86780939
     atom   32 type  2   force =     0.27602407    0.03506424   38.09231382
     atom   33 type  1   force =    -1.01182786    0.96446895   -1.35970048
     atom   34 type  2   force =    -0.56512785    1.43207311  -37.99271086
     atom   35 type  2   force =    -0.07265912   -0.04502693   38.08898599
     atom   36 type  3   force =     0.13371697   -0.12988763  -48.19100087
     The core correction contribution to forces
     atom    1 type  1   force =     0.00000000    0.00000000    0.00000000
     atom    2 type  2   force =    -0.00033552   -0.00034262   -0.00974034
     atom    3 type  2   force =     0.00012056    0.00046534   -0.02133351
     atom    4 type  1   force =     0.00000000    0.00000000    0.00000000
     atom    5 type  2   force =    -0.00032409    0.00091509    0.02069791
     atom    6 type  2   force =     0.00014341   -0.00022080   -0.02083698
     atom    7 type  1   force =     0.00000000    0.00000000    0.00000000
     atom    8 type  2   force =    -0.00032443    0.00023496    0.02096843
     atom    9 type  2   force =     0.00060425    0.00074017   -0.02103756
     atom   10 type  1   force =     0.00000000    0.00000000    0.00000000
     atom   11 type  2   force =    -0.00016566   -0.00020458    0.02093125
     atom   12 type  2   force =     0.00057140    0.00094660   -0.02087228
     atom   13 type  1   force =     0.00000000    0.00000000    0.00000000
     atom   14 type  2   force =     0.00008430   -0.00018572    0.02138131
     atom   15 type  2   force =     0.00004430    0.00043223   -0.02059416
     atom   16 type  1   force =     0.00000000    0.00000000    0.00000000
     atom   17 type  2   force =     0.00038866    0.00102543    0.02057216
     atom   18 type  2   force =    -0.00012552   -0.00020339   -0.02089052
     atom   19 type  1   force =     0.00000000    0.00000000    0.00000000
     atom   20 type  2   force =     0.00005511    0.00057637   -0.02121220
     atom   21 type  1   force =     0.00000000    0.00000000    0.00000000
     atom   22 type  2   force =     0.00005882   -0.00028662    0.02073547
     atom   23 type  2   force =    -0.00068849    0.00091256   -0.02090331
     atom   24 type  1   force =     0.00000000    0.00000000    0.00000000
     atom   25 type  2   force =    -0.00012133    0.00022004    0.02132039
     atom   26 type  2   force =    -0.00018612    0.00036103   -0.02077322
     atom   27 type  1   force =     0.00000000    0.00000000    0.00000000
     atom   28 type  2   force =    -0.00004736    0.00081214    0.02147374
     atom   29 type  2   force =     0.00000907    0.00031553   -0.02080588
     atom   30 type  1   force =     0.00000000    0.00000000    0.00000000
     atom   31 type  2   force =     0.00043840    0.00026369    0.02099397
     atom   32 type  2   force =    -0.00065616    0.00066023   -0.02101143
     atom   33 type  1   force =     0.00000000    0.00000000    0.00000000
     atom   34 type  2   force =     0.00011369    0.00026573    0.02160536
     atom   35 type  2   force =     0.00008462    0.00079912   -0.02091810
     atom   36 type  3   force =     0.00020665    0.00025367    0.02461981
     The Hubbard contrib.    to forces
     atom    1 type  1   force =     0.00000000    0.00000000    0.00000000
     atom    2 type  2   force =     0.00000000    0.00000000    0.00000000
     atom    3 type  2   force =     0.00000000    0.00000000    0.00000000
     atom    4 type  1   force =     0.00000000    0.00000000    0.00000000
     atom    5 type  2   force =     0.00000000    0.00000000    0.00000000
     atom    6 type  2   force =     0.00000000    0.00000000    0.00000000
     atom    7 type  1   force =     0.00000000    0.00000000    0.00000000
     atom    8 type  2   force =     0.00000000    0.00000000    0.00000000
     atom    9 type  2   force =     0.00000000    0.00000000    0.00000000
     atom   10 type  1   force =     0.00000000    0.00000000    0.00000000
     atom   11 type  2   force =     0.00000000    0.00000000    0.00000000
     atom   12 type  2   force =     0.00000000    0.00000000    0.00000000
     atom   13 type  1   force =     0.00000000    0.00000000    0.00000000
     atom   14 type  2   force =     0.00000000    0.00000000    0.00000000
     atom   15 type  2   force =     0.00000000    0.00000000    0.00000000
     atom   16 type  1   force =     0.00000000    0.00000000    0.00000000
     atom   17 type  2   force =     0.00000000    0.00000000    0.00000000
     atom   18 type  2   force =     0.00000000    0.00000000    0.00000000
     atom   19 type  1   force =     0.00000000    0.00000000    0.00000000
     atom   20 type  2   force =     0.00000000    0.00000000    0.00000000
     atom   21 type  1   force =     0.00000000    0.00000000    0.00000000
     atom   22 type  2   force =     0.00000000    0.00000000    0.00000000
     atom   23 type  2   force =     0.00000000    0.00000000    0.00000000
     atom   24 type  1   force =     0.00000000    0.00000000    0.00000000
     atom   25 type  2   force =     0.00000000    0.00000000    0.00000000
     atom   26 type  2   force =     0.00000000    0.00000000    0.00000000
     atom   27 type  1   force =     0.00000000    0.00000000    0.00000000
     atom   28 type  2   force =     0.00000000    0.00000000    0.00000000
     atom   29 type  2   force =     0.00000000    0.00000000    0.00000000
     atom   30 type  1   force =     0.00000000    0.00000000    0.00000000
     atom   31 type  2   force =     0.00000000    0.00000000    0.00000000
     atom   32 type  2   force =     0.00000000    0.00000000    0.00000000
     atom   33 type  1   force =     0.00000000    0.00000000    0.00000000
     atom   34 type  2   force =     0.00000000    0.00000000    0.00000000
     atom   35 type  2   force =     0.00000000    0.00000000    0.00000000
     atom   36 type  3   force =     0.00000000    0.00000000    0.00000000
     The SCF correction term to forces
     atom    1 type  1   force =     0.00001698   -0.00003404    0.00003977
     atom    2 type  2   force =     0.00000607   -0.00000948    0.00000502
     atom    3 type  2   force =     0.00000247   -0.00000472    0.00001823
     atom    4 type  1   force =     0.00000981   -0.00000354    0.00000698
     atom    5 type  2   force =     0.00000361   -0.00001680    0.00000556
     atom    6 type  2   force =     0.00000606   -0.00000503    0.00000616
     atom    7 type  1   force =     0.00000630    0.00003609   -0.00000689
     atom    8 type  2   force =     0.00000281    0.00000744    0.00000486
     atom    9 type  2   force =     0.00000337    0.00001159   -0.00001206
     atom   10 type  1   force =     0.00000637    0.00001188    0.00001607
     atom   11 type  2   force =    -0.00000132    0.00001226    0.00001018
     atom   12 type  2   force =     0.00000178   -0.00000136    0.00000142
     atom   13 type  1   force =    -0.00000440   -0.00003139    0.00002451
     atom   14 type  2   force =     0.00000902   -0.00000550    0.00000512
     atom   15 type  2   force =     0.00000254   -0.00001155    0.00001421
     atom   16 type  1   force =    -0.00000254    0.00001409    0.00002135
     atom   17 type  2   force =    -0.00000410   -0.00000355    0.00001157
     atom   18 type  2   force =    -0.00000754    0.00000121    0.00000299
     atom   19 type  1   force =    -0.00000676    0.00003005   -0.00000919
     atom   20 type  2   force =     0.00000070    0.00001737   -0.00000940
     atom   21 type  1   force =     0.00000877   -0.00000688    0.00001600
     atom   22 type  2   force =    -0.00000035    0.00001105    0.00000849
     atom   23 type  2   force =    -0.00000125   -0.00000304   -0.00000011
     atom   24 type  1   force =    -0.00000768   -0.00002874    0.00003768
     atom   25 type  2   force =    -0.00001281   -0.00000640    0.00001123
     atom   26 type  2   force =    -0.00000506   -0.00000952    0.00001144
     atom   27 type  1   force =    -0.00000920    0.00000430    0.00000919
     atom   28 type  2   force =     0.00000150   -0.00001582    0.00000399
     atom   29 type  2   force =     0.00000201   -0.00000020    0.00000564
     atom   30 type  1   force =     0.00000781    0.00002177   -0.00000797
     atom   31 type  2   force =    -0.00000272    0.00000372    0.00000524
     atom   32 type  2   force =    -0.00000425    0.00001239   -0.00000778
     atom   33 type  1   force =    -0.00001229   -0.00000462    0.00002027
     atom   34 type  2   force =    -0.00000063    0.00001689    0.00001605
     atom   35 type  2   force =    -0.00000126   -0.00000084   -0.00000236
     atom   36 type  3   force =     0.00003087   -0.00005054   -0.00000719

     Total force =     0.006252     Total SCF correction =     0.000143
     Energy error            =      7.3E-05 Ry
     Gradient error          =      2.8E-03 Ry/Bohr

     bfgs converged in  25 scf cycles and  24 bfgs steps
     (criteria: energy <  1.0E-04 Ry, force <  1.0E-02 Ry/Bohr)

     End of BFGS Geometry Optimization

     Final energy             =   -2246.4498469509 Ry

     File ./MoS2-V-O.bfgs deleted, as requested
Begin final coordinates

ATOMIC_POSITIONS (angstrom)
Mo            6.5454434661        1.7560555019        2.7444354935
S             8.1423720901        0.8263132069        4.2703168397
S             8.1479483592        0.8254629199        1.1843899847
Mo            8.1317090976        4.4704590444        2.7140403629
S             6.5285680713        3.6457895103        4.3165898087
S             6.5552004313        3.5625469936        1.1046986231
Mo            6.5203217859        7.1615152055        2.6714105833
S             8.0942149480        6.2798419806        4.3028665016
S             8.1471809217        6.3058266197        1.1162547839
Mo            8.1451219057        9.8848744478        2.7518369283
S             6.5293466534        8.9234303074        4.3247652031
S             6.5850120809        8.9952996838        1.1136245612
Mo            3.4346915843        1.7206482789        2.7600085031
S             5.0096733748        0.7902524016        4.3423715464
S             4.9938067408        0.8092967562        1.1577168234
Mo            5.0023342423        4.5227387929        2.6640651596
S             3.4730699563        3.6360192845        4.3127671767
S             3.4441731060        3.5370044213        1.1216988160
Mo            3.4807842714        7.1573555494        2.6704794396
S             5.0021912203        6.2921406718        1.0466702818
Mo            5.0039032100        9.8820290273        2.7248796135
S             3.4754645528        8.9260374567        4.3209359413
S             3.4049113480        9.0016362817        1.1257281623
Mo            0.2991332878        1.7439741512        2.7485746647
S             1.8572285541        0.8264787784        4.3640422241
S             1.8672158116        0.8105157275        1.1633833494
Mo            1.8739172748        4.4752778097        2.7160325600
S             0.2765406497        3.5861385716        4.3224352611
S             0.2813769773        3.5595683956        1.1357925090
Mo            0.2797310948        7.1973120142        2.7375178062
S             1.9160451710        6.2830747398        4.3062856032
S             1.8600207994        6.3032455410        1.1149166012
Mo            1.8566830285        9.9127512109        2.7654116415
S             0.2716547551        9.0028872289        4.3634006089
S             0.2861882409        9.0189835820        1.1571055059
O             8.1551768376       11.7770643157        5.7688733466
End final coordinates



     Writing all to output data dir ./MoS2-V-O.save/
 
     init_run     :      4.60s CPU      5.07s WALL (       1 calls)
     electrons    :   2230.31s CPU   2520.00s WALL (      25 calls)
     update_pot   :     73.08s CPU     77.87s WALL (      24 calls)
     forces       :     68.20s CPU     77.58s WALL (      25 calls)

     Called by init_run:
     wfcinit      :      0.49s CPU      0.53s WALL (       1 calls)
     potinit      :      2.36s CPU      2.58s WALL (       1 calls)
     hinit0       :      0.44s CPU      0.47s WALL (       1 calls)

     Called by electrons:
     c_bands      :    327.66s CPU    335.61s WALL (     233 calls)
     sum_band     :    131.34s CPU    168.02s WALL (     233 calls)
     v_of_rho     :    215.67s CPU    262.08s WALL (     247 calls)
     newd         :     76.68s CPU    111.28s WALL (     247 calls)
     PAW_pot      :      9.88s CPU      9.92s WALL (     271 calls)
     mix_rho      :   1494.08s CPU   1659.97s WALL (     233 calls)

     Called by c_bands:
     init_us_2    :      5.36s CPU      5.77s WALL (     491 calls)
     init_us_2:cp :      5.36s CPU      5.77s WALL (     491 calls)
     regterg      :    310.05s CPU    317.53s WALL (     233 calls)

     Called by *egterg:
     rdiaghg      :     21.18s CPU     21.39s WALL (    1191 calls)
     h_psi        :    201.84s CPU    203.66s WALL (    1227 calls)
     s_psi        :     19.13s CPU     19.19s WALL (    1227 calls)
     g_psi        :      0.98s CPU      0.99s WALL (     993 calls)

     Called by h_psi:
     h_psi:calbec :     21.29s CPU     21.42s WALL (    1227 calls)
     vloc_psi     :    159.14s CPU    160.69s WALL (    1227 calls)
     add_vuspsi   :     18.88s CPU     19.00s WALL (    1227 calls)

     General routines
     calbec       :     31.04s CPU     31.21s WALL (    1584 calls)
     fft          :    147.49s CPU    171.17s WALL (   16527 calls)
     ffts         :    673.27s CPU    833.33s WALL (  366647 calls)
     fftw         :    102.02s CPU    102.88s WALL (  141072 calls)
     interpolate  :      3.08s CPU      3.58s WALL (     247 calls)
 
     Parallel routines
 
     PWSCF        :  39m47.04s CPU  44m56.37s WALL

 
   This run was terminated on:   0:17:19   2Nov2023            

=------------------------------------------------------------------------------=
   JOB DONE.
=------------------------------------------------------------------------------=
