
     Program PWSCF v.7.2 starts on  4Nov2023 at 12:24: 3 

     This program is part of the open-source Quantum ESPRESSO suite
     for quantum simulation of materials; please cite
         "P. Giannozzi et al., J. Phys.:Condens. Matter 21 395502 (2009);
         "P. Giannozzi et al., J. Phys.:Condens. Matter 29 465901 (2017);
         "P. Giannozzi et al., J. Chem. Phys. 152 154105 (2020);
          URL http://www.quantum-espresso.org", 
     in publications or presentations arising from this work. More details at
     http://www.quantum-espresso.org/quote

     Parallel version (MPI & OpenMP), running on      48 processor cores
     Number of MPI processes:                48
     Threads/MPI process:                     1

     MPI processes distributed on     1 nodes
     120978 MiB available memory on the printing compute node when the environment starts
 
     Waiting for input...
     Reading input from standard input
Warning: card &CELL ignored
Warning: card CELL_DYNAMICS = 'BFGS', ignored
Warning: card CELL_DOFREE = '2DXY' ignored
Warning: card / ignored

     Current dimensions of program PWSCF are:
     Max number of different atomic species (ntypx) = 10
     Max number of k-points (npk) =  40000
     Max angular momentum in pseudopotentials (lmaxx) =  4
     file O.pbe-n-kjpaw_psl.0.1.UPF: wavefunction(s)  2P renormalized

     IMPORTANT: XC functional enforced from input :
     Exchange-correlation= RVV10
                           (   1   4  13   4  26   0   0)
     Any further DFT definition will be discarded
     Please, verify this is what you really want


     gamma-point specific algorithms are used
     signal trapping enabled: kill the code with -SIGUSR1 to stop cleanly the simulation 
 
     R & G space division:  proc/nbgrp/npool/nimage =      48
     Subspace diagonalization in iterative solution of the eigenvalue problem:
     one sub-group per band group will be used
     scalapack distributed-memory algorithm (size of sub-group:  2*  2 procs)

 
     Parallelization info
     --------------------
     sticks:   dense  smooth     PW     G-vecs:    dense   smooth      PW
     Min         396     194     47               101632    35090    4376
     Max         398     196     50               101674    35128    4410
     Sum       19091    9389   2349              4879585  1685513  210763
 
     Using Slab Decomposition
 


     bravais-lattice index     =            0
     lattice parameter (alat)  =      17.8707  a.u.
     unit-cell volume          =   17436.2743 (a.u.)^3
     number of atoms/cell      =           36
     number of atomic types    =            3
     number of electrons       =       312.00
     number of Kohn-Sham states=          187
     kinetic-energy cutoff     =      80.0000  Ry
     charge density cutoff     =     650.0000  Ry
     scf convergence threshold =      1.0E-06
     mixing beta               =       0.7000
     number of iterations used =            8  local-TF  mixing
     energy convergence thresh.=      1.0E-04
     force convergence thresh. =      1.0E-02
     Exchange-correlation= RVV10
                           (   1   4  13   4  26   0   0)
     nstep                     =          200


     celldm(1)=  17.870686  celldm(2)=   0.000000  celldm(3)=   0.000000
     celldm(4)=   0.000000  celldm(5)=   0.000000  celldm(6)=   0.000000

     crystal axes: (cart. coord. in units of alat)
               a(1) = (   1.000000   0.000000   0.000000 )  
               a(2) = (   0.000000   1.155671   0.000000 )  
               a(3) = (   0.000000   0.000000   2.643601 )  

     reciprocal axes: (cart. coord. in units 2 pi/alat)
               b(1) = (  1.000000  0.000000  0.000000 )  
               b(2) = (  0.000000  0.865298  0.000000 )  
               b(3) = (  0.000000  0.000000  0.378272 )  


     PseudoPot. # 1 for Mo read from file:
     ../../pseudo/Mo_ONCV_PBE-1.0.oncvpsp.upf
     MD5 check sum: 1b5d28e075c9ccadda658a603575cd1f
     Pseudo is Norm-conserving, Zval = 14.0
     Generated using ONCVPSP code by D. R. Hamann
     Using radial grid of 1526 points,  6 beta functions with: 
                l(1) =   0
                l(2) =   0
                l(3) =   1
                l(4) =   1
                l(5) =   2
                l(6) =   2

     PseudoPot. # 2 for S  read from file:
     ../../pseudo/s_pbe_v1.4.uspp.F.UPF
     MD5 check sum: 88d86576ff6df21479756cfb9bdac1df
     Pseudo is Ultrasoft + core correction, Zval =  6.0
     Generated by new atomic code, or converted to UPF format
     Using radial grid of  907 points,  6 beta functions with: 
                l(1) =   0
                l(2) =   0
                l(3) =   1
                l(4) =   1
                l(5) =   2
                l(6) =   2
     Q(r) pseudized with  8 coefficients,  rinner =    1.300   1.300   1.300
                                                       1.300   1.300

     PseudoPot. # 3 for O  read from file:
     ../../pseudo/O.pbe-n-kjpaw_psl.0.1.UPF
     MD5 check sum: 0234752ac141de4415c5fc33072bef88
     Pseudo is Projector augmented-wave + core cor, Zval =  6.0
     Generated using "atomic" code by A. Dal Corso  v.5.0.99 svn rev. 10869
     Shape of augmentation charge: BESSEL
     Using radial grid of 1095 points,  4 beta functions with: 
                l(1) =   0
                l(2) =   0
                l(3) =   1
                l(4) =   1
     Q(r) pseudized with 0 coefficients 


     atomic species   valence    mass     pseudopotential
        Mo            14.00    95.94000     Mo( 1.00)
        S              6.00    32.06500     S ( 1.00)
        O              6.00    15.99940     O ( 1.00)

     No symmetry found



   Cartesian axes

     site n.     atom                  positions (alat units)
         1           Mo  tau(   1) = (   0.6952221   0.1890506   0.2985846  )
         2           S   tau(   2) = (   0.8646417   0.0856217   0.4689279  )
         3           S   tau(   3) = (   0.8663890   0.0857843   0.1351291  )
         4           Mo  tau(   4) = (   0.8560186   0.4753274   0.2873942  )
         5           S   tau(   5) = (   0.6873294   0.3936244   0.4596353  )
         6           S   tau(   6) = (   0.6929804   0.3713468   0.1185692  )
         7           Mo  tau(   7) = (   0.6862796   0.7633098   0.2825370  )
         8           S   tau(   8) = (   0.8545980   0.6708292   0.4486168  )
         9           S   tau(   9) = (   0.8545123   0.6666874   0.1146125  )
        10           Mo  tau(  10) = (   0.8629403   1.0471007   0.3006803  )
        11           S   tau(  11) = (   0.6868280   0.9456650   0.4634891  )
        12           S   tau(  12) = (   0.6998113   0.9568511   0.1205389  )
        13           Mo  tau(  13) = (   0.3618216   0.1847309   0.2935964  )
        14           S   tau(  14) = (   0.5260962   0.0863870   0.4600448  )
        15           S   tau(  15) = (   0.5348379   0.0894875   0.1297123  )
        16           Mo  tau(  16) = (   0.5265817   0.4772436   0.2784130  )
        17           S   tau(  17) = (   0.3624753   0.3882513   0.4525556  )
        18           S   tau(  18) = (   0.3635411   0.3752055   0.1119148  )
        19           Mo  tau(  19) = (   0.3652268   0.7630864   0.2781795  )
        20           S   tau(  20) = (   0.5269494   0.6690381   0.1096838  )
        21           Mo  tau(  21) = (   0.5300192   1.0470394   0.2900995  )
        22           S   tau(  22) = (   0.3670346   0.9457522   0.4574073  )
        23           S   tau(  23) = (   0.3604225   0.9585725   0.1159032  )
        24           Mo  tau(  24) = (   0.0313099   0.1847895   0.3013130  )
        25           S   tau(  25) = (   0.1956761   0.0838230   0.4650863  )
        26           S   tau(  26) = (   0.1967693   0.0903508   0.1278874  )
        27           Mo  tau(  27) = (   0.1967578   0.4753919   0.2813011  )
        28           S   tau(  28) = (   0.0287851   0.3864324   0.4586755  )
        29           S   tau(  29) = (   0.0244514   0.3729871   0.1239344  )
        30           Mo  tau(  30) = (   0.0286728   0.7631204   0.2856894  )
        31           S   tau(  31) = (   0.2011512   0.6675435   0.4465001  )
        32           S   tau(  32) = (   0.1969214   0.6672839   0.1104564  )
        33           Mo  tau(  33) = (   0.1950294   1.0511147   0.2932237  )
        34           S   tau(  34) = (   0.0312912   0.9612169   0.4667423  )
        35           S   tau(  35) = (   0.0292670   0.9563028   0.1216485  )
        36           O   tau(  36) = (   0.1111111   0.0000000   0.5650415  )

     number of k points=     1  Gaussian smearing, width (Ry)=  0.0100
                       cart. coord. in units 2pi/alat
        k(    1) = (   0.0000000   0.0000000   0.0000000), wk =   2.0000000

     Dense  grid:  2439793 G-vectors     FFT dimensions: ( 150, 180, 384)

     Smooth grid:   842757 G-vectors     FFT dimensions: ( 108, 120, 270)

     Estimated max dynamical RAM per process >     269.22 MB

     Estimated total dynamical RAM >      12.62 GB

     Initial potential from superposition of free atoms

     starting charge     311.9873, renormalised to     312.0000

     negative rho (up, down):  2.751E-04 0.000E+00


---------------------------------------------------------------------------------
Carrying out rVV10 run using the following parameters:
Nqs =      20    Nr_points =    1024   r_max =   100.000
b_value =  6.30000    beta =  0.00901
     q_mesh =  0.00010000  0.00030000  0.00058939  0.00100810
               0.00161396  0.00249058  0.00375900  0.00559430
               0.00824984  0.01209221  0.01765183  0.02569619
               0.03733578  0.05417739  0.07854596  0.11380545
               0.16482331  0.23864234  0.34545298  0.50000000

Gradients computed in Reciprocal space

---------------------------------------------------------------------------------


     Starting wfcs are  216 randomized atomic wfcs
     Checking if some PAW data can be deallocated... 

     total cpu time spent up to now is        5.4 secs

     Self-consistent Calculation

     iteration #  1     ecut=    80.00 Ry     beta= 0.70
     Davidson diagonalization with overlap
     ethr =  1.00E-02,  avg # of iterations =  2.0

     Threshold (ethr) on eigenvalues was too large:
     Diagonalizing with lowered threshold

     Davidson diagonalization with overlap
     ethr =  4.48E-04,  avg # of iterations =  4.0

     negative rho (up, down):  4.687E-08 0.000E+00

     total cpu time spent up to now is       21.0 secs

     total energy              =   -2246.23483105 Ry
     estimated scf accuracy    <       1.64508726 Ry

     iteration #  2     ecut=    80.00 Ry     beta= 0.70
     Davidson diagonalization with overlap
     ethr =  5.27E-04,  avg # of iterations =  3.0

     total cpu time spent up to now is       25.6 secs

     total energy              =   -2246.22562989 Ry
     estimated scf accuracy    <       0.57725321 Ry

     iteration #  3     ecut=    80.00 Ry     beta= 0.70
     Davidson diagonalization with overlap
     ethr =  1.85E-04,  avg # of iterations =  2.0

     total cpu time spent up to now is       29.6 secs

     total energy              =   -2246.23442006 Ry
     estimated scf accuracy    <       0.13260993 Ry

     iteration #  4     ecut=    80.00 Ry     beta= 0.70
     Davidson diagonalization with overlap
     ethr =  4.25E-05,  avg # of iterations = 11.0

     total cpu time spent up to now is       34.2 secs

     total energy              =   -2246.25715283 Ry
     estimated scf accuracy    <       0.02631553 Ry

     iteration #  5     ecut=    80.00 Ry     beta= 0.70
     Davidson diagonalization with overlap
     ethr =  8.43E-06,  avg # of iterations =  2.0

     total cpu time spent up to now is       38.0 secs

     total energy              =   -2246.25637308 Ry
     estimated scf accuracy    <       0.01625851 Ry

     iteration #  6     ecut=    80.00 Ry     beta= 0.70
     Davidson diagonalization with overlap
     ethr =  5.21E-06,  avg # of iterations =  2.0

     total cpu time spent up to now is       41.6 secs

     total energy              =   -2246.25540372 Ry
     estimated scf accuracy    <       0.00997410 Ry

     iteration #  7     ecut=    80.00 Ry     beta= 0.70
     Davidson diagonalization with overlap
     ethr =  3.20E-06,  avg # of iterations =  9.0

     total cpu time spent up to now is       47.0 secs

     total energy              =   -2246.25471637 Ry
     estimated scf accuracy    <       0.00568804 Ry

     iteration #  8     ecut=    80.00 Ry     beta= 0.70
     Davidson diagonalization with overlap
     ethr =  1.82E-06,  avg # of iterations =  2.0

     negative rho (up, down):  1.805E-02 0.000E+00

     total cpu time spent up to now is       52.9 secs

     total energy              =   -2246.25377437 Ry
     estimated scf accuracy    <       0.00341529 Ry

     iteration #  9     ecut=    80.00 Ry     beta= 0.70
     Davidson diagonalization with overlap
     ethr =  1.09E-06,  avg # of iterations =  2.0

     negative rho (up, down):  2.529E-02 0.000E+00

     total cpu time spent up to now is       58.7 secs

     total energy              =   -2246.25362885 Ry
     estimated scf accuracy    <       0.00170726 Ry

     iteration # 10     ecut=    80.00 Ry     beta= 0.70
     Davidson diagonalization with overlap
     ethr =  5.47E-07,  avg # of iterations =  2.0

     negative rho (up, down):  2.360E-02 0.000E+00

     total cpu time spent up to now is       64.7 secs

     total energy              =   -2246.25368461 Ry
     estimated scf accuracy    <       0.00063827 Ry

     iteration # 11     ecut=    80.00 Ry     beta= 0.70
     Davidson diagonalization with overlap
     ethr =  2.05E-07,  avg # of iterations =  2.0

     negative rho (up, down):  1.155E-02 0.000E+00

     total cpu time spent up to now is       71.3 secs

     total energy              =   -2246.25364424 Ry
     estimated scf accuracy    <       0.00008242 Ry

     iteration # 12     ecut=    80.00 Ry     beta= 0.70
     Davidson diagonalization with overlap
     ethr =  2.64E-08,  avg # of iterations =  5.0

     negative rho (up, down):  1.833E-03 0.000E+00

     total cpu time spent up to now is       80.1 secs

     total energy              =   -2246.25369189 Ry
     estimated scf accuracy    <       0.00002104 Ry

     iteration # 13     ecut=    80.00 Ry     beta= 0.70
     Davidson diagonalization with overlap
     ethr =  6.74E-09,  avg # of iterations =  2.0

     negative rho (up, down):  6.938E-04 0.000E+00

     total cpu time spent up to now is       89.0 secs

     total energy              =   -2246.25370049 Ry
     estimated scf accuracy    <       0.00000248 Ry

     iteration # 14     ecut=    80.00 Ry     beta= 0.70
     Davidson diagonalization with overlap
     ethr =  7.94E-10,  avg # of iterations =  4.0

     negative rho (up, down):  2.115E-04 0.000E+00

     total cpu time spent up to now is       92.7 secs

     End of self-consistent calculation

          k = 0.0000 0.0000 0.0000 (105382 PWs)   bands (ev):

   -63.0086 -62.9322 -62.9239 -62.9162 -62.9047 -62.8585 -62.8451 -62.8403
   -62.8351 -62.7887 -62.7375 -62.6964 -37.3019 -37.2733 -37.2280 -37.2055
   -37.1954 -37.1820 -37.1479 -37.1413 -37.1192 -37.1146 -37.1040 -37.0957
   -37.0906 -37.0741 -37.0638 -37.0363 -37.0320 -37.0268 -37.0225 -37.0098
   -37.0033 -36.9966 -36.9863 -36.9761 -36.9745 -36.9518 -36.9437 -36.9103
   -36.9059 -36.8756 -36.8714 -36.8482 -36.8450 -36.8035 -36.7952 -36.7420
   -23.3973 -15.9636 -15.2563 -15.1625 -15.0019 -14.9011 -14.8141 -14.6658
   -14.5322 -14.4849 -14.4438 -14.4221 -14.3725 -14.3364 -14.2597 -14.1985
   -14.1773 -14.1470 -14.0774 -14.0064 -13.8945 -13.8667 -13.8397 -13.6153
    -8.7035  -8.1420  -7.9872  -7.5740  -7.4581  -7.3171  -7.2998  -7.2236
    -7.1925  -7.0806  -6.9027  -6.8603  -6.8423  -6.7196  -6.6890  -6.5974
    -6.5475  -6.4768  -6.3861  -6.3115  -6.1273  -6.0815  -5.9628  -5.8857
    -5.8656  -5.8019  -5.7597  -5.7299  -5.7009  -5.6931  -5.6237  -5.5976
    -5.5720  -5.5033  -5.4397  -5.4146  -5.2869  -5.1281  -5.0708  -5.0422
    -5.0135  -4.9762  -4.9243  -4.8078  -4.7154  -4.5978  -4.5067  -4.3581
    -4.2967  -4.2105  -4.2010  -4.1268  -4.0520  -3.9458  -3.9065  -3.8337
    -3.8002  -3.7615  -3.6596  -3.6182  -3.6023  -3.5714  -3.5246  -3.4867
    -3.4412  -3.4014  -3.2493  -3.2355  -3.1290  -2.9726  -2.9423  -2.8671
    -2.8468  -2.7947  -2.7597  -2.7065  -2.6754  -2.6576  -2.5549  -2.3119
    -2.2311  -2.0183  -1.9080  -1.8216  -1.0635  -0.7936  -0.7291  -0.2068
    -0.1814  -0.1190  -0.0550   0.0533   0.1205   0.1455   0.1980   0.2478
     0.2824   0.2918   0.3782   0.4850   0.5064   0.5371   0.5578   0.5820
     0.6833   0.7001   0.7209   0.7270   0.8048   0.8235   0.8558   0.9528
     1.0161   1.0420   1.2465

     the Fermi energy is    -1.4424 ev

!    total energy              =   -2246.25370243 Ry
     estimated scf accuracy    <       0.00000086 Ry
     smearing contrib. (-TS)   =      -0.00000486 Ry
     internal energy E=F+TS    =   -2246.25369757 Ry

     The total energy is F=E-TS. E is the sum of the following terms:
     one-electron contribution =  -18468.94770177 Ry
     hartree contribution      =    9222.78576238 Ry
     xc contribution           =    -392.22822020 Ry
     ewald contribution        =    7401.99218124 Ry
     one-center paw contrib.   =      -9.85571923 Ry

     convergence has been achieved in  14 iterations

     negative rho (up, down):  2.115E-04 0.000E+00

     Forces acting on atoms (cartesian axes, Ry/au):

     atom    1 type  1   force =     0.01573000   -0.02733003    0.01029977
     atom    2 type  2   force =    -0.02878711    0.02371647   -0.01080514
     atom    3 type  2   force =    -0.01176627    0.00760951   -0.00301049
     atom    4 type  1   force =     0.00418859    0.00191154   -0.00216259
     atom    5 type  2   force =    -0.00167632   -0.00537333   -0.00578786
     atom    6 type  2   force =    -0.00009356    0.01152592   -0.00153063
     atom    7 type  1   force =     0.00542837   -0.01736703   -0.00653984
     atom    8 type  2   force =     0.00189157   -0.00194526    0.01776571
     atom    9 type  2   force =     0.01253218    0.00723341    0.01150603
     atom   10 type  1   force =    -0.00851459    0.01276137   -0.02275062
     atom   11 type  2   force =     0.00575882   -0.00219421   -0.00717135
     atom   12 type  2   force =    -0.00405244    0.00072021    0.00364127
     atom   13 type  1   force =     0.02668177    0.02457606    0.00833080
     atom   14 type  2   force =     0.01671888    0.00087999    0.00762031
     atom   15 type  2   force =    -0.01550240    0.00065408   -0.01182077
     atom   16 type  1   force =     0.00147821    0.01388174    0.00515108
     atom   17 type  2   force =     0.00841061    0.00750302    0.00077614
     atom   18 type  2   force =    -0.00172412   -0.01064805    0.00988870
     atom   19 type  1   force =     0.00720410   -0.00913618   -0.00429157
     atom   20 type  2   force =     0.00298362   -0.00419427    0.00163625
     atom   21 type  1   force =    -0.00720200    0.00006394   -0.00163338
     atom   22 type  2   force =    -0.00401101   -0.00109169   -0.00113868
     atom   23 type  2   force =     0.00094575    0.00166817    0.01046725
     atom   24 type  1   force =    -0.00968813    0.00847151   -0.03891976
     atom   25 type  2   force =     0.00064685    0.03305318   -0.12319563
     atom   26 type  2   force =    -0.01024354   -0.00062208   -0.00319546
     atom   27 type  1   force =    -0.00434769   -0.00522106    0.00787288
     atom   28 type  2   force =     0.00060631    0.00179403   -0.00222743
     atom   29 type  2   force =     0.00219950    0.00564524   -0.00246561
     atom   30 type  1   force =    -0.00747496    0.00388700   -0.01320529
     atom   31 type  2   force =     0.00148521   -0.00153733    0.01897487
     atom   32 type  2   force =    -0.00821702    0.00715873    0.00714959
     atom   33 type  1   force =     0.03893927   -0.02134499   -0.07385570
     atom   34 type  2   force =    -0.00828624   -0.06818932   -0.02888317
     atom   35 type  2   force =    -0.01070511    0.00702847    0.01643009
     atom   36 type  3   force =    -0.01153709   -0.00554877    0.22708021
     The non-local contrib.  to forces
     atom    1 type  1   force =     0.00467758    0.03991630   -0.00852890
     atom    2 type  2   force =    -0.04364105    0.01462526   -0.27419896
     atom    3 type  2   force =    -0.01697941   -0.00124656    0.26248533
     atom    4 type  1   force =     0.00061376    0.00385100    0.00963457
     atom    5 type  2   force =     0.00648087   -0.03397969   -0.25406869
     atom    6 type  2   force =    -0.00253842    0.01117989    0.26231005
     atom    7 type  1   force =    -0.01848221    0.00821415   -0.01971189
     atom    8 type  2   force =     0.00605786   -0.00194585   -0.25418471
     atom    9 type  2   force =     0.00743973   -0.01093376    0.28009036
     atom   10 type  1   force =     0.00300591   -0.00829723    0.00032202
     atom   11 type  2   force =     0.00968902    0.00424058   -0.25989109
     atom   12 type  2   force =    -0.01334382   -0.01588125    0.26402721
     atom   13 type  1   force =     0.00258457   -0.00722052   -0.01413647
     atom   14 type  2   force =     0.01291248   -0.00695484   -0.26387399
     atom   15 type  2   force =    -0.01520554   -0.00143042    0.25916369
     atom   16 type  1   force =     0.00466903    0.03530946   -0.02916296
     atom   17 type  2   force =     0.00331026   -0.02808093   -0.24714949
     atom   18 type  2   force =    -0.00235110   -0.00624867    0.27603807
     atom   19 type  1   force =     0.00781327    0.00440566   -0.01738166
     atom   20 type  2   force =     0.00015414   -0.02171346    0.26681482
     atom   21 type  1   force =     0.00275810    0.02721411    0.00605892
     atom   22 type  2   force =    -0.00863852    0.00662787   -0.25927343
     atom   23 type  2   force =     0.00803351   -0.01615281    0.26878770
     atom   24 type  1   force =     0.03254557    0.01243496    0.00962547
     atom   25 type  2   force =    -0.15231911   -0.15904028    0.14424010
     atom   26 type  2   force =    -0.00218862   -0.01076197    0.26604254
     atom   27 type  1   force =    -0.00547706    0.01440297    0.00956272
     atom   28 type  2   force =    -0.00108441   -0.02965625   -0.27530676
     atom   29 type  2   force =     0.00787956    0.00452604    0.26245155
     atom   30 type  1   force =    -0.00783763    0.03197352    0.00747859
     atom   31 type  2   force =    -0.00537986   -0.00122853   -0.25184327
     atom   32 type  2   force =     0.00116336   -0.01090010    0.27479659
     atom   33 type  1   force =    -0.00756239    0.02460421    0.03879501
     atom   34 type  2   force =    -0.01037592   -0.00233322   -0.24563794
     atom   35 type  2   force =    -0.00618654   -0.01051624    0.26878304
     atom   36 type  3   force =     1.15791483    1.16224406   -1.22215235
     The ionic contribution  to forces
     atom    1 type  1   force =    -0.13878777    0.87088802    4.24785810
     atom    2 type  2   force =    -2.96917296    1.26876295   38.22675072
     atom    3 type  2   force =    -0.42758204    0.13928619  -37.01481021
     atom    4 type  1   force =    -0.25260304    1.03556927   -0.42631768
     atom    5 type  2   force =    -1.10307906    1.81353468   38.54102243
     atom    6 type  2   force =     0.29725411   -0.37043597  -38.55135471
     atom    7 type  1   force =    -2.81211841   -3.27745045    1.51197244
     atom    8 type  2   force =    -1.19883044   -0.23893962   37.14998649
     atom    9 type  2   force =     0.27032992   -0.11782109  -38.52330930
     atom   10 type  1   force =    -2.96513602   -1.27298150    2.80657568
     atom   11 type  2   force =    -0.89429171   -2.02979954   38.84125428
     atom   12 type  2   force =     0.35374879    0.55306175  -38.48893807
     atom   13 type  1   force =     1.84563156    2.18895824    0.51722914
     atom   14 type  2   force =     0.60780691    0.23925369   38.12845817
     atom   15 type  2   force =     0.25783112    0.01473516  -37.49305236
     atom   16 type  1   force =     0.13622284    4.24693967   -0.48496973
     atom   17 type  2   force =     1.16861184    2.07294243   37.62765478
     atom   18 type  2   force =    -0.06199706   -0.47722414  -39.15603280
     atom   19 type  1   force =     3.18985215   -3.20672332   -0.64982345
     atom   20 type  2   force =     0.26361762   -0.26011166  -38.95833619
     atom   21 type  1   force =     0.64101653   -0.37477065   -0.44338388
     atom   22 type  2   force =     1.57064269   -2.74548483   37.79953210
     atom   23 type  2   force =     0.09589422    0.46880192  -39.07022012
     atom   24 type  1   force =    -1.54931553    3.56121424    1.81073448
     atom   25 type  2   force =     5.64441338    5.26286940   33.23893568
     atom   26 type  2   force =    -0.14033664    0.24233474  -38.51175690
     atom   27 type  1   force =     0.20969680    1.02884261   -3.53625347
     atom   28 type  2   force =    -0.17097586    1.97854716   37.79882702
     atom   29 type  2   force =    -0.32418798   -0.19154707  -37.94308085
     atom   30 type  1   force =    -0.61296929   -2.06147937   -1.63490765
     atom   31 type  2   force =     1.35026020   -0.44216669   37.03419296
     atom   32 type  2   force =    -0.44357379   -0.10946052  -39.20175666
     atom   33 type  1   force =     2.20928234   -2.70219835   -3.29022108
     atom   34 type  2   force =    -1.12777597   -4.82847818   37.54587498
     atom   35 type  2   force =    -0.40499561    0.19215681  -38.78812917
     atom   36 type  3   force =    -2.51438383   -2.47162597   49.33979484
     The local contribution  to forces
     atom    1 type  1   force =     0.14982853   -0.93831309   -4.22980574
     atom    2 type  2   force =     2.98202277   -1.25898748  -37.98494335
     atom    3 type  2   force =     0.43203388   -0.13047886   36.76980505
     atom    4 type  1   force =     0.25641582   -1.03742705    0.41351532
     atom    5 type  2   force =     1.09558848   -1.78688249  -38.31371182
     atom    6 type  2   force =    -0.29519465    0.37195807   38.30819775
     atom    7 type  1   force =     2.83632600    3.25237849   -1.49989857
     atom    8 type  2   force =     1.19498836    0.23864193  -36.89902656
     atom    9 type  2   force =    -0.26512534    0.13546688   38.27570198
     atom   10 type  1   force =     2.95382865    1.29380191   -2.83018950
     atom   11 type  2   force =     0.89088046    2.02395211  -38.60977958
     atom   12 type  2   force =    -0.34565106   -0.53789620   38.24940857
     atom   13 type  1   force =    -1.82153361   -2.15732575   -0.49547712
     atom   14 type  2   force =    -0.60368072   -0.23140886  -37.87817080
     atom   15 type  2   force =    -0.25903434   -0.01285466   37.24251882
     atom   16 type  1   force =    -0.13956209   -4.26860057    0.51819844
     atom   17 type  2   force =    -1.16358778   -2.03912594  -37.40043568
     atom   18 type  2   force =     0.06266829    0.47317824   38.91093748
     atom   19 type  1   force =    -3.19081905    3.19371617    0.66188076
     atom   20 type  2   force =    -0.26091388    0.27682938   38.71409534
     atom   21 type  1   force =    -0.65111096    0.34743404    0.43501262
     atom   22 type  2   force =    -1.56640804    2.73863134  -37.56254583
     atom   23 type  2   force =    -0.10233813   -0.45245390   38.83279576
     atom   24 type  1   force =     1.50705300   -3.56536569   -1.85986604
     atom   25 type  2   force =    -5.50043867   -5.07979268  -33.50576513
     atom   26 type  2   force =     0.13250602   -0.23280121   38.26357377
     atom   27 type  1   force =    -0.20870344   -1.04843229    3.53360305
     atom   28 type  2   force =     0.17262554   -1.94930466  -37.54722942
     atom   29 type  2   force =     0.31914654    0.19354384   37.69858220
     atom   30 type  1   force =     0.61340574    2.03380072    1.61329393
     atom   31 type  2   force =    -1.34382393    0.44182805  -36.78442573
     atom   32 type  2   force =     0.43454591    0.12694509   38.95505113
     atom   33 type  1   force =    -2.16284402    2.65592517    3.17714634
     atom   34 type  2   force =     1.12879856    4.76263463  -37.34972694
     atom   35 type  2   force =     0.40034110   -0.17566416   38.55678482
     atom   36 type  3   force =     1.35713747    1.31617608  -47.90257259
     The core correction contribution to forces
     atom    1 type  1   force =     0.00000000    0.00000000    0.00000000
     atom    2 type  2   force =     0.00217966   -0.00088366    0.02119472
     atom    3 type  2   force =     0.00081630   -0.00004863   -0.02051536
     atom    4 type  1   force =     0.00000000    0.00000000    0.00000000
     atom    5 type  2   force =    -0.00059797    0.00189590    0.02043840
     atom    6 type  2   force =     0.00036778   -0.00108299   -0.02085520
     atom    7 type  1   force =     0.00000000    0.00000000    0.00000000
     atom    8 type  2   force =    -0.00021149    0.00046122    0.02040741
     atom    9 type  2   force =    -0.00009430    0.00062601   -0.02114362
     atom   10 type  1   force =     0.00000000    0.00000000    0.00000000
     atom   11 type  2   force =    -0.00041142   -0.00048344    0.02066288
     atom   12 type  2   force =     0.00121995    0.00131193   -0.02090220
     atom   13 type  1   force =     0.00000000    0.00000000    0.00000000
     atom   14 type  2   force =    -0.00043627   -0.00015882    0.02068588
     atom   15 type  2   force =     0.00084575    0.00014438   -0.02048768
     atom   16 type  1   force =     0.00000000    0.00000000    0.00000000
     atom   17 type  2   force =    -0.00002164    0.00164312    0.02008983
     atom   18 type  2   force =    -0.00003115   -0.00030044   -0.02115832
     atom   19 type  1   force =     0.00000000    0.00000000    0.00000000
     atom   20 type  2   force =     0.00012435    0.00088886   -0.02123666
     atom   21 type  1   force =     0.00000000    0.00000000    0.00000000
     atom   22 type  2   force =     0.00022398   -0.00069991    0.02057814
     atom   23 type  2   force =    -0.00069424    0.00136746   -0.02090014
     atom   24 type  1   force =     0.00000000    0.00000000    0.00000000
     atom   25 type  2   force =     0.00903350    0.00888087   -0.00079672
     atom   26 type  2   force =    -0.00021144    0.00052182   -0.02106498
     atom   27 type  1   force =     0.00000000    0.00000000    0.00000000
     atom   28 type  2   force =     0.00006119    0.00208500    0.02096667
     atom   29 type  2   force =    -0.00063205   -0.00078774   -0.02051062
     atom   30 type  1   force =     0.00000000    0.00000000    0.00000000
     atom   31 type  2   force =     0.00032095    0.00021246    0.02044986
     atom   32 type  2   force =    -0.00038117    0.00067701   -0.02107319
     atom   33 type  1   force =     0.00000000    0.00000000    0.00000000
     atom   34 type  2   force =     0.00110716    0.00015164    0.02013541
     atom   35 type  2   force =     0.00016045    0.00094883   -0.02096308
     atom   36 type  3   force =    -0.01208125   -0.01237210    0.01173271
     The Hubbard contrib.    to forces
     atom    1 type  1   force =     0.00000000    0.00000000    0.00000000
     atom    2 type  2   force =     0.00000000    0.00000000    0.00000000
     atom    3 type  2   force =     0.00000000    0.00000000    0.00000000
     atom    4 type  1   force =     0.00000000    0.00000000    0.00000000
     atom    5 type  2   force =     0.00000000    0.00000000    0.00000000
     atom    6 type  2   force =     0.00000000    0.00000000    0.00000000
     atom    7 type  1   force =     0.00000000    0.00000000    0.00000000
     atom    8 type  2   force =     0.00000000    0.00000000    0.00000000
     atom    9 type  2   force =     0.00000000    0.00000000    0.00000000
     atom   10 type  1   force =     0.00000000    0.00000000    0.00000000
     atom   11 type  2   force =     0.00000000    0.00000000    0.00000000
     atom   12 type  2   force =     0.00000000    0.00000000    0.00000000
     atom   13 type  1   force =     0.00000000    0.00000000    0.00000000
     atom   14 type  2   force =     0.00000000    0.00000000    0.00000000
     atom   15 type  2   force =     0.00000000    0.00000000    0.00000000
     atom   16 type  1   force =     0.00000000    0.00000000    0.00000000
     atom   17 type  2   force =     0.00000000    0.00000000    0.00000000
     atom   18 type  2   force =     0.00000000    0.00000000    0.00000000
     atom   19 type  1   force =     0.00000000    0.00000000    0.00000000
     atom   20 type  2   force =     0.00000000    0.00000000    0.00000000
     atom   21 type  1   force =     0.00000000    0.00000000    0.00000000
     atom   22 type  2   force =     0.00000000    0.00000000    0.00000000
     atom   23 type  2   force =     0.00000000    0.00000000    0.00000000
     atom   24 type  1   force =     0.00000000    0.00000000    0.00000000
     atom   25 type  2   force =     0.00000000    0.00000000    0.00000000
     atom   26 type  2   force =     0.00000000    0.00000000    0.00000000
     atom   27 type  1   force =     0.00000000    0.00000000    0.00000000
     atom   28 type  2   force =     0.00000000    0.00000000    0.00000000
     atom   29 type  2   force =     0.00000000    0.00000000    0.00000000
     atom   30 type  1   force =     0.00000000    0.00000000    0.00000000
     atom   31 type  2   force =     0.00000000    0.00000000    0.00000000
     atom   32 type  2   force =     0.00000000    0.00000000    0.00000000
     atom   33 type  1   force =     0.00000000    0.00000000    0.00000000
     atom   34 type  2   force =     0.00000000    0.00000000    0.00000000
     atom   35 type  2   force =     0.00000000    0.00000000    0.00000000
     atom   36 type  3   force =     0.00000000    0.00000000    0.00000000
     The SCF correction term to forces
     atom    1 type  1   force =     0.00001056    0.00017741    0.00075867
     atom    2 type  2   force =    -0.00017663    0.00019807    0.00037408
     atom    3 type  2   force =    -0.00005610    0.00009603    0.00000705
     atom    4 type  1   force =    -0.00023904   -0.00008301    0.00098755
     atom    5 type  2   force =    -0.00006974    0.00005695    0.00051417
     atom    6 type  2   force =     0.00001653   -0.00009442    0.00015384
     atom    7 type  1   force =    -0.00029811   -0.00051054    0.00108054
     atom    8 type  2   force =    -0.00011383   -0.00016428    0.00056543
     atom    9 type  2   force =    -0.00001893   -0.00010597    0.00014897
     atom   10 type  1   force =    -0.00021424    0.00023686    0.00052353
     atom   11 type  2   force =    -0.00010864   -0.00010525    0.00056452
     atom   12 type  2   force =    -0.00002741    0.00012264    0.00002811
     atom   13 type  1   force =    -0.00000185    0.00016275    0.00069760
     atom   14 type  2   force =     0.00011539    0.00014749    0.00050340
     atom   15 type  2   force =     0.00005951    0.00005830    0.00001911
     atom   16 type  1   force =     0.00014732    0.00023186    0.00106768
     atom   17 type  2   force =     0.00009682    0.00012302    0.00059906
     atom   18 type  2   force =    -0.00001421   -0.00005437    0.00008663
     atom   19 type  1   force =     0.00035663   -0.00053602    0.00101513
     atom   20 type  2   force =     0.00000030   -0.00008873    0.00028130
     atom   21 type  1   force =     0.00013322    0.00018510    0.00066131
     atom   22 type  2   force =     0.00016778   -0.00016750    0.00055270
     atom   23 type  2   force =     0.00004929    0.00010417   -0.00001359
     atom   24 type  1   force =     0.00002772    0.00018667    0.00056869
     atom   25 type  2   force =    -0.00004335    0.00013453    0.00017281
     atom   26 type  2   force =    -0.00001396    0.00008321   -0.00000753
     atom   27 type  1   force =     0.00013490   -0.00003569    0.00094294
     atom   28 type  2   force =    -0.00002124    0.00012146    0.00049742
     atom   29 type  2   force =    -0.00000767   -0.00009116    0.00007448
     atom   30 type  1   force =    -0.00007488   -0.00040921    0.00091220
     atom   31 type  2   force =     0.00010675   -0.00018395    0.00058341
     atom   32 type  2   force =     0.00002757   -0.00010408    0.00011408
     atom   33 type  1   force =     0.00006224    0.00032265    0.00040639
     atom   34 type  2   force =    -0.00004118   -0.00016552    0.00045368
     atom   35 type  2   force =    -0.00002561    0.00010190   -0.00006317
     atom   36 type  3   force =    -0.00012541    0.00002783    0.00025995

     Total force =     0.303539     Total SCF correction =     0.003641

     BFGS Geometry Optimization
     Energy error            =      0.0E+00 Ry
     Gradient error          =      2.3E-01 Ry/Bohr

     number of scf cycles    =   1
     number of bfgs steps    =   0

     energy             new  =   -2246.2537024316 Ry

     new trust radius        =       0.2274407985 bohr
     new conv_thr            =       0.0000010000 Ry


ATOMIC_POSITIONS (angstrom)
Mo            6.5828723656        1.7733438009        2.8290934330
S             8.1614758560        0.8222542412        4.4288205176
S             8.1870066443        0.8152685223        1.2762903419
Mo            8.0973790735        4.4960684890        2.7166740016
S             6.4990221864        3.7195680463        4.3435978460
S             6.5533002884        3.5178368084        1.1204702557
Mo            6.4928542656        7.2092470491        2.6684237528
S             8.0827287046        6.3428416039        4.2518627718
S             8.0875493890        6.3085300727        1.0899517299
Mo            8.1561133207        9.9089334418        2.8314226539
S             6.4982150295        8.9417656868        4.3793106180
S             6.6158027385        9.0490923331        1.1418341776
Mo            3.4357790483        1.7599609405        2.7808796337
S             4.9840127429        0.8174068797        4.3545655858
S             5.0496302366        0.8466082353        1.2204031775
Mo            4.9805389166        4.5205239010        2.6356103818
S             3.4322923629        3.6755701140        4.2801202964
S             3.4370082147        3.5425939948        1.0635845579
Mo            3.4576739840        7.2114898828        2.6284058619
S             4.9848130592        6.3247127742        1.0381195983
Mo            5.0084527848        9.9016338875        2.7425366136
S             3.4688355831        8.9431735726        4.3249887508
S             3.4089296369        9.0658727421        1.1016073289
Mo            0.2909637476        1.7519924602        2.8288492581
S             1.8508045110        0.8101849948        4.3330171199
S             1.8553793885        0.8540967278        1.2077098891
Mo            1.8583906098        4.4929038930        2.6643635282
S             0.2725346962        3.6553481866        4.3364053970
S             0.2323951346        3.5302365579        1.1707131415
Mo            0.2671965721        7.2187030060        2.6947084885
S             1.9030241853        6.3119853164        4.2324851885
S             1.8578899559        6.3141320478        1.0483426836
Mo            1.8649524367        9.9288438729        2.7338635007
S             0.2915280103        9.0539135932        4.3985851486
S             0.2711064972        9.0472450185        1.1590952066
O             1.0446459459       -0.0029362843        5.4636274352



     Writing config-only to output data dir ./MoS2-V-O.save/
     NEW-OLD atomic charge density approx. for the potential

     negative rho (up, down):  1.927E-04 0.000E+00

     total cpu time spent up to now is      100.0 secs

     Self-consistent Calculation

     iteration #  1     ecut=    80.00 Ry     beta= 0.70
     Davidson diagonalization with overlap
     c_bands:  1 eigenvalues not converged
     ethr =  1.00E-06,  avg # of iterations = 20.0

     negative rho (up, down):  1.474E-03 0.000E+00

     total cpu time spent up to now is      114.6 secs

     total energy              =   -2246.30311305 Ry
     estimated scf accuracy    <       0.01401360 Ry

     iteration #  2     ecut=    80.00 Ry     beta= 0.70
     Davidson diagonalization with overlap
     ethr =  4.49E-06,  avg # of iterations =  4.0

     negative rho (up, down):  2.444E-03 0.000E+00

     total cpu time spent up to now is      128.7 secs

     total energy              =   -2246.30393829 Ry
     estimated scf accuracy    <       0.00748743 Ry

     iteration #  3     ecut=    80.00 Ry     beta= 0.70
     Davidson diagonalization with overlap
     ethr =  2.40E-06,  avg # of iterations =  3.0

     negative rho (up, down):  4.230E-03 0.000E+00

     total cpu time spent up to now is      141.4 secs

     total energy              =   -2246.30380983 Ry
     estimated scf accuracy    <       0.00138351 Ry

     iteration #  4     ecut=    80.00 Ry     beta= 0.70
     Davidson diagonalization with overlap
     ethr =  4.43E-07,  avg # of iterations =  4.0

     negative rho (up, down):  4.441E-03 0.000E+00

     total cpu time spent up to now is      154.1 secs

     total energy              =   -2246.30397667 Ry
     estimated scf accuracy    <       0.00061782 Ry

     iteration #  5     ecut=    80.00 Ry     beta= 0.70
     Davidson diagonalization with overlap
     ethr =  1.98E-07,  avg # of iterations =  2.0

     negative rho (up, down):  4.326E-03 0.000E+00

     total cpu time spent up to now is      165.6 secs

     total energy              =   -2246.30391156 Ry
     estimated scf accuracy    <       0.00027845 Ry

     iteration #  6     ecut=    80.00 Ry     beta= 0.70
     Davidson diagonalization with overlap
     ethr =  8.92E-08,  avg # of iterations =  5.0

     negative rho (up, down):  3.717E-03 0.000E+00

     total cpu time spent up to now is      177.5 secs

     total energy              =   -2246.30395636 Ry
     estimated scf accuracy    <       0.00016290 Ry

     iteration #  7     ecut=    80.00 Ry     beta= 0.70
     Davidson diagonalization with overlap
     ethr =  5.22E-08,  avg # of iterations =  3.0

     negative rho (up, down):  2.609E-03 0.000E+00

     total cpu time spent up to now is      186.8 secs

     total energy              =   -2246.30395830 Ry
     estimated scf accuracy    <       0.00001494 Ry

     iteration #  8     ecut=    80.00 Ry     beta= 0.70
     Davidson diagonalization with overlap
     ethr =  4.79E-09,  avg # of iterations =  5.0

     negative rho (up, down):  1.873E-03 0.000E+00

     total cpu time spent up to now is      196.5 secs

     total energy              =   -2246.30395653 Ry
     estimated scf accuracy    <       0.00000797 Ry

     iteration #  9     ecut=    80.00 Ry     beta= 0.70
     Davidson diagonalization with overlap
     ethr =  2.55E-09,  avg # of iterations =  2.0

     negative rho (up, down):  9.133E-04 0.000E+00

     total cpu time spent up to now is      206.6 secs

     total energy              =   -2246.30395045 Ry
     estimated scf accuracy    <       0.00000292 Ry

     iteration # 10     ecut=    80.00 Ry     beta= 0.70
     Davidson diagonalization with overlap
     ethr =  9.35E-10,  avg # of iterations =  4.0

     negative rho (up, down):  2.029E-04 0.000E+00

     total cpu time spent up to now is      210.1 secs

     End of self-consistent calculation

          k = 0.0000 0.0000 0.0000 (105382 PWs)   bands (ev):

   -63.0353 -62.9816 -62.9694 -62.9636 -62.9530 -62.9074 -62.8925 -62.8846
   -62.8810 -62.8674 -62.7821 -62.7719 -37.3439 -37.3066 -37.2716 -37.2536
   -37.2416 -37.2234 -37.1998 -37.1948 -37.1693 -37.1601 -37.1512 -37.1437
   -37.1379 -37.1235 -37.1144 -37.0883 -37.0800 -37.0738 -37.0713 -37.0686
   -37.0525 -37.0485 -37.0431 -37.0320 -37.0227 -37.0065 -36.9967 -36.9707
   -36.9561 -36.9408 -36.9371 -36.9081 -36.8920 -36.8661 -36.8586 -36.7934
   -21.5166 -16.0207 -15.2943 -15.2166 -15.0551 -14.9600 -14.8442 -14.6540
   -14.5866 -14.5246 -14.5019 -14.4713 -14.4308 -14.3873 -14.2959 -14.2565
   -14.2239 -14.2040 -14.1252 -14.0263 -13.9625 -13.9503 -13.9205 -13.8331
    -8.0955  -7.8538  -7.7164  -7.5053  -7.4890  -7.3730  -7.3523  -7.2873
    -7.2583  -7.0530  -6.9189  -6.8967  -6.8489  -6.7405  -6.7289  -6.6252
    -6.5948  -6.5192  -6.4271  -6.3579  -6.1203  -6.1036  -6.0128  -5.9364
    -5.9014  -5.8593  -5.8141  -5.7785  -5.7541  -5.7333  -5.6653  -5.6405
    -5.6078  -5.5566  -5.4823  -5.4306  -5.3127  -5.1640  -5.1028  -5.0979
    -5.0516  -5.0486  -4.9581  -4.8135  -4.7578  -4.6358  -4.5183  -4.3913
    -4.3410  -4.2704  -4.2348  -4.1722  -4.0390  -3.9699  -3.9281  -3.8757
    -3.8568  -3.7937  -3.6907  -3.6716  -3.6351  -3.6169  -3.5954  -3.5269
    -3.4930  -3.4601  -3.2905  -3.2706  -3.1086  -3.0072  -2.9795  -2.9119
    -2.8932  -2.8429  -2.8230  -2.7570  -2.7360  -2.7061  -2.6001  -2.3623
    -2.2725  -2.0848  -1.9904  -1.8898  -1.0382  -0.8292  -0.7603  -0.2595
    -0.2330  -0.1574  -0.1103   0.0215   0.0917   0.1102   0.1634   0.2041
     0.2312   0.2503   0.3311   0.4374   0.4644   0.4874   0.5069   0.5425
     0.6246   0.6489   0.6664   0.6760   0.7486   0.7905   0.8251   0.9096
     0.9577   0.9857   1.1868

     the Fermi energy is    -1.4640 ev

!    total energy              =   -2246.30394830 Ry
     estimated scf accuracy    <       0.00000056 Ry
     smearing contrib. (-TS)   =      -0.00000063 Ry
     internal energy E=F+TS    =   -2246.30394767 Ry

     The total energy is F=E-TS. E is the sum of the following terms:
     one-electron contribution =  -18455.90914377 Ry
     hartree contribution      =    9215.84231966 Ry
     xc contribution           =    -392.09969183 Ry
     ewald contribution        =    7395.72660493 Ry
     one-center paw contrib.   =      -9.86403666 Ry

     convergence has been achieved in  10 iterations

     negative rho (up, down):  2.029E-04 0.000E+00

     Forces acting on atoms (cartesian axes, Ry/au):

     atom    1 type  1   force =     0.00323737   -0.01346766   -0.00217836
     atom    2 type  2   force =    -0.01212854    0.01503456   -0.00899945
     atom    3 type  2   force =    -0.01131483    0.00632319   -0.01015735
     atom    4 type  1   force =     0.00526155    0.00235961    0.00087024
     atom    5 type  2   force =     0.00031252   -0.00555265   -0.00495089
     atom    6 type  2   force =    -0.00029003    0.00754484    0.00168828
     atom    7 type  1   force =     0.00431742   -0.01090224   -0.00092735
     atom    8 type  2   force =     0.00191070   -0.00327346    0.01243059
     atom    9 type  2   force =     0.00997321    0.00521152    0.00608824
     atom   10 type  1   force =    -0.00472437    0.00858565   -0.00979881
     atom   11 type  2   force =     0.00497631   -0.00214094   -0.00933285
     atom   12 type  2   force =    -0.00458415   -0.00071661    0.00074303
     atom   13 type  1   force =     0.02030223    0.01656710   -0.00170387
     atom   14 type  2   force =     0.01287792   -0.00083413    0.00845550
     atom   15 type  2   force =    -0.00975357    0.00052990   -0.00793493
     atom   16 type  1   force =     0.00076972    0.00932515    0.00248466
     atom   17 type  2   force =     0.00777745    0.00911064    0.00436921
     atom   18 type  2   force =    -0.00044593   -0.00484052    0.00928716
     atom   19 type  1   force =     0.00550996   -0.00664447    0.00157102
     atom   20 type  2   force =     0.00306563   -0.00394002   -0.00222531
     atom   21 type  1   force =    -0.00371322    0.00070168    0.00140746
     atom   22 type  2   force =    -0.00436173   -0.00115797   -0.00503598
     atom   23 type  2   force =     0.00864456   -0.00395940   -0.00272738
     atom   24 type  1   force =    -0.01995963    0.00686724   -0.02393136
     atom   25 type  2   force =    -0.08855096   -0.07344980    0.03522658
     atom   26 type  2   force =    -0.00143225    0.00430462   -0.00973689
     atom   27 type  1   force =    -0.00019435   -0.00170019    0.00622624
     atom   28 type  2   force =    -0.00047646   -0.00066699   -0.00348293
     atom   29 type  2   force =     0.00170793    0.00728980   -0.00644771
     atom   30 type  1   force =    -0.00517023   -0.00389906   -0.00226661
     atom   31 type  2   force =    -0.00020675   -0.00070816    0.01153581
     atom   32 type  2   force =    -0.00621392    0.00452513    0.00527104
     atom   33 type  1   force =     0.00774474   -0.01547834   -0.01931236
     atom   34 type  2   force =     0.00337090   -0.03588429   -0.02823049
     atom   35 type  2   force =    -0.01034853    0.00579493    0.00315726
     atom   36 type  3   force =     0.08210933    0.07914133    0.04856858
     The non-local contrib.  to forces
     atom    1 type  1   force =     0.00783507    0.03411331   -0.00635370
     atom    2 type  2   force =    -0.02749410    0.00774453   -0.27675163
     atom    3 type  2   force =    -0.01329670   -0.00251314    0.25759032
     atom    4 type  1   force =     0.00135458    0.00621566    0.00824367
     atom    5 type  2   force =     0.00779935   -0.03463480   -0.25558456
     atom    6 type  2   force =    -0.00239432    0.00772200    0.26559886
     atom    7 type  1   force =    -0.01747485    0.00688405   -0.02167631
     atom    8 type  2   force =     0.00561064   -0.00345616   -0.25844942
     atom    9 type  2   force =     0.00449998   -0.01199339    0.27646614
     atom   10 type  1   force =     0.00243571   -0.00631843   -0.00004966
     atom   11 type  2   force =     0.00848035    0.00364616   -0.26441083
     atom   12 type  2   force =    -0.01359247   -0.01733425    0.26368613
     atom   13 type  1   force =     0.00289902   -0.00309122   -0.01304925
     atom   14 type  2   force =     0.00962781   -0.00683598   -0.26537946
     atom   15 type  2   force =    -0.01084925   -0.00320367    0.26085237
     atom   16 type  1   force =     0.00339998    0.03670311   -0.03025132
     atom   17 type  2   force =     0.00316643   -0.02598490   -0.24615574
     atom   18 type  2   force =    -0.00092695   -0.00105657    0.27509818
     atom   19 type  1   force =     0.00963538    0.00523661   -0.01884594
     atom   20 type  2   force =     0.00029842   -0.02091489    0.26417809
     atom   21 type  1   force =     0.00118246    0.02695893    0.00484447
     atom   22 type  2   force =    -0.00399213    0.00288024   -0.26327299
     atom   23 type  2   force =     0.01249603   -0.01936312    0.26094544
     atom   24 type  1   force =     0.02232829    0.01432603    0.00726603
     atom   25 type  2   force =    -0.18556504   -0.21088161    0.26765299
     atom   26 type  2   force =     0.00406847   -0.00932370    0.26636736
     atom   27 type  1   force =    -0.00622666    0.01355808    0.00814910
     atom   28 type  2   force =    -0.00220478   -0.02843419   -0.27762967
     atom   29 type  2   force =     0.00696711    0.00439374    0.26077211
     atom   30 type  1   force =    -0.00782141    0.03315905    0.00851681
     atom   31 type  2   force =    -0.00603051   -0.00200718   -0.25778685
     atom   32 type  2   force =     0.00327471   -0.01251306    0.27426025
     atom   33 type  1   force =    -0.00287566    0.01352952    0.03215057
     atom   34 type  2   force =    -0.00144557    0.01103607   -0.25626647
     atom   35 type  2   force =    -0.00312881   -0.01033838    0.26279610
     atom   36 type  3   force =     0.94228658    0.97225075   -1.23718201
     The ionic contribution  to forces
     atom    1 type  1   force =    -0.36714133    1.17517056    4.42192920
     atom    2 type  2   force =    -2.45404753    1.05643646   38.25723642
     atom    3 type  2   force =    -0.42522940    0.12603895  -37.09668599
     atom    4 type  1   force =    -0.31211671    0.94611448   -0.34127890
     atom    5 type  2   force =    -1.07845638    1.78608550   38.48469483
     atom    6 type  2   force =     0.24616396   -0.44919648  -38.45934725
     atom    7 type  1   force =    -2.80671649   -2.99990855    1.52894158
     atom    8 type  2   force =    -1.17761249   -0.20977336   37.29687956
     atom    9 type  2   force =     0.24600431   -0.15010529  -38.51766238
     atom   10 type  1   force =    -2.47334460   -1.22583810    2.81200613
     atom   11 type  2   force =    -0.85044776   -2.01452018   38.78254478
     atom   12 type  2   force =     0.30994913    0.50629191  -38.42971234
     atom   13 type  1   force =     1.69012086    1.95453355    0.96154828
     atom   14 type  2   force =     0.44454989    0.15578821   38.25211922
     atom   15 type  2   force =     0.28268663    0.06300777  -37.52724439
     atom   16 type  1   force =     0.17767779    4.06217085   -0.30790376
     atom   17 type  2   force =     1.11693352    2.05085320   37.72277437
     atom   18 type  2   force =    -0.05484189   -0.42159923  -39.10552680
     atom   19 type  1   force =     3.07899443   -3.20134920   -0.52218592
     atom   20 type  2   force =     0.24140127   -0.25952115  -39.02079437
     atom   21 type  1   force =     0.69911477   -0.38505907   -0.18783908
     atom   22 type  2   force =     1.39199511   -2.60582318   37.86925503
     atom   23 type  2   force =     0.26741932    0.34469039  -39.14466302
     atom   24 type  1   force =    -1.36303980    3.06041917    1.37937679
     atom   25 type  2   force =     4.30903306    3.85225122   33.13429404
     atom   26 type  2   force =    -0.05237762    0.36141781  -38.40130320
     atom   27 type  1   force =     0.24829961    1.11325750   -3.23046545
     atom   28 type  2   force =    -0.15913203    1.81560746   37.84616860
     atom   29 type  2   force =    -0.30114701   -0.11642796  -37.99961539
     atom   30 type  1   force =    -0.47450572   -2.05926656   -1.73342431
     atom   31 type  2   force =     1.32459907   -0.36296201   37.11383904
     atom   32 type  2   force =    -0.40171650   -0.17579202  -39.13179145
     atom   33 type  1   force =     1.53055179   -2.17622518   -3.92912613
     atom   34 type  2   force =    -0.81811686   -4.09205654   37.30901636
     atom   35 type  2   force =    -0.48336024    0.19877992  -38.67264702
     atom   36 type  3   force =    -1.55214418   -1.72349084   48.58659293
     The local contribution  to forces
     atom    1 type  1   force =     0.36271752   -1.22286671   -4.41771467
     atom    2 type  2   force =     2.46749527   -1.04837965  -38.01105433
     atom    3 type  2   force =     0.42661817   -0.11720547   36.84922565
     atom    4 type  1   force =     0.31606904   -0.94975360    0.33378801
     atom    5 type  2   force =     1.07164180   -1.75881891  -38.25438723
     atom    6 type  2   force =    -0.24432562    0.45009552   38.21610890
     atom    7 type  1   force =     2.82847139    2.98192799   -1.50841034
     atom    8 type  2   force =     1.17403716    0.20936102  -37.04652982
     atom    9 type  2   force =    -0.24057871    0.16668283   38.26822915
     atom   10 type  1   force =     2.46595441    1.24063549   -2.82209280
     atom   11 type  2   force =     0.84723184    2.00913976  -38.54824533
     atom   12 type  2   force =    -0.30210857   -0.49104419   38.18745054
     atom   13 type  1   force =    -1.67276094   -1.93477010   -0.95019843
     atom   14 type  2   force =    -0.44088443   -0.14955455  -37.99901222
     atom   15 type  2   force =    -0.28220188   -0.05959015   37.27877463
     atom   16 type  1   force =    -0.18032847   -4.08923716    0.34057588
     atom   17 type  2   force =    -1.11227041   -2.01723136  -37.49225037
     atom   18 type  2   force =     0.05540624    0.41840638   38.86064838
     atom   19 type  1   force =    -3.08302202    3.18947000    0.54238798
     atom   20 type  2   force =    -0.23873187    0.27567836   38.77544135
     atom   21 type  1   force =    -0.70405774    0.35863345    0.18416587
     atom   22 type  2   force =    -1.39217129    2.60214953  -37.63195189
     atom   23 type  2   force =    -0.27063664   -0.33069166   38.90162795
     atom   24 type  1   force =     1.32059796   -3.06762155   -1.41081131
     atom   25 type  2   force =    -4.22326628   -3.72672063  -33.35895005
     atom   26 type  2   force =     0.04721555   -0.34846308   38.14595740
     atom   27 type  1   force =    -0.24229228   -1.12839381    3.22843944
     atom   28 type  2   force =     0.16075046   -1.78965804  -37.59313454
     atom   29 type  2   force =     0.29644482    0.12002074   37.75275458
     atom   30 type  1   force =     0.47708982    2.02213593    1.72239776
     atom   31 type  2   force =    -1.31905567    0.36389916  -36.86508590
     atom   32 type  2   force =     0.39270999    0.19216349   38.88367551
     atom   33 type  1   force =    -1.51966154    2.14685889    3.87718759
     atom   34 type  2   force =     0.82200810    4.04498404  -37.10175631
     atom   35 type  2   force =     0.47630470   -0.18359461   38.43358960
     atom   36 type  3   force =     0.70270219    0.84162725  -47.31398119
     The core correction contribution to forces
     atom    1 type  1   force =     0.00000000    0.00000000    0.00000000
     atom    2 type  2   force =     0.00174561   -0.00065610    0.02151654
     atom    3 type  2   force =     0.00058722    0.00000797   -0.02044509
     atom    4 type  1   force =     0.00000000    0.00000000    0.00000000
     atom    5 type  2   force =    -0.00065671    0.00189474    0.02047195
     atom    6 type  2   force =     0.00031127   -0.00100140   -0.02090409
     atom    7 type  1   force =     0.00000000    0.00000000    0.00000000
     atom    8 type  2   force =    -0.00015473    0.00055106    0.02059483
     atom    9 type  2   force =     0.00003657    0.00063813   -0.02108236
     atom   10 type  1   force =     0.00000000    0.00000000    0.00000000
     atom   11 type  2   force =    -0.00031561   -0.00047453    0.02083505
     atom   12 type  2   force =     0.00116935    0.00133486   -0.02087589
     atom   13 type  1   force =     0.00000000    0.00000000    0.00000000
     atom   14 type  2   force =    -0.00035129   -0.00022336    0.02082261
     atom   15 type  2   force =     0.00065791    0.00025039   -0.02055435
     atom   16 type  1   force =     0.00000000    0.00000000    0.00000000
     atom   17 type  2   force =    -0.00003364    0.00158722    0.02012176
     atom   18 type  2   force =    -0.00010110   -0.00050690   -0.02115966
     atom   19 type  1   force =     0.00000000    0.00000000    0.00000000
     atom   20 type  2   force =     0.00010891    0.00085824   -0.02119271
     atom   21 type  1   force =     0.00000000    0.00000000    0.00000000
     atom   22 type  2   force =    -0.00014473   -0.00045216    0.02088147
     atom   23 type  2   force =    -0.00066576    0.00136520   -0.02076417
     atom   24 type  1   force =     0.00000000    0.00000000    0.00000000
     atom   25 type  2   force =     0.01150751    0.01214637   -0.00798577
     atom   26 type  2   force =    -0.00037976    0.00061509   -0.02101526
     atom   27 type  1   force =     0.00000000    0.00000000    0.00000000
     atom   28 type  2   force =     0.00009223    0.00192478    0.02115073
     atom   29 type  2   force =    -0.00057355   -0.00065546   -0.02051914
     atom   30 type  1   force =     0.00000000    0.00000000    0.00000000
     atom   31 type  2   force =     0.00031674    0.00032086    0.02064000
     atom   32 type  2   force =    -0.00046549    0.00070338   -0.02105008
     atom   33 type  1   force =     0.00000000    0.00000000    0.00000000
     atom   34 type  2   force =     0.00087558   -0.00014762    0.02067110
     atom   35 type  2   force =    -0.00011852    0.00090343   -0.02077808
     atom   36 type  3   force =    -0.01047059   -0.01096833    0.01301034
     The Hubbard contrib.    to forces
     atom    1 type  1   force =     0.00000000    0.00000000    0.00000000
     atom    2 type  2   force =     0.00000000    0.00000000    0.00000000
     atom    3 type  2   force =     0.00000000    0.00000000    0.00000000
     atom    4 type  1   force =     0.00000000    0.00000000    0.00000000
     atom    5 type  2   force =     0.00000000    0.00000000    0.00000000
     atom    6 type  2   force =     0.00000000    0.00000000    0.00000000
     atom    7 type  1   force =     0.00000000    0.00000000    0.00000000
     atom    8 type  2   force =     0.00000000    0.00000000    0.00000000
     atom    9 type  2   force =     0.00000000    0.00000000    0.00000000
     atom   10 type  1   force =     0.00000000    0.00000000    0.00000000
     atom   11 type  2   force =     0.00000000    0.00000000    0.00000000
     atom   12 type  2   force =     0.00000000    0.00000000    0.00000000
     atom   13 type  1   force =     0.00000000    0.00000000    0.00000000
     atom   14 type  2   force =     0.00000000    0.00000000    0.00000000
     atom   15 type  2   force =     0.00000000    0.00000000    0.00000000
     atom   16 type  1   force =     0.00000000    0.00000000    0.00000000
     atom   17 type  2   force =     0.00000000    0.00000000    0.00000000
     atom   18 type  2   force =     0.00000000    0.00000000    0.00000000
     atom   19 type  1   force =     0.00000000    0.00000000    0.00000000
     atom   20 type  2   force =     0.00000000    0.00000000    0.00000000
     atom   21 type  1   force =     0.00000000    0.00000000    0.00000000
     atom   22 type  2   force =     0.00000000    0.00000000    0.00000000
     atom   23 type  2   force =     0.00000000    0.00000000    0.00000000
     atom   24 type  1   force =     0.00000000    0.00000000    0.00000000
     atom   25 type  2   force =     0.00000000    0.00000000    0.00000000
     atom   26 type  2   force =     0.00000000    0.00000000    0.00000000
     atom   27 type  1   force =     0.00000000    0.00000000    0.00000000
     atom   28 type  2   force =     0.00000000    0.00000000    0.00000000
     atom   29 type  2   force =     0.00000000    0.00000000    0.00000000
     atom   30 type  1   force =     0.00000000    0.00000000    0.00000000
     atom   31 type  2   force =     0.00000000    0.00000000    0.00000000
     atom   32 type  2   force =     0.00000000    0.00000000    0.00000000
     atom   33 type  1   force =     0.00000000    0.00000000    0.00000000
     atom   34 type  2   force =     0.00000000    0.00000000    0.00000000
     atom   35 type  2   force =     0.00000000    0.00000000    0.00000000
     atom   36 type  3   force =     0.00000000    0.00000000    0.00000000
     The SCF correction term to forces
     atom    1 type  1   force =    -0.00017009    0.00011900   -0.00003166
     atom    2 type  2   force =     0.00017600   -0.00010685    0.00006108
     atom    3 type  2   force =     0.00000968   -0.00000128    0.00016528
     atom    4 type  1   force =    -0.00004156   -0.00021311    0.00012499
     atom    5 type  2   force =    -0.00001173   -0.00007535   -0.00013836
     atom    6 type  2   force =    -0.00004153   -0.00007097    0.00023940
     atom    7 type  1   force =     0.00004117    0.00019810    0.00022524
     atom    8 type  2   force =     0.00003392    0.00004782   -0.00005704
     atom    9 type  2   force =     0.00001487   -0.00000693    0.00014522
     atom   10 type  1   force =     0.00023391    0.00011051    0.00034504
     atom   11 type  2   force =     0.00003129    0.00007168   -0.00004899
     atom   12 type  2   force =     0.00000221    0.00003889    0.00020213
     atom   13 type  1   force =     0.00004709   -0.00010130    0.00000306
     atom   14 type  2   force =    -0.00006025   -0.00000461   -0.00008712
     atom   15 type  2   force =    -0.00004319    0.00006939    0.00024433
     atom   16 type  1   force =     0.00002421   -0.00030781    0.00007138
     atom   17 type  2   force =    -0.00001465   -0.00010970   -0.00011329
     atom   18 type  2   force =     0.00002156   -0.00008037    0.00023458
     atom   19 type  1   force =    -0.00009404    0.00000195    0.00022242
     atom   20 type  2   force =    -0.00000731   -0.00003675    0.00014987
     atom   21 type  1   force =     0.00005108    0.00017219    0.00024373
     atom   22 type  2   force =    -0.00004489    0.00009143    0.00005992
     atom   23 type  2   force =     0.00003541    0.00004362    0.00013395
     atom   24 type  1   force =     0.00015772   -0.00025259    0.00024466
     atom   25 type  2   force =    -0.00025641   -0.00024133    0.00022290
     atom   26 type  2   force =     0.00004491    0.00006233    0.00026434
     atom   27 type  1   force =     0.00002878   -0.00011813    0.00011067
     atom   28 type  2   force =     0.00002146   -0.00010318   -0.00003052
     atom   29 type  2   force =     0.00002037   -0.00003743    0.00016765
     atom   30 type  1   force =     0.00007088    0.00007634    0.00025065
     atom   31 type  2   force =    -0.00003258    0.00004483   -0.00006295
     atom   32 type  2   force =    -0.00001284   -0.00003283    0.00018434
     atom   33 type  1   force =    -0.00026605    0.00036227    0.00048313
     atom   34 type  2   force =     0.00005345    0.00030359    0.00011236
     atom   35 type  2   force =    -0.00004185    0.00004840    0.00020419
     atom   36 type  3   force =    -0.00026087   -0.00027366    0.00013604

     Total force =     0.194693     Total SCF correction =     0.001564
     Energy error            =      5.0E-02 Ry
     Gradient error          =      8.9E-02 Ry/Bohr

     number of scf cycles    =   2
     number of bfgs steps    =   1

     energy             old  =   -2246.2537024316 Ry
     energy             new  =   -2246.3039482971 Ry

     CASE: energy            _new < energy            _old

     new trust radius        =       0.2234515679 bohr
     new conv_thr            =       0.0000000886 Ry


ATOMIC_POSITIONS (angstrom)
Mo            6.5894728896        1.7569289088        2.8307043463
S             8.1454833387        0.8386102246        4.4200128521
S             8.1764600372        0.8214620603        1.2690112459
Mo            8.1019116063        4.4981107565        2.7165961759
S             6.4987335072        3.7145085699        4.3387977882
S             6.5530902388        3.5259358763        1.1210915441
Mo            6.4971505878        7.1973375713        2.6659435755
S             8.0844820424        6.3402131623        4.2648517799
S             8.0974717444        6.3139134451        1.0971262981
Mo            8.1506659253        9.9180470259        2.8186489777
S             6.5030227051        8.9397794230        4.3713457411
S             6.6117369235        9.0488490585        1.1433580845
Mo            3.4563169076        1.7775326678        2.7822192168
S             4.9969805316        0.8171357830        4.3621071902
S             5.0389856417        0.8471320170        1.2119726126
Mo            4.9814527988        4.5304286040        2.6386703464
S             3.4396353253        3.6834909486        4.2831010585
S             3.4362272930        3.5364550597        1.0723081104
Mo            3.4632370983        7.2046512692        2.6281530594
S             4.9876113374        6.3210121371        1.0371901968
Mo            5.0040235510        9.9020949928        2.7429509973
S             3.4649220658        8.9421268243        4.3214823650
S             3.4146561862        9.0638588321        1.1029204921
Mo            0.2755667681        1.7587789630        2.8024757637
S             1.7951393286        0.7734361410        4.3195335909
S             1.8515074164        0.8566315453        1.2006423899
Mo            1.8570080582        4.4903184377        2.6705722450
S             0.2724098831        3.6554474011        4.3335630604
S             0.2341098180        3.5364705269        1.1659317766
Mo            0.2617692406        7.2173701700        2.6894519261
S             1.9033241938        6.3110931309        4.2452602435
S             1.8515892781        6.3190608419        1.0537393050
Mo            1.8811220321        9.9128952466        2.7002788910
S             0.2912528036        9.0115185332        4.3724086470
S             0.2614769010        9.0529369753        1.1658480865
O             1.0930921186        0.0453732798        5.5600698912



     Writing config-only to output data dir ./MoS2-V-O.save/
     NEW-OLD atomic charge density approx. for the potential

     negative rho (up, down):  1.830E-04 0.000E+00

     total cpu time spent up to now is      217.4 secs

     Self-consistent Calculation

     iteration #  1     ecut=    80.00 Ry     beta= 0.70
     Davidson diagonalization with overlap
     ethr =  1.00E-06,  avg # of iterations = 18.0

     negative rho (up, down):  4.107E-04 0.000E+00

     total cpu time spent up to now is      231.9 secs

     total energy              =   -2246.34051107 Ry
     estimated scf accuracy    <       0.01737551 Ry

     iteration #  2     ecut=    80.00 Ry     beta= 0.70
     Davidson diagonalization with overlap
     ethr =  5.57E-06,  avg # of iterations =  5.0

     negative rho (up, down):  6.807E-04 0.000E+00

     total cpu time spent up to now is      242.7 secs

     total energy              =   -2246.34522477 Ry
     estimated scf accuracy    <       0.01300847 Ry

     iteration #  3     ecut=    80.00 Ry     beta= 0.70
     Davidson diagonalization with overlap
     ethr =  4.17E-06,  avg # of iterations =  2.0

     negative rho (up, down):  1.241E-03 0.000E+00

     total cpu time spent up to now is      256.1 secs

     total energy              =   -2246.34535696 Ry
     estimated scf accuracy    <       0.00173013 Ry

     iteration #  4     ecut=    80.00 Ry     beta= 0.70
     Davidson diagonalization with overlap
     ethr =  5.55E-07,  avg # of iterations =  5.0

     negative rho (up, down):  1.319E-03 0.000E+00

     total cpu time spent up to now is      268.8 secs

     total energy              =   -2246.34581270 Ry
     estimated scf accuracy    <       0.00075243 Ry

     iteration #  5     ecut=    80.00 Ry     beta= 0.70
     Davidson diagonalization with overlap
     ethr =  2.41E-07,  avg # of iterations =  2.0

     negative rho (up, down):  1.337E-03 0.000E+00

     total cpu time spent up to now is      279.7 secs

     total energy              =   -2246.34577629 Ry
     estimated scf accuracy    <       0.00028717 Ry

     iteration #  6     ecut=    80.00 Ry     beta= 0.70
     Davidson diagonalization with overlap
     ethr =  9.20E-08,  avg # of iterations =  4.0

     negative rho (up, down):  1.254E-03 0.000E+00

     total cpu time spent up to now is      291.8 secs

     total energy              =   -2246.34581000 Ry
     estimated scf accuracy    <       0.00001402 Ry

     iteration #  7     ecut=    80.00 Ry     beta= 0.70
     Davidson diagonalization with overlap
     ethr =  4.49E-09,  avg # of iterations =  5.0

     negative rho (up, down):  1.010E-03 0.000E+00

     total cpu time spent up to now is      303.0 secs

     total energy              =   -2246.34581090 Ry
     estimated scf accuracy    <       0.00000550 Ry

     iteration #  8     ecut=    80.00 Ry     beta= 0.70
     Davidson diagonalization with overlap
     ethr =  1.76E-09,  avg # of iterations =  5.0

     negative rho (up, down):  8.120E-04 0.000E+00

     total cpu time spent up to now is      313.6 secs

     total energy              =   -2246.34581015 Ry
     estimated scf accuracy    <       0.00000405 Ry

     iteration #  9     ecut=    80.00 Ry     beta= 0.70
     Davidson diagonalization with overlap
     ethr =  1.30E-09,  avg # of iterations =  2.0

     negative rho (up, down):  5.360E-04 0.000E+00

     total cpu time spent up to now is      322.8 secs

     total energy              =   -2246.34580948 Ry
     estimated scf accuracy    <       0.00000065 Ry

     iteration # 10     ecut=    80.00 Ry     beta= 0.70
     Davidson diagonalization with overlap
     ethr =  2.08E-10,  avg # of iterations =  5.0

     negative rho (up, down):  4.350E-04 0.000E+00

     total cpu time spent up to now is      334.8 secs

     total energy              =   -2246.34580936 Ry
     estimated scf accuracy    <       0.00000015 Ry

     iteration # 11     ecut=    80.00 Ry     beta= 0.70
     Davidson diagonalization with overlap
     ethr =  4.92E-11,  avg # of iterations =  2.0

     negative rho (up, down):  1.973E-04 0.000E+00

     total cpu time spent up to now is      338.2 secs

     End of self-consistent calculation

          k = 0.0000 0.0000 0.0000 (105382 PWs)   bands (ev):

   -63.0391 -63.0025 -62.9929 -62.9849 -62.9790 -62.9316 -62.9145 -62.9067
   -62.9047 -62.8919 -62.8146 -62.8029 -37.3616 -37.3073 -37.2783 -37.2715
   -37.2627 -37.2420 -37.2207 -37.2172 -37.1891 -37.1819 -37.1726 -37.1683
   -37.1607 -37.1483 -37.1396 -37.1118 -37.1014 -37.0993 -37.0959 -37.0935
   -37.0782 -37.0707 -37.0652 -37.0547 -37.0465 -37.0318 -37.0198 -36.9966
   -36.9932 -36.9748 -36.9662 -36.9367 -36.9211 -36.8978 -36.8843 -36.8234
   -21.4265 -16.0504 -15.3111 -15.2343 -15.0723 -14.9862 -14.8677 -14.6155
   -14.5966 -14.5403 -14.5337 -14.5001 -14.4467 -14.4161 -14.2968 -14.2732
   -14.2395 -14.2323 -14.1474 -14.0342 -13.9947 -13.9743 -13.9501 -13.8491
    -7.9026  -7.8512  -7.6615  -7.5428  -7.4600  -7.4006  -7.3674  -7.3197
    -7.2807  -7.0731  -6.9413  -6.9176  -6.8643  -6.7581  -6.7422  -6.6397
    -6.6131  -6.5508  -6.4534  -6.3802  -6.1353  -6.1204  -6.0203  -5.9668
    -5.9113  -5.8847  -5.8371  -5.8058  -5.7896  -5.7563  -5.7070  -5.6783
    -5.6219  -5.5865  -5.4885  -5.4192  -5.3280  -5.1786  -5.1453  -5.1182
    -5.0955  -5.0779  -4.9706  -4.8021  -4.7620  -4.6644  -4.5536  -4.4082
    -4.3632  -4.3255  -4.2696  -4.1709  -4.0746  -4.0116  -3.9524  -3.9003
    -3.8936  -3.7974  -3.7181  -3.6944  -3.6608  -3.6432  -3.6176  -3.5416
    -3.5121  -3.4813  -3.3168  -3.2780  -3.1265  -3.0382  -3.0264  -2.9141
    -2.9009  -2.8785  -2.8670  -2.7900  -2.7539  -2.7206  -2.6328  -2.4110
    -2.3493  -2.1164  -2.0522  -1.9578  -0.9735  -0.8607  -0.6689  -0.2817
    -0.2554  -0.1777  -0.1472   0.0146   0.0586   0.1148   0.1555   0.1723
     0.1965   0.2589   0.3141   0.4219   0.4391   0.4613   0.4783   0.5259
     0.5911   0.6247   0.6503   0.6576   0.7248   0.7850   0.8173   0.8920
     0.9063   0.9644   1.1582

     the Fermi energy is    -1.4656 ev

!    total energy              =   -2246.34580922 Ry
     estimated scf accuracy    <       0.00000008 Ry
     smearing contrib. (-TS)   =      -0.00000002 Ry
     internal energy E=F+TS    =   -2246.34580920 Ry

     The total energy is F=E-TS. E is the sum of the following terms:
     one-electron contribution =  -18442.61713129 Ry
     hartree contribution      =    9208.98734435 Ry
     xc contribution           =    -392.09973600 Ry
     ewald contribution        =    7389.24704165 Ry
     one-center paw contrib.   =      -9.86332791 Ry

     convergence has been achieved in  11 iterations

     negative rho (up, down):  1.973E-04 0.000E+00

     Forces acting on atoms (cartesian axes, Ry/au):

     atom    1 type  1   force =    -0.00823836    0.00170415   -0.01210888
     atom    2 type  2   force =     0.00117128    0.00572168   -0.00452179
     atom    3 type  2   force =    -0.01103602    0.00329644   -0.01864242
     atom    4 type  1   force =     0.00472007    0.00267318    0.00223782
     atom    5 type  2   force =     0.00233714   -0.00501812   -0.00428338
     atom    6 type  2   force =    -0.00003132    0.00394461    0.00405177
     atom    7 type  1   force =     0.00266912   -0.00341168    0.00285894
     atom    8 type  2   force =     0.00107573   -0.00543807    0.00692383
     atom    9 type  2   force =     0.00577822    0.00219903    0.00030974
     atom   10 type  1   force =    -0.00117099    0.00378106    0.00004761
     atom   11 type  2   force =     0.00396149   -0.00161208   -0.00968938
     atom   12 type  2   force =    -0.00415363   -0.00204268   -0.00077558
     atom   13 type  1   force =    -0.00654051   -0.00529013    0.00690101
     atom   14 type  2   force =     0.00429921   -0.00130835    0.00648818
     atom   15 type  2   force =    -0.00383174    0.00046399   -0.00371008
     atom   16 type  1   force =     0.00079119    0.00422538    0.00045832
     atom   17 type  2   force =     0.00667506    0.00755957    0.00696867
     atom   18 type  2   force =     0.00177572    0.00183077    0.00737182
     atom   19 type  1   force =     0.00323518   -0.00356002    0.00477675
     atom   20 type  2   force =     0.00296448   -0.00300897   -0.00516518
     atom   21 type  1   force =    -0.00036346    0.00316300    0.00341552
     atom   22 type  2   force =    -0.00351819   -0.00137924   -0.00687730
     atom   23 type  2   force =     0.01557325   -0.01010028   -0.01361333
     atom   24 type  1   force =    -0.01984706    0.00133265   -0.00322353
     atom   25 type  2   force =    -0.06020865   -0.06738328    0.04525558
     atom   26 type  2   force =     0.00713566    0.00760950   -0.00736506
     atom   27 type  1   force =     0.00372853    0.00133060    0.00482648
     atom   28 type  2   force =    -0.00126660   -0.00398504   -0.00451731
     atom   29 type  2   force =     0.00121936    0.00962513   -0.01037557
     atom   30 type  1   force =    -0.00062668   -0.00696834    0.00650843
     atom   31 type  2   force =    -0.00134642   -0.00025973    0.00370202
     atom   32 type  2   force =    -0.00309361    0.00142841    0.00399267
     atom   33 type  1   force =    -0.01785401   -0.00673225    0.01805562
     atom   34 type  2   force =     0.00535462   -0.01753534   -0.02488596
     atom   35 type  2   force =    -0.00939797    0.00262683   -0.00937273
     atom   36 type  3   force =     0.07805993    0.08051761    0.00397668
     The non-local contrib.  to forces
     atom    1 type  1   force =     0.00814155    0.02889012   -0.00587273
     atom    2 type  2   force =    -0.01449374    0.00008040   -0.27645597
     atom    3 type  2   force =    -0.01067226   -0.00453588    0.25224424
     atom    4 type  1   force =     0.00296567    0.00862969    0.00675224
     atom    5 type  2   force =     0.00912195   -0.03451399   -0.25688081
     atom    6 type  2   force =    -0.00172482    0.00360589    0.26839444
     atom    7 type  1   force =    -0.01690019    0.00509835   -0.02431434
     atom    8 type  2   force =     0.00531857   -0.00505419   -0.26226891
     atom    9 type  2   force =    -0.00035424   -0.01332071    0.27160492
     atom   10 type  1   force =     0.00215903   -0.00242397   -0.00102990
     atom   11 type  2   force =     0.00738997    0.00346929   -0.26684604
     atom   12 type  2   force =    -0.01304064   -0.01857148    0.26417548
     atom   13 type  1   force =     0.00638554    0.00580439   -0.01284043
     atom   14 type  2   force =     0.00396140   -0.00707011   -0.26651133
     atom   15 type  2   force =    -0.00637113   -0.00426606    0.26214025
     atom   16 type  1   force =     0.00152267    0.03778248   -0.03139834
     atom   17 type  2   force =     0.00123640   -0.02504178   -0.24456379
     atom   18 type  2   force =     0.00153909    0.00433456    0.27309403
     atom   19 type  1   force =     0.01172507    0.00526360   -0.02107430
     atom   20 type  2   force =     0.00037049   -0.01920291    0.26140946
     atom   21 type  1   force =    -0.00068292    0.02680910    0.00332645
     atom   22 type  2   force =    -0.00116817    0.00031082   -0.26396951
[...]
     atom   28 type  2   force =     0.00056437   -0.01299538   -0.27751253
     atom   29 type  2   force =     0.00002024   -0.00804828    0.26626748
     atom   30 type  1   force =    -0.00476496    0.01817116    0.00489794
     atom   31 type  2   force =    -0.00548052    0.00034944   -0.26811688
     atom   32 type  2   force =     0.00517389   -0.01363156    0.27169519
     atom   33 type  1   force =    -0.00146099    0.01685079    0.01754890
     atom   34 type  2   force =     0.00238366   -0.00657941   -0.27855309
     atom   35 type  2   force =     0.00044759   -0.01408628    0.26553742
     atom   36 type  3   force =     0.03615006   -0.00133987   -2.31814105
     The ionic contribution  to forces
     atom    1 type  1   force =    -0.19854973    1.06679412    1.31482317
     atom    2 type  2   force =    -1.18343256   -0.01179235   38.14532235
     atom    3 type  2   force =    -0.01511439   -0.06570052  -38.35308379
     atom    4 type  1   force =    -0.53057209    0.85569661   -0.48335366
     atom    5 type  2   force =    -0.80437234    1.44124330   38.05104961
     atom    6 type  2   force =     0.15313394   -0.25002147  -38.37719662
     atom    7 type  1   force =    -2.62631188   -1.99847206    1.64817122
     atom    8 type  2   force =    -1.28704773    0.16102793   38.03159755
     atom    9 type  2   force =     0.29048353   -0.03065872  -38.43011482
     atom   10 type  1   force =    -1.04568248   -0.99789030    1.20115487
     atom   11 type  2   force =    -0.43779004   -1.70385590   38.19868794
     atom   12 type  2   force =     0.17729682    0.21092597  -38.41170053
     atom   13 type  1   force =     1.11798269    1.23700241   -1.18030723
     atom   14 type  2   force =     0.98850281   -0.14307018   37.88327332
     atom   15 type  2   force =     0.03299089   -0.11679275  -38.26322351
     atom   16 type  1   force =     0.39705378    3.81097997    1.28291953
     atom   17 type  2   force =     1.32305995    2.12905935   37.85402996
     atom   18 type  2   force =    -0.16414381   -0.18399317  -38.70975428
     atom   19 type  1   force =     2.80441170   -2.35399108    2.09599950
     atom   20 type  2   force =     0.02433556   -0.04948233  -39.07538203
     atom   21 type  1   force =     0.54907034   -0.79056918   -0.50450370
     atom   22 type  2   force =     1.00942872   -2.29211070   37.96082077
     atom   23 type  2   force =    -0.11825643    0.21430276  -38.67563480
     atom   24 type  1   force =    -0.93173747    0.99089156   -1.81570052
     atom   25 type  2   force =     0.30921613   -0.02315719   28.69362868
     atom   26 type  2   force =    -0.01489338   -0.06961148  -38.13079464
     atom   27 type  1   force =     0.14266117    1.23945475   -0.57698082
     atom   28 type  2   force =    -0.52827159    1.52659790   37.58784729
     atom   29 type  2   force =     0.00825664    0.07498263  -38.41162793
     atom   30 type  1   force =    -0.15853577   -1.17053557    0.69989518
     atom   31 type  2   force =     1.13072243    0.17743092   37.94753290
     atom   32 type  2   force =    -0.31675975   -0.01775548  -38.26988346
     atom   33 type  1   force =     0.48548422   -1.56470071   -1.22927890
     atom   34 type  2   force =    -0.59203910   -1.46053108   38.19621824
     atom   35 type  2   force =    -0.06457525    0.06217851  -38.37356186
     atom   36 type  3   force =     0.07399446    0.09612354   50.47911100
     The local contribution  to forces
     atom    1 type  1   force =     0.19885065   -1.09156498   -1.31723666
     atom    2 type  2   force =     1.18466682    0.01839104  -37.89413234
     atom    3 type  2   force =     0.01818241    0.07548133   38.11021706
     atom    4 type  1   force =     0.52713151   -0.86260130    0.47759576
     atom    5 type  2   force =     0.80057080   -1.41771765  -37.81338895
     atom    6 type  2   force =    -0.15350297    0.25536019   38.12981729
     atom    7 type  1   force =     2.64057353    1.99473504   -1.62297014
     atom    8 type  2   force =     1.27835446   -0.16149460  -37.78470741
     atom    9 type  2   force =    -0.28444899    0.04244365   38.18251004
     atom   10 type  1   force =     1.04287962    0.99095219   -1.20357633
     atom   11 type  2   force =     0.43344584    1.70267334  -37.95734265
     atom   12 type  2   force =    -0.17003036   -0.19800792   38.16676669
     atom   13 type  1   force =    -1.11150646   -1.25064567    1.16984385
     atom   14 type  2   force =    -0.98797611    0.14703523  -37.62985448
     atom   15 type  2   force =    -0.03384188    0.12672256   38.02312769
     atom   16 type  1   force =    -0.39695314   -3.84652919   -1.24791633
     atom   17 type  2   force =    -1.31848980   -2.10843569  -37.61643178
     atom   18 type  2   force =     0.16377237    0.18612521   38.46506428
     atom   19 type  1   force =    -2.82369773    2.35443402   -2.06960074
     atom   20 type  2   force =    -0.02529830    0.06178066   38.83420245
     atom   21 type  1   force =    -0.54797095    0.76183288    0.50165212
     atom   22 type  2   force =    -1.00304407    2.29140991  -37.71895674
     atom   23 type  2   force =     0.11116782   -0.20139906   38.43223650
     atom   24 type  1   force =     0.92389463   -0.99731195    1.79603442
     atom   25 type  2   force =    -0.30199278    0.01961865  -28.98015095
     atom   26 type  2   force =     0.01284975    0.08030015   37.87344084
     atom   27 type  1   force =    -0.13760885   -1.24258790    0.57452231
     atom   28 type  2   force =     0.52781074   -1.51388226  -37.33138132
     atom   29 type  2   force =    -0.00782761   -0.06762297   38.16528795
     atom   30 type  1   force =     0.16348490    1.15198472   -0.70372632
     atom   31 type  2   force =    -1.12486772   -0.17763698  -37.70074670
     atom   32 type  2   force =     0.31127607    0.03061096   38.01965417
     atom   33 type  1   force =    -0.48440166    1.54858812    1.21234864
     atom   34 type  2   force =     0.59000693    1.46647649  -37.93897982
     atom   35 type  2   force =     0.06429816   -0.04958633   38.12965349
     atom   36 type  3   force =    -0.10899016   -0.09426431  -48.18823391
     The core correction contribution to forces
     atom    1 type  1   force =     0.00000000    0.00000000    0.00000000
     atom    2 type  2   force =     0.00011670    0.00018744    0.02132813
     atom    3 type  2   force =     0.00022357    0.00038379   -0.02077028
     atom    4 type  1   force =     0.00000000    0.00000000    0.00000000
     atom    5 type  2   force =    -0.00038059    0.00107057    0.02057137
     atom    6 type  2   force =     0.00009882   -0.00020718   -0.02090221
     atom    7 type  1   force =     0.00000000    0.00000000    0.00000000
     atom    8 type  2   force =    -0.00044383    0.00027975    0.02097375
     atom    9 type  2   force =     0.00065098    0.00062787   -0.02102167
     atom   10 type  1   force =     0.00000000    0.00000000    0.00000000
     atom   11 type  2   force =    -0.00004231   -0.00033945    0.02074460
     atom   12 type  2   force =     0.00064671    0.00095255   -0.02090066
     atom   13 type  1   force =     0.00000000    0.00000000    0.00000000
     atom   14 type  2   force =    -0.00001987   -0.00018659    0.02136804
     atom   15 type  2   force =    -0.00007090    0.00045519   -0.02057617
     atom   16 type  1   force =     0.00000000    0.00000000    0.00000000
     atom   17 type  2   force =     0.00036595    0.00093837    0.02069001
     atom   18 type  2   force =    -0.00019605   -0.00025685   -0.02082646
     atom   19 type  1   force =     0.00000000    0.00000000    0.00000000
     atom   20 type  2   force =    -0.00013197    0.00059580   -0.02120862
     atom   21 type  1   force =     0.00000000    0.00000000    0.00000000
     atom   22 type  2   force =     0.00015265   -0.00016606    0.02092571
     atom   23 type  2   force =    -0.00058061    0.00091499   -0.02086157
     atom   24 type  1   force =     0.00000000    0.00000000    0.00000000
     atom   25 type  2   force =     0.00043993   -0.00021138   -0.00988399
     atom   26 type  2   force =    -0.00009163    0.00050075   -0.02134239
     atom   27 type  1   force =     0.00000000    0.00000000    0.00000000
     atom   28 type  2   force =    -0.00001171    0.00083571    0.02146085
     atom   29 type  2   force =     0.00006538    0.00027361   -0.02079132
     atom   30 type  1   force =     0.00000000    0.00000000    0.00000000
     atom   31 type  2   force =     0.00024200    0.00028440    0.02096534
     atom   32 type  2   force =    -0.00053329    0.00071023   -0.02103512
     atom   33 type  1   force =     0.00000000    0.00000000    0.00000000
     atom   34 type  2   force =    -0.00013324    0.00027533    0.02160538
     atom   35 type  2   force =    -0.00005392    0.00083977   -0.02090907
     atom   36 type  3   force =    -0.00038787   -0.00000583    0.02461031
     The Hubbard contrib.    to forces
     atom    1 type  1   force =     0.00000000    0.00000000    0.00000000
     atom    2 type  2   force =     0.00000000    0.00000000    0.00000000
     atom    3 type  2   force =     0.00000000    0.00000000    0.00000000
     atom    4 type  1   force =     0.00000000    0.00000000    0.00000000
     atom    5 type  2   force =     0.00000000    0.00000000    0.00000000
     atom    6 type  2   force =     0.00000000    0.00000000    0.00000000
     atom    7 type  1   force =     0.00000000    0.00000000    0.00000000
     atom    8 type  2   force =     0.00000000    0.00000000    0.00000000
     atom    9 type  2   force =     0.00000000    0.00000000    0.00000000
     atom   10 type  1   force =     0.00000000    0.00000000    0.00000000
     atom   11 type  2   force =     0.00000000    0.00000000    0.00000000
     atom   12 type  2   force =     0.00000000    0.00000000    0.00000000
     atom   13 type  1   force =     0.00000000    0.00000000    0.00000000
     atom   14 type  2   force =     0.00000000    0.00000000    0.00000000
     atom   15 type  2   force =     0.00000000    0.00000000    0.00000000
     atom   16 type  1   force =     0.00000000    0.00000000    0.00000000
     atom   17 type  2   force =     0.00000000    0.00000000    0.00000000
     atom   18 type  2   force =     0.00000000    0.00000000    0.00000000
     atom   19 type  1   force =     0.00000000    0.00000000    0.00000000
     atom   20 type  2   force =     0.00000000    0.00000000    0.00000000
     atom   21 type  1   force =     0.00000000    0.00000000    0.00000000
     atom   22 type  2   force =     0.00000000    0.00000000    0.00000000
     atom   23 type  2   force =     0.00000000    0.00000000    0.00000000
     atom   24 type  1   force =     0.00000000    0.00000000    0.00000000
     atom   25 type  2   force =     0.00000000    0.00000000    0.00000000
     atom   26 type  2   force =     0.00000000    0.00000000    0.00000000
     atom   27 type  1   force =     0.00000000    0.00000000    0.00000000
     atom   28 type  2   force =     0.00000000    0.00000000    0.00000000
     atom   29 type  2   force =     0.00000000    0.00000000    0.00000000
     atom   30 type  1   force =     0.00000000    0.00000000    0.00000000
     atom   31 type  2   force =     0.00000000    0.00000000    0.00000000
     atom   32 type  2   force =     0.00000000    0.00000000    0.00000000
     atom   33 type  1   force =     0.00000000    0.00000000    0.00000000
     atom   34 type  2   force =     0.00000000    0.00000000    0.00000000
     atom   35 type  2   force =     0.00000000    0.00000000    0.00000000
     atom   36 type  3   force =     0.00000000    0.00000000    0.00000000
     The SCF correction term to forces
     atom    1 type  1   force =    -0.00000632    0.00001912   -0.00004750
     atom    2 type  2   force =    -0.00002439    0.00000826   -0.00003130
     atom    3 type  2   force =    -0.00001272   -0.00001205   -0.00001681
     atom    4 type  1   force =    -0.00001949    0.00000686   -0.00003777
     atom    5 type  2   force =    -0.00001150    0.00000730   -0.00002492
     atom    6 type  2   force =     0.00000005    0.00000901    0.00000136
     atom    7 type  1   force =    -0.00001162   -0.00001030   -0.00007694
     atom    8 type  2   force =    -0.00000666   -0.00002002   -0.00002560
     atom    9 type  2   force =    -0.00000308    0.00000182   -0.00002195
     atom   10 type  1   force =    -0.00001889   -0.00000638   -0.00008493
     atom   11 type  2   force =    -0.00001041    0.00000420   -0.00003146
     atom   12 type  2   force =    -0.00000156    0.00000039   -0.00001834
     atom   13 type  1   force =     0.00003368    0.00000877   -0.00003620
     atom   14 type  2   force =    -0.00000550    0.00001320   -0.00002943
     atom   15 type  2   force =     0.00000207   -0.00000840   -0.00000249
     atom   16 type  1   force =     0.00000326    0.00000699   -0.00002225
     atom   17 type  2   force =     0.00001228    0.00000713   -0.00002674
     atom   18 type  2   force =     0.00000243    0.00000791    0.00000527
     atom   19 type  1   force =     0.00000826   -0.00001903   -0.00005370
     atom   20 type  2   force =     0.00000913   -0.00000067   -0.00000699
     atom   21 type  1   force =     0.00001705    0.00000483   -0.00007036
     atom   22 type  2   force =     0.00001824   -0.00000592   -0.00003180
     atom   23 type  2   force =     0.00000679   -0.00000145   -0.00001162
     atom   24 type  1   force =    -0.00000304    0.00002711   -0.00006699
     atom   25 type  2   force =     0.00001943    0.00001546   -0.00004184
     atom   26 type  2   force =     0.00000584   -0.00000063   -0.00001495
     atom   27 type  1   force =     0.00001673    0.00001040   -0.00004235
     atom   28 type  2   force =    -0.00000282    0.00001566   -0.00002870
     atom   29 type  2   force =    -0.00000430    0.00001287   -0.00000772
     atom   30 type  1   force =    -0.00001876   -0.00002783   -0.00008297
     atom   31 type  2   force =     0.00001398   -0.00001981   -0.00002552
     atom   32 type  2   force =     0.00000262   -0.00000325   -0.00001398
     atom   33 type  1   force =     0.00000701   -0.00001348   -0.00009997
     atom   34 type  2   force =    -0.00000629   -0.00000833   -0.00003248
     atom   35 type  2   force =    -0.00000751    0.00000213   -0.00003137
     atom   36 type  3   force =     0.00002614    0.00002872   -0.00001711

     Total force =     0.006563     Total SCF correction =     0.000274
     Energy error            =      8.4E-05 Ry
     Gradient error          =      2.7E-03 Ry/Bohr

     bfgs converged in  22 scf cycles and  21 bfgs steps
     (criteria: energy <  1.0E-04 Ry, force <  1.0E-02 Ry/Bohr)

     End of BFGS Geometry Optimization

     Final energy             =   -2246.4497927854 Ry

     File ./MoS2-V-O.bfgs deleted, as requested
Begin final coordinates

ATOMIC_POSITIONS (angstrom)
Mo            6.5440420000        1.7229063163        2.7596188193
S             8.1185671257        0.8249001091        4.3641481099
S             8.1119512388        0.8134080734        1.1628518992
Mo            8.1029041178        4.4751328919        2.7114869730
S             6.5050380625        3.6395825376        4.3114220805
S             6.5310000341        3.5387788678        1.1184483486
Mo            6.4968081124        7.1586576368        2.6642912826
S             8.0605401505        6.2843078482        4.2983281091
S             8.1166980817        6.3015944703        1.1071295807
Mo            8.1180986204        9.9145647860        2.7622371427
S             6.5005921745        8.9241561021        4.3186953600
S             6.5685325076        9.0056845955        1.1219127151
Mo            3.4302380130        1.7570472212        2.7503028655
S             4.9702368138        0.7922225789        4.3434560252
S             4.9816090539        0.8128616136        1.1619764777
Mo            4.9742721223        4.5233998979        2.6638193795
S             3.4491775820        3.6477641431        4.3200359489
S             3.4184918746        3.5607849922        1.1091514387
Mo            3.4574113601        7.1608944289        2.6758776647
S             4.9713037807        6.2928014976        1.0462819250
Mo            4.9716074619        9.8832343672        2.7257565732
S             3.4460948292        8.9255798813        4.3259538490
S             3.3908176559        8.9930807617        1.1167403089
Mo            0.2224237142        1.7413241736        2.7510279694
S             1.8336848805        0.8222189594        4.2721425979
S             1.8314602104        0.8254433755        1.1860042558
Mo            1.8450011275        4.4712368252        2.7185240179
S             0.2410193336        3.5858154164        4.3224171317
S             0.2437425703        3.5568159571        1.1383179538
Mo            0.2388283983        7.1981661744        2.7320181370
S             1.8771430477        6.2834601913        4.3043276273
S             1.8335532833        6.3042269595        1.1182189507
Mo            1.8309488156        9.8835201597        2.7514712884
S             0.2446432793        9.0035481146        4.3592942149
S             0.2335207943        9.0218244281        1.1541032611
O             1.8110958946        0.8300000571        5.7725495889
End final coordinates



     Writing all to output data dir ./MoS2-V-O.save/
 
     init_run     :      4.69s CPU      5.20s WALL (       1 calls)
     electrons    :   1993.98s CPU   2257.14s WALL (      22 calls)
     update_pot   :     64.91s CPU     69.41s WALL (      21 calls)
     forces       :     59.26s CPU     68.35s WALL (      22 calls)

     Called by init_run:
     wfcinit      :      0.49s CPU      0.55s WALL (       1 calls)
     potinit      :      2.46s CPU      2.69s WALL (       1 calls)
     hinit0       :      0.44s CPU      0.46s WALL (       1 calls)

     Called by electrons:
     c_bands      :    294.82s CPU    302.05s WALL (     206 calls)
     sum_band     :    115.09s CPU    149.92s WALL (     206 calls)
     v_of_rho     :    195.37s CPU    239.31s WALL (     221 calls)
     newd         :     65.68s CPU     99.44s WALL (     221 calls)
     PAW_pot      :      8.76s CPU      8.80s WALL (     242 calls)
     mix_rho      :   1336.54s CPU   1482.49s WALL (     206 calls)

     Called by c_bands:
     init_us_2    :      4.73s CPU      5.07s WALL (     434 calls)
     init_us_2:cp :      4.72s CPU      5.07s WALL (     434 calls)
     regterg      :    279.40s CPU    286.27s WALL (     206 calls)

     Called by *egterg:
     rdiaghg      :     18.89s CPU     19.08s WALL (    1072 calls)
     h_psi        :    181.55s CPU    182.99s WALL (    1101 calls)
     s_psi        :     17.26s CPU     17.32s WALL (    1101 calls)
     g_psi        :      0.89s CPU      0.90s WALL (     894 calls)

     Called by h_psi:
     h_psi:calbec :     19.83s CPU     19.93s WALL (    1101 calls)
     vloc_psi     :    142.25s CPU    143.48s WALL (    1101 calls)
     add_vuspsi   :     17.19s CPU     17.28s WALL (    1101 calls)

     General routines
     calbec       :     28.96s CPU     29.12s WALL (    1416 calls)
     fft          :    132.22s CPU    153.30s WALL (   14763 calls)
     ffts         :    596.00s CPU    736.96s WALL (  327116 calls)
     fftw         :     89.94s CPU     90.60s WALL (  125898 calls)
     interpolate  :      2.75s CPU      3.15s WALL (     221 calls)
 
     Parallel routines
 
     PWSCF        :  35m32.13s CPU  40m14.09s WALL

 
   This run was terminated on:  13: 4:17   4Nov2023            

=------------------------------------------------------------------------------=
   JOB DONE.
=------------------------------------------------------------------------------=
