
     Program PWSCF v.7.2 starts on  1Nov2023 at 19:20: 2 

     This program is part of the open-source Quantum ESPRESSO suite
     for quantum simulation of materials; please cite
         "P. Giannozzi et al., J. Phys.:Condens. Matter 21 395502 (2009);
         "P. Giannozzi et al., J. Phys.:Condens. Matter 29 465901 (2017);
         "P. Giannozzi et al., J. Chem. Phys. 152 154105 (2020);
          URL http://www.quantum-espresso.org", 
     in publications or presentations arising from this work. More details at
     http://www.quantum-espresso.org/quote

     Parallel version (MPI & OpenMP), running on      48 processor cores
     Number of MPI processes:                48
     Threads/MPI process:                     1

     MPI processes distributed on     1 nodes
     58291 MiB available memory on the printing compute node when the environment starts
 
     Waiting for input...
     Reading input from standard input
Warning: card &CELL ignored
Warning: card CELL_DYNAMICS = 'BFGS', ignored
Warning: card CELL_DOFREE = '2DXY' ignored
Warning: card / ignored

     Current dimensions of program PWSCF are:
     Max number of different atomic species (ntypx) = 10
     Max number of k-points (npk) =  40000
     Max angular momentum in pseudopotentials (lmaxx) =  4
     file O.pbe-n-kjpaw_psl.0.1.UPF: wavefunction(s)  2P renormalized

     IMPORTANT: XC functional enforced from input :
     Exchange-correlation= RVV10
                           (   1   4  13   4  26   0   0)
     Any further DFT definition will be discarded
     Please, verify this is what you really want


     gamma-point specific algorithms are used
     signal trapping enabled: kill the code with -SIGUSR1 to stop cleanly the simulation 
 
     R & G space division:  proc/nbgrp/npool/nimage =      48
     Subspace diagonalization in iterative solution of the eigenvalue problem:
     one sub-group per band group will be used
     scalapack distributed-memory algorithm (size of sub-group:  2*  2 procs)

 
     Parallelization info
     --------------------
     sticks:   dense  smooth     PW     G-vecs:    dense   smooth      PW
     Min         396     194     47               101632    35090    4376
     Max         398     196     50               101674    35128    4410
     Sum       19091    9389   2349              4879585  1685513  210763
 
     Using Slab Decomposition
 


     bravais-lattice index     =            0
     lattice parameter (alat)  =      17.8707  a.u.
     unit-cell volume          =   17436.2743 (a.u.)^3
     number of atoms/cell      =           36
     number of atomic types    =            3
     number of electrons       =       312.00
     number of Kohn-Sham states=          187
     kinetic-energy cutoff     =      80.0000  Ry
     charge density cutoff     =     650.0000  Ry
     scf convergence threshold =      1.0E-06
     mixing beta               =       0.7000
     number of iterations used =            8  local-TF  mixing
     energy convergence thresh.=      1.0E-04
     force convergence thresh. =      1.0E-02
     Exchange-correlation= RVV10
                           (   1   4  13   4  26   0   0)
     nstep                     =          200


     celldm(1)=  17.870686  celldm(2)=   0.000000  celldm(3)=   0.000000
     celldm(4)=   0.000000  celldm(5)=   0.000000  celldm(6)=   0.000000

     crystal axes: (cart. coord. in units of alat)
               a(1) = (   1.000000   0.000000   0.000000 )  
               a(2) = (   0.000000   1.155671   0.000000 )  
               a(3) = (   0.000000   0.000000   2.643601 )  

     reciprocal axes: (cart. coord. in units 2 pi/alat)
               b(1) = (  1.000000  0.000000  0.000000 )  
               b(2) = (  0.000000  0.865298  0.000000 )  
               b(3) = (  0.000000  0.000000  0.378272 )  


     PseudoPot. # 1 for Mo read from file:
     ../pseudo/Mo_ONCV_PBE-1.0.oncvpsp.upf
     MD5 check sum: 1b5d28e075c9ccadda658a603575cd1f
     Pseudo is Norm-conserving, Zval = 14.0
     Generated using ONCVPSP code by D. R. Hamann
     Using radial grid of 1526 points,  6 beta functions with: 
                l(1) =   0
                l(2) =   0
                l(3) =   1
                l(4) =   1
                l(5) =   2
                l(6) =   2

     PseudoPot. # 2 for S  read from file:
     ../pseudo/s_pbe_v1.4.uspp.F.UPF
     MD5 check sum: 88d86576ff6df21479756cfb9bdac1df
     Pseudo is Ultrasoft + core correction, Zval =  6.0
     Generated by new atomic code, or converted to UPF format
     Using radial grid of  907 points,  6 beta functions with: 
                l(1) =   0
                l(2) =   0
                l(3) =   1
                l(4) =   1
                l(5) =   2
                l(6) =   2
     Q(r) pseudized with  8 coefficients,  rinner =    1.300   1.300   1.300
                                                       1.300   1.300

     PseudoPot. # 3 for O  read from file:
     ../pseudo/O.pbe-n-kjpaw_psl.0.1.UPF
     MD5 check sum: 0234752ac141de4415c5fc33072bef88
     Pseudo is Projector augmented-wave + core cor, Zval =  6.0
     Generated using "atomic" code by A. Dal Corso  v.5.0.99 svn rev. 10869
     Shape of augmentation charge: BESSEL
     Using radial grid of 1095 points,  4 beta functions with: 
                l(1) =   0
                l(2) =   0
                l(3) =   1
                l(4) =   1
     Q(r) pseudized with 0 coefficients 


     atomic species   valence    mass     pseudopotential
        Mo            14.00    95.94000     Mo( 1.00)
        S              6.00    32.06500     S ( 1.00)
        O              6.00    15.99940     O ( 1.00)

     No symmetry found



   Cartesian axes

     site n.     atom                  positions (alat units)
         1           Mo  tau(   1) = (   0.6952221   0.1890506   0.2985846  )
         2           S   tau(   2) = (   0.8646417   0.0856217   0.4689279  )
         3           S   tau(   3) = (   0.8663890   0.0857843   0.1351291  )
         4           Mo  tau(   4) = (   0.8560186   0.4753274   0.2873942  )
         5           S   tau(   5) = (   0.6873294   0.3936244   0.4596353  )
         6           S   tau(   6) = (   0.6929804   0.3713468   0.1185692  )
         7           Mo  tau(   7) = (   0.6862796   0.7633098   0.2825370  )
         8           S   tau(   8) = (   0.8545980   0.6708292   0.4486168  )
         9           S   tau(   9) = (   0.8545123   0.6666874   0.1146125  )
        10           Mo  tau(  10) = (   0.8629403   1.0471007   0.3006803  )
        11           S   tau(  11) = (   0.6868280   0.9456650   0.4634891  )
        12           S   tau(  12) = (   0.6998113   0.9568511   0.1205389  )
        13           Mo  tau(  13) = (   0.3618216   0.1847309   0.2935964  )
        14           S   tau(  14) = (   0.5260962   0.0863870   0.4600448  )
        15           S   tau(  15) = (   0.5348379   0.0894875   0.1297123  )
        16           Mo  tau(  16) = (   0.5265817   0.4772436   0.2784130  )
        17           S   tau(  17) = (   0.3624753   0.3882513   0.4525556  )
        18           S   tau(  18) = (   0.3635411   0.3752055   0.1119148  )
        19           Mo  tau(  19) = (   0.3652268   0.7630864   0.2781795  )
        20           S   tau(  20) = (   0.5269494   0.6690381   0.1096838  )
        21           Mo  tau(  21) = (   0.5300192   1.0470394   0.2900995  )
        22           S   tau(  22) = (   0.3670346   0.9457522   0.4574073  )
        23           S   tau(  23) = (   0.3604225   0.9585725   0.1159032  )
        24           Mo  tau(  24) = (   0.0313099   0.1847895   0.3013130  )
        25           S   tau(  25) = (   0.1956761   0.0838230   0.4650863  )
        26           S   tau(  26) = (   0.1967693   0.0903508   0.1278874  )
        27           Mo  tau(  27) = (   0.1967578   0.4753919   0.2813011  )
        28           S   tau(  28) = (   0.0287851   0.3864324   0.4586755  )
        29           S   tau(  29) = (   0.0244514   0.3729871   0.1239344  )
        30           Mo  tau(  30) = (   0.0286728   0.7631204   0.2856894  )
        31           S   tau(  31) = (   0.2011512   0.6675435   0.4465001  )
        32           S   tau(  32) = (   0.1969214   0.6672839   0.1104564  )
        33           Mo  tau(  33) = (   0.1950294   1.0511147   0.2932237  )
        34           S   tau(  34) = (   0.0312912   0.9612169   0.4667423  )
        35           S   tau(  35) = (   0.0292670   0.9563028   0.1216485  )
        36           O   tau(  36) = (   0.4444444   0.7704471   0.5792558  )

     number of k points=     1  Gaussian smearing, width (Ry)=  0.0100
                       cart. coord. in units 2pi/alat
        k(    1) = (   0.0000000   0.0000000   0.0000000), wk =   2.0000000

     Dense  grid:  2439793 G-vectors     FFT dimensions: ( 150, 180, 384)

     Smooth grid:   842757 G-vectors     FFT dimensions: ( 108, 120, 270)

     Estimated max dynamical RAM per process >     269.22 MB

     Estimated total dynamical RAM >      12.62 GB

     Initial potential from superposition of free atoms

     starting charge     311.9873, renormalised to     312.0000

     negative rho (up, down):  2.753E-04 0.000E+00


---------------------------------------------------------------------------------
Carrying out rVV10 run using the following parameters:
Nqs =      20    Nr_points =    1024   r_max =   100.000
b_value =  6.30000    beta =  0.00901
     q_mesh =  0.00010000  0.00030000  0.00058939  0.00100810
               0.00161396  0.00249058  0.00375900  0.00559430
               0.00824984  0.01209221  0.01765183  0.02569619
               0.03733578  0.05417739  0.07854596  0.11380545
               0.16482331  0.23864234  0.34545298  0.50000000

Gradients computed in Reciprocal space

---------------------------------------------------------------------------------


     Starting wfcs are  216 randomized atomic wfcs
     Checking if some PAW data can be deallocated... 

     total cpu time spent up to now is        6.0 secs

     Self-consistent Calculation

     iteration #  1     ecut=    80.00 Ry     beta= 0.70
     Davidson diagonalization with overlap
     ethr =  1.00E-02,  avg # of iterations =  2.0

     Threshold (ethr) on eigenvalues was too large:
     Diagonalizing with lowered threshold

     Davidson diagonalization with overlap
     ethr =  6.59E-04,  avg # of iterations =  2.0

     negative rho (up, down):  1.091E-04 0.000E+00

     total cpu time spent up to now is       24.4 secs

     total energy              =   -2245.97456112 Ry
     estimated scf accuracy    <       2.23258165 Ry

     iteration #  2     ecut=    80.00 Ry     beta= 0.70
     Davidson diagonalization with overlap
     ethr =  7.16E-04,  avg # of iterations =  2.0

     negative rho (up, down):  3.835E-06 0.000E+00

     total cpu time spent up to now is       35.0 secs

     total energy              =   -2245.81684868 Ry
     estimated scf accuracy    <      10.22055119 Ry

     iteration #  3     ecut=    80.00 Ry     beta= 0.70
     Davidson diagonalization with overlap
     ethr =  7.16E-04,  avg # of iterations =  2.0

     total cpu time spent up to now is       39.4 secs

     total energy              =   -2246.16823012 Ry
     estimated scf accuracy    <       0.46744323 Ry

     iteration #  4     ecut=    80.00 Ry     beta= 0.70
     Davidson diagonalization with overlap
     ethr =  1.50E-04,  avg # of iterations =  2.0

     total cpu time spent up to now is       43.4 secs

     total energy              =   -2246.20867413 Ry
     estimated scf accuracy    <       0.12431189 Ry

     iteration #  5     ecut=    80.00 Ry     beta= 0.70
     Davidson diagonalization with overlap
     ethr =  3.98E-05,  avg # of iterations = 20.0

     total cpu time spent up to now is       48.0 secs

     total energy              =   -2246.21623574 Ry
     estimated scf accuracy    <       0.02485500 Ry

     iteration #  6     ecut=    80.00 Ry     beta= 0.70
     Davidson diagonalization with overlap
     ethr =  7.97E-06,  avg # of iterations =  9.0

     total cpu time spent up to now is       52.1 secs

     total energy              =   -2246.21593555 Ry
     estimated scf accuracy    <       0.01527085 Ry

     iteration #  7     ecut=    80.00 Ry     beta= 0.70
     Davidson diagonalization with overlap
     ethr =  4.89E-06,  avg # of iterations =  2.0

     total cpu time spent up to now is       55.7 secs

     total energy              =   -2246.21533025 Ry
     estimated scf accuracy    <       0.00921752 Ry

     iteration #  8     ecut=    80.00 Ry     beta= 0.70
     Davidson diagonalization with overlap
     ethr =  2.95E-06,  avg # of iterations =  9.0

     total cpu time spent up to now is       61.2 secs

     total energy              =   -2246.21465109 Ry
     estimated scf accuracy    <       0.00676917 Ry

     iteration #  9     ecut=    80.00 Ry     beta= 0.70
     Davidson diagonalization with overlap
     ethr =  2.17E-06,  avg # of iterations =  2.0

     negative rho (up, down):  7.786E-03 0.000E+00

     total cpu time spent up to now is       67.7 secs

     total energy              =   -2246.21380709 Ry
     estimated scf accuracy    <       0.00409378 Ry

     iteration # 10     ecut=    80.00 Ry     beta= 0.70
     Davidson diagonalization with overlap
     ethr =  1.31E-06,  avg # of iterations =  2.0

     negative rho (up, down):  1.468E-02 0.000E+00

     total cpu time spent up to now is       74.3 secs

     total energy              =   -2246.21361969 Ry
     estimated scf accuracy    <       0.00219807 Ry

     iteration # 11     ecut=    80.00 Ry     beta= 0.70
     Davidson diagonalization with overlap
     ethr =  7.05E-07,  avg # of iterations =  1.0

     negative rho (up, down):  1.806E-02 0.000E+00

     total cpu time spent up to now is       82.0 secs

     total energy              =   -2246.21365934 Ry
     estimated scf accuracy    <       0.00095781 Ry

     iteration # 12     ecut=    80.00 Ry     beta= 0.70
     Davidson diagonalization with overlap
     ethr =  3.07E-07,  avg # of iterations =  2.0

     negative rho (up, down):  1.037E-02 0.000E+00

     total cpu time spent up to now is       88.8 secs

     total energy              =   -2246.21364135 Ry
     estimated scf accuracy    <       0.00022628 Ry

     iteration # 13     ecut=    80.00 Ry     beta= 0.70
     Davidson diagonalization with overlap
     ethr =  7.25E-08,  avg # of iterations =  5.0

     negative rho (up, down):  3.018E-03 0.000E+00

     total cpu time spent up to now is       97.4 secs

     total energy              =   -2246.21366666 Ry
     estimated scf accuracy    <       0.00006924 Ry

     iteration # 14     ecut=    80.00 Ry     beta= 0.70
     Davidson diagonalization with overlap
     ethr =  2.22E-08,  avg # of iterations =  5.0

     negative rho (up, down):  2.177E-03 0.000E+00

     total cpu time spent up to now is      109.1 secs

     total energy              =   -2246.21370776 Ry
     estimated scf accuracy    <       0.00003625 Ry

     iteration # 15     ecut=    80.00 Ry     beta= 0.70
     Davidson diagonalization with overlap
     ethr =  1.16E-08,  avg # of iterations =  2.0

     negative rho (up, down):  1.221E-03 0.000E+00

     total cpu time spent up to now is      117.6 secs

     total energy              =   -2246.21371249 Ry
     estimated scf accuracy    <       0.00001291 Ry

     iteration # 16     ecut=    80.00 Ry     beta= 0.70
     Davidson diagonalization with overlap
     ethr =  4.14E-09,  avg # of iterations =  4.0

     negative rho (up, down):  7.593E-04 0.000E+00

     total cpu time spent up to now is      127.1 secs

     total energy              =   -2246.21372620 Ry
     estimated scf accuracy    <       0.00000748 Ry

     iteration # 17     ecut=    80.00 Ry     beta= 0.70
     Davidson diagonalization with overlap
     ethr =  2.40E-09,  avg # of iterations =  4.0

     negative rho (up, down):  5.468E-04 0.000E+00

     total cpu time spent up to now is      134.7 secs

     total energy              =   -2246.21372825 Ry
     estimated scf accuracy    <       0.00000247 Ry

     iteration # 18     ecut=    80.00 Ry     beta= 0.70
     Davidson diagonalization with overlap
     ethr =  7.92E-10,  avg # of iterations =  4.0

     negative rho (up, down):  1.642E-04 0.000E+00

     total cpu time spent up to now is      138.2 secs

     End of self-consistent calculation

          k = 0.0000 0.0000 0.0000 (105382 PWs)   bands (ev):

   -63.0654 -63.0450 -63.0385 -63.0302 -63.0240 -63.0185 -63.0111 -63.0067
   -63.0014 -62.9883 -62.9820 -62.9491 -37.4314 -37.3643 -37.3346 -37.3198
   -37.3131 -37.2868 -37.2688 -37.2613 -37.2480 -37.2391 -37.2311 -37.2308
   -37.2199 -37.2129 -37.2048 -37.1973 -37.1965 -37.1915 -37.1885 -37.1857
   -37.1818 -37.1710 -37.1657 -37.1566 -37.1305 -37.1157 -37.1030 -37.0980
   -37.0885 -37.0759 -37.0550 -37.0364 -37.0140 -36.9905 -36.9605 -36.9535
   -17.7233 -16.1128 -15.3436 -15.2890 -15.1225 -15.0678 -14.9389 -14.6684
   -14.6219 -14.5960 -14.5657 -14.5466 -14.5035 -14.4964 -14.4343 -14.3101
   -14.2817 -14.2759 -14.2564 -14.1870 -14.0367 -14.0267 -13.9971 -13.9602
    -7.8268  -7.6560  -7.4610  -7.4572  -7.4373  -7.3796  -7.3693  -7.2945
    -7.0159  -6.9940  -6.9307  -6.9082  -6.8419  -6.6999  -6.6424  -6.6274
    -6.5696  -6.4539  -6.4300  -6.1823  -6.1164  -6.0708  -6.0399  -5.9986
    -5.9327  -5.9226  -5.8773  -5.8416  -5.8258  -5.7810  -5.6945  -5.6852
    -5.6320  -5.5817  -5.5397  -5.3393  -5.3305  -5.2385  -5.1935  -5.1676
    -5.0984  -5.0663  -5.0132  -4.8680  -4.7089  -4.5127  -4.4866  -4.4694
    -4.4022  -4.3795  -4.2701  -4.1569  -4.0394  -4.0282  -3.9430  -3.8978
    -3.8635  -3.8336  -3.7483  -3.7015  -3.6782  -3.6459  -3.6232  -3.5957
    -3.5569  -3.5292  -3.3722  -3.2780  -3.1928  -3.0888  -3.0162  -2.9985
    -2.9479  -2.9009  -2.8552  -2.8276  -2.8016  -2.7755  -2.6417  -2.4059
    -2.2155  -2.1813  -1.9326  -1.6323  -1.5845  -0.9675  -0.7852  -0.3569
    -0.3026  -0.2651  -0.2090  -0.1287  -0.0195  -0.0006   0.0612   0.0880
     0.1298   0.1919   0.2416   0.2891   0.3675   0.3731   0.4112   0.4301
     0.4962   0.5661   0.5839   0.5975   0.6485   0.6833   0.7035   0.7457
     0.8229   0.8627   0.9608

     the Fermi energy is    -1.6083 ev

!    total energy              =   -2246.21372538 Ry
     estimated scf accuracy    <       0.00000026 Ry
     smearing contrib. (-TS)   =      -0.01096029 Ry
     internal energy E=F+TS    =   -2246.20276508 Ry

     The total energy is F=E-TS. E is the sum of the following terms:
     one-electron contribution =  -18411.03474993 Ry
     hartree contribution      =    9192.94582706 Ry
     xc contribution           =    -391.71342744 Ry
     ewald contribution        =    7373.47626121 Ry
     one-center paw contrib.   =      -9.87667598 Ry

     convergence has been achieved in  18 iterations

     negative rho (up, down):  1.642E-04 0.000E+00

     Forces acting on atoms (cartesian axes, Ry/au):

     atom    1 type  1   force =     0.01394508   -0.02563276    0.00659571
     atom    2 type  2   force =    -0.01509096    0.01703925   -0.00055333
     atom    3 type  2   force =    -0.01149768    0.00960632   -0.00226571
     atom    4 type  1   force =     0.00422368    0.00383758   -0.00203219
     atom    5 type  2   force =    -0.00248749   -0.00547776   -0.00637991
     atom    6 type  2   force =     0.00036209    0.01043903    0.00036777
     atom    7 type  1   force =     0.01378787   -0.01429999   -0.00114951
     atom    8 type  2   force =     0.00182652   -0.00100850    0.01575009
     atom    9 type  2   force =     0.01128409    0.00653361    0.01177099
     atom   10 type  1   force =    -0.01226177    0.00876380   -0.02580850
     atom   11 type  2   force =     0.00794754   -0.00088387   -0.01168184
     atom   12 type  2   force =    -0.00224591    0.00093483    0.00452696
     atom   13 type  1   force =     0.00522041    0.00435932   -0.00742341
     atom   14 type  2   force =     0.00876049    0.00220185    0.01349177
     atom   15 type  2   force =    -0.01335657    0.00520964   -0.01125592
     atom   16 type  1   force =     0.00688082    0.00308886   -0.00153114
     atom   17 type  2   force =     0.00730840    0.00029543    0.00269479
     atom   18 type  2   force =    -0.00415518   -0.00722663    0.01346154
     atom   19 type  1   force =    -0.00090718   -0.01026021    0.03711674
     atom   20 type  2   force =     0.00354707   -0.00603655    0.00089363
     atom   21 type  1   force =    -0.00361364    0.00087970    0.00645184
     atom   22 type  2   force =     0.02527160   -0.03687594    0.03979229
     atom   23 type  2   force =    -0.00004221    0.00206677    0.00772323
     atom   24 type  1   force =    -0.00976168   -0.00199965   -0.02187620
     atom   25 type  2   force =     0.01698153    0.01958940    0.00683708
     atom   26 type  2   force =    -0.01135781   -0.00250139   -0.00282968
     atom   27 type  1   force =    -0.00359513    0.00083308    0.00585331
     atom   28 type  2   force =     0.00068010   -0.00013077   -0.00412236
     atom   29 type  2   force =     0.00308104   -0.00023083   -0.00240876
     atom   30 type  1   force =    -0.00704142    0.00465762   -0.00041455
     atom   31 type  2   force =    -0.00806572    0.00378410    0.00894112
     atom   32 type  2   force =    -0.00662066    0.00535590    0.00727616
     atom   33 type  1   force =     0.00271801   -0.00529267   -0.01836491
     atom   34 type  2   force =     0.00103334   -0.04251004   -0.01017739
     atom   35 type  2   force =    -0.00632493    0.00946700    0.01261392
     atom   36 type  3   force =    -0.01643377    0.04142448   -0.07188362
     The non-local contrib.  to forces
     atom    1 type  1   force =     0.00048936    0.03176669   -0.01110444
     atom    2 type  2   force =    -0.01029843    0.00145505   -0.27331199
     atom    3 type  2   force =    -0.01448185   -0.00263040    0.26880589
     atom    4 type  1   force =    -0.00030173    0.00604720    0.00491024
     atom    5 type  2   force =     0.00632175   -0.03437504   -0.25821371
     atom    6 type  2   force =    -0.00423634    0.01092206    0.26443250
     atom    7 type  1   force =    -0.01168492   -0.00162031   -0.02394453
     atom    8 type  2   force =     0.00729546   -0.00404899   -0.25769375
     atom    9 type  2   force =     0.00653426   -0.00387914    0.27910648
     atom   10 type  1   force =     0.00059745    0.00622269   -0.00129580
     atom   11 type  2   force =     0.01663177    0.01361211   -0.27053410
     atom   12 type  2   force =    -0.01390931   -0.01638382    0.26340963
     atom   13 type  1   force =    -0.00172443    0.02452042   -0.00601544
     atom   14 type  2   force =     0.00999732   -0.00933728   -0.26674409
     atom   15 type  2   force =    -0.01332289   -0.00524979    0.26045729
     atom   16 type  1   force =    -0.00249707    0.02536160   -0.02922687
     atom   17 type  2   force =     0.00009755   -0.03010323   -0.25601853
     atom   18 type  2   force =    -0.00230908   -0.00292827    0.27351827
     atom   19 type  1   force =     0.01223708   -0.00246965   -0.01668562
     atom   20 type  2   force =     0.00055114   -0.02076252    0.26587799
     atom   21 type  1   force =    -0.00586908    0.01862028    0.01147889
     atom   22 type  2   force =     0.08936673   -0.20913249   -0.13372756
     atom   23 type  2   force =     0.00520523   -0.02007450    0.27127875
     atom   24 type  1   force =     0.00475429    0.01187206   -0.01022244
     atom   25 type  2   force =     0.00867786    0.00595932   -0.26216746
     atom   26 type  2   force =    -0.00340394   -0.01411316    0.26239908
     atom   27 type  1   force =    -0.00167503    0.01007925    0.00899881
     atom   28 type  2   force =    -0.00189860   -0.02301101   -0.27444922
     atom   29 type  2   force =     0.00685743    0.00429441    0.26162989
     atom   30 type  1   force =     0.00055825    0.01220726    0.00821942
     atom   31 type  2   force =    -0.01106926   -0.00561462   -0.27318575
     atom   32 type  2   force =     0.00018373   -0.00320500    0.27558723
     atom   33 type  1   force =    -0.00013536    0.00868007    0.00522973
     atom   34 type  2   force =    -0.00527894   -0.03753742   -0.27394010
     atom   35 type  2   force =     0.00088988   -0.00872836    0.27014342
     atom   36 type  3   force =    -0.16814954    0.40362934   -0.55251349
     The ionic contribution  to forces
     atom    1 type  1   force =     0.67108313    0.24149374    4.66712574
     atom    2 type  2   force =    -0.56321908    0.59898459   39.08634249
     atom    3 type  2   force =    -0.12875578    0.09230330  -36.56807996
     atom    4 type  1   force =     0.42419965   -0.05526579   -0.60320610
     atom    5 type  2   force =    -0.58562389    0.87599873   38.40118641
     atom    6 type  2   force =     0.43338630   -0.65006178  -38.59747885
     atom    7 type  1   force =    -0.86702404   -2.83443317   -0.53585585
     atom    8 type  2   force =    -0.45730653   -0.24016191   36.91646182
     atom    9 type  2   force =     0.43737733   -0.11536906  -38.67885366
     atom   10 type  1   force =    -0.74838311    0.35155609    4.38999258
     atom   11 type  2   force =     0.84460293   -0.48303605   38.28660038
     atom   12 type  2   force =     0.61778008    0.87363226  -38.62673110
     atom   13 type  1   force =     0.33593513    1.03009201    1.68668100
     atom   14 type  2   force =     0.18307860    0.46348109   38.20339315
     atom   15 type  2   force =     0.19906801    0.05831178  -37.37991197
     atom   16 type  1   force =     0.40235717    2.37780388   -1.83763189
     atom   17 type  2   force =     0.59459419    0.54860049   37.44751571
     atom   18 type  2   force =    -0.20483910   -0.83391124  -39.20226715
     atom   19 type  1   force =     1.49742593   -2.55942336   -4.83434882
     atom   20 type  2   force =     0.33836066   -0.35171673  -39.52674739
     atom   21 type  1   force =     0.55921875    1.80541119   -1.33773193
     atom   22 type  2   force =    -0.95966637    1.55442604   36.03704402
     atom   23 type  2   force =    -0.18199882    0.91137455  -39.23185380
     atom   24 type  1   force =    -0.69335419    1.16022378    4.92738615
     atom   25 type  2   force =     0.42624711    0.60631742   39.02010021
     atom   26 type  2   force =    -0.36238184    0.16003239  -37.86128317
     atom   27 type  1   force =    -0.69716269   -0.62092331   -3.96914119
     atom   28 type  2   force =    -0.10248286    0.67681166   37.96120947
     atom   29 type  2   force =    -0.30731863   -0.54233598  -37.77849129
     atom   30 type  1   force =    -0.97191860   -0.92606772   -1.77323142
     atom   31 type  2   force =    -0.63182474   -0.91046667   36.09808328
     atom   32 type  2   force =    -0.67605888   -0.11897309  -39.47573483
     atom   33 type  1   force =    -0.02700562    0.25452196    0.29329721
     atom   34 type  2   force =    -0.16420608   -1.01925571   38.99982296
     atom   35 type  2   force =    -0.38194175    0.60603601  -38.45082462
     atom   36 type  3   force =     1.74775764   -2.98601140   43.84716241
     The local contribution  to forces
     atom    1 type  1   force =    -0.65759668   -0.29887209   -4.64946511
     atom    2 type  2   force =     0.55818049   -0.58332267  -38.83476153
     atom    3 type  2   force =     0.13104247   -0.08012002   36.31790681
     atom    4 type  1   force =    -0.41973295    0.05311245    0.59613116
     atom    5 type  2   force =     0.57748421   -0.84906533  -38.17034244
     atom    6 type  2   force =    -0.42918723    0.65071897   38.35443874
     atom    7 type  1   force =     0.89243858    2.82148169    0.55841698
     atom    8 type  2   force =     0.45223522    0.24265729  -36.66396431
     atom    9 type  2   force =    -0.43254179    0.12551738   38.43269003
     atom   10 type  1   force =     0.73542827   -0.34899316   -4.41458218
     atom   11 type  2   force =    -0.85208993    0.46988228  -38.04962870
     atom   12 type  2   force =    -0.60734645   -0.85766851   38.38873213
     atom   13 type  1   force =    -0.32889557   -1.05011512   -1.68804481
     atom   14 type  2   force =    -0.18377873   -0.45195041  -37.94426156
     atom   15 type  2   force =    -0.19980534   -0.04825204   37.12879857
     atom   16 type  1   force =    -0.39286157   -2.39981318    1.86521399
     atom   17 type  2   force =    -0.58748261   -0.51992898  -37.20974806
     atom   18 type  2   force =     0.20301808    0.83016961   38.96328925
     atom   19 type  1   force =    -1.51024223    2.55138693    4.88786803
     atom   20 type  2   force =    -0.33543869    0.36560959   39.28310104
     atom   21 type  1   force =    -0.55678874   -1.82305314    1.33238182
     atom   22 type  2   force =     0.89991909   -1.39164457  -35.87866740
     atom   23 type  2   force =     0.17729392   -0.89080374   38.98931406
     atom   24 type  1   force =     0.67873566   -1.17397940   -4.93902413
     atom   25 type  2   force =    -0.41788832   -0.59220597  -38.77209827
     atom   26 type  2   force =     0.35455161   -0.14915795   37.61689768
     atom   27 type  1   force =     0.69520713    0.61160189    3.96588705
     atom   28 type  2   force =     0.10486575   -0.65568324  -37.71212988
     atom   29 type  2   force =     0.30408553    0.53856934   37.53500315
     atom   30 type  1   force =     0.96404559    0.91839821    1.76444475
     atom   31 type  2   force =     0.63345470    0.91932210  -35.83829310
     atom   32 type  2   force =     0.66955210    0.12726782   39.22855721
     atom   33 type  1   force =     0.02974831   -0.26837056   -0.31704834
     atom   34 type  2   force =     0.16984895    1.01311267  -38.75749181
     atom   35 type  2   force =     0.37489672   -0.58877276   38.21435076
     atom   36 type  3   force =    -1.59782608    2.62825234  -43.37300238
     The core correction contribution to forces
     atom    1 type  1   force =     0.00000000    0.00000000    0.00000000
     atom    2 type  2   force =     0.00024675   -0.00009108    0.02093927
     atom    3 type  2   force =     0.00065434    0.00003600   -0.02082711
     atom    4 type  1   force =     0.00000000    0.00000000    0.00000000
     atom    5 type  2   force =    -0.00064930    0.00195903    0.02073021
     atom    6 type  2   force =     0.00041273   -0.00108727   -0.02094368
     atom    7 type  1   force =     0.00000000    0.00000000    0.00000000
     atom    8 type  2   force =    -0.00036369    0.00052137    0.02073958
     atom    9 type  2   force =    -0.00009447    0.00024825   -0.02111521
     atom   10 type  1   force =     0.00000000    0.00000000    0.00000000
     atom   11 type  2   force =    -0.00113560   -0.00129656    0.02164631
     atom   12 type  2   force =     0.00121510    0.00136831   -0.02085622
     atom   13 type  1   force =     0.00000000    0.00000000    0.00000000
     atom   14 type  2   force =    -0.00050364    0.00002141    0.02088745
     atom   15 type  2   force =     0.00074056    0.00033845   -0.02055111
     atom   16 type  1   force =     0.00000000    0.00000000    0.00000000
     atom   17 type  2   force =     0.00010257    0.00169518    0.02070787
     atom   18 type  2   force =    -0.00001192   -0.00051849   -0.02102003
     atom   19 type  1   force =     0.00000000    0.00000000    0.00000000
     atom   20 type  2   force =     0.00010356    0.00081420   -0.02124973
     atom   21 type  1   force =     0.00000000    0.00000000    0.00000000
     atom   22 type  2   force =    -0.00426288    0.00941827    0.01493949
     atom   23 type  2   force =    -0.00045697    0.00156433   -0.02104820
     atom   24 type  1   force =     0.00000000    0.00000000    0.00000000
     atom   25 type  2   force =    -0.00009281   -0.00043276    0.02084537
     atom   26 type  2   force =    -0.00013460    0.00075357   -0.02084652
     atom   27 type  1   force =     0.00000000    0.00000000    0.00000000
     atom   28 type  2   force =     0.00017146    0.00174921    0.02100693
     atom   29 type  2   force =    -0.00056884   -0.00073686   -0.02048699
     atom   30 type  1   force =     0.00000000    0.00000000    0.00000000
     atom   31 type  2   force =     0.00133967    0.00048319    0.02216568
     atom   32 type  2   force =    -0.00031294    0.00024258   -0.02113493
     atom   33 type  1   force =     0.00000000    0.00000000    0.00000000
     atom   34 type  2   force =     0.00055872    0.00118015    0.02127065
     atom   35 type  2   force =    -0.00024796    0.00088734   -0.02105421
     atom   36 type  3   force =     0.00177049   -0.00446573    0.00617205
     The Hubbard contrib.    to forces
     atom    1 type  1   force =     0.00000000    0.00000000    0.00000000
     atom    2 type  2   force =     0.00000000    0.00000000    0.00000000
     atom    3 type  2   force =     0.00000000    0.00000000    0.00000000
     atom    4 type  1   force =     0.00000000    0.00000000    0.00000000
     atom    5 type  2   force =     0.00000000    0.00000000    0.00000000
     atom    6 type  2   force =     0.00000000    0.00000000    0.00000000
     atom    7 type  1   force =     0.00000000    0.00000000    0.00000000
     atom    8 type  2   force =     0.00000000    0.00000000    0.00000000
     atom    9 type  2   force =     0.00000000    0.00000000    0.00000000
     atom   10 type  1   force =     0.00000000    0.00000000    0.00000000
     atom   11 type  2   force =     0.00000000    0.00000000    0.00000000
     atom   12 type  2   force =     0.00000000    0.00000000    0.00000000
     atom   13 type  1   force =     0.00000000    0.00000000    0.00000000
     atom   14 type  2   force =     0.00000000    0.00000000    0.00000000
     atom   15 type  2   force =     0.00000000    0.00000000    0.00000000
     atom   16 type  1   force =     0.00000000    0.00000000    0.00000000
     atom   17 type  2   force =     0.00000000    0.00000000    0.00000000
     atom   18 type  2   force =     0.00000000    0.00000000    0.00000000
     atom   19 type  1   force =     0.00000000    0.00000000    0.00000000
     atom   20 type  2   force =     0.00000000    0.00000000    0.00000000
     atom   21 type  1   force =     0.00000000    0.00000000    0.00000000
     atom   22 type  2   force =     0.00000000    0.00000000    0.00000000
     atom   23 type  2   force =     0.00000000    0.00000000    0.00000000
     atom   24 type  1   force =     0.00000000    0.00000000    0.00000000
     atom   25 type  2   force =     0.00000000    0.00000000    0.00000000
     atom   26 type  2   force =     0.00000000    0.00000000    0.00000000
     atom   27 type  1   force =     0.00000000    0.00000000    0.00000000
     atom   28 type  2   force =     0.00000000    0.00000000    0.00000000
     atom   29 type  2   force =     0.00000000    0.00000000    0.00000000
     atom   30 type  1   force =     0.00000000    0.00000000    0.00000000
     atom   31 type  2   force =     0.00000000    0.00000000    0.00000000
     atom   32 type  2   force =     0.00000000    0.00000000    0.00000000
     atom   33 type  1   force =     0.00000000    0.00000000    0.00000000
     atom   34 type  2   force =     0.00000000    0.00000000    0.00000000
     atom   35 type  2   force =     0.00000000    0.00000000    0.00000000
     atom   36 type  3   force =     0.00000000    0.00000000    0.00000000
     The SCF correction term to forces
     atom    1 type  1   force =    -0.00003139   -0.00002045    0.00001236
     atom    2 type  2   force =    -0.00000135    0.00001404    0.00021128
     atom    3 type  2   force =     0.00004247    0.00001811   -0.00009849
     atom    4 type  1   force =     0.00005804   -0.00005561    0.00010535
     atom    5 type  2   force =    -0.00002094    0.00000551    0.00023247
     atom    6 type  2   force =    -0.00001404   -0.00005229   -0.00010808
     atom    7 type  1   force =     0.00005758    0.00027246    0.00020673
     atom    8 type  2   force =    -0.00003460    0.00002440    0.00017960
     atom    9 type  2   force =     0.00000809    0.00001685   -0.00008379
     atom   10 type  1   force =     0.00009495   -0.00002115    0.00004974
     atom   11 type  2   force =    -0.00006232   -0.00004499    0.00020711
     atom   12 type  2   force =     0.00001400   -0.00001274   -0.00005463
     atom   13 type  1   force =    -0.00009539   -0.00013732   -0.00007132
     atom   14 type  2   force =    -0.00003373   -0.00001229    0.00018968
     atom   15 type  2   force =    -0.00003760    0.00006191   -0.00007585
     atom   16 type  1   force =    -0.00011838   -0.00026278    0.00008647
     atom   17 type  2   force =    -0.00000396    0.00003264    0.00021065
     atom   18 type  2   force =    -0.00001384   -0.00003756   -0.00008596
     atom   19 type  1   force =    -0.00032862    0.00024653    0.00025598
     atom   20 type  2   force =    -0.00003026    0.00001958   -0.00011544
     atom   21 type  1   force =    -0.00017524   -0.00009797    0.00029591
     atom   22 type  2   force =    -0.00008564    0.00005748    0.00017658
     atom   23 type  2   force =    -0.00008624    0.00000680    0.00000527
     atom   24 type  1   force =     0.00010189   -0.00011542   -0.00004294
     atom   25 type  2   force =     0.00003702   -0.00004794    0.00013007
     atom   26 type  2   force =     0.00001028   -0.00001557   -0.00002389
     atom   27 type  1   force =     0.00003479    0.00007591    0.00008150
     atom   28 type  2   force =     0.00002368    0.00000328    0.00021317
     atom   29 type  2   force =     0.00002487   -0.00002106   -0.00009068
     atom   30 type  1   force =     0.00027267    0.00012053    0.00012555
     atom   31 type  2   force =     0.00003323    0.00006076    0.00014386
     atom   32 type  2   force =     0.00001466    0.00002425   -0.00002567
     atom   33 type  1   force =     0.00011001   -0.00012346    0.00012934
     atom   34 type  2   force =     0.00011001   -0.00000907    0.00013375
     atom   35 type  2   force =     0.00007751    0.00004545   -0.00002857
     atom   36 type  3   force =     0.00001305    0.00002061    0.00027063

     Total force =     0.147814     Total SCF correction =     0.001195

     BFGS Geometry Optimization
     Energy error            =      0.0E+00 Ry
     Gradient error          =      7.2E-02 Ry/Bohr

     number of scf cycles    =   1
     number of bfgs steps    =   0

     energy             new  =   -2246.2137253762 Ry

     new trust radius        =       0.0845772502 bohr
     new conv_thr            =       0.0000010000 Ry


ATOMIC_POSITIONS (angstrom)
Mo            6.5819278284        1.7742419556        2.8271333305
S             8.1687235474        0.8187208083        4.4342455414
S             8.1871487750        0.8163251920        1.2766844622
Mo            8.0973976412        4.4970877059        2.7167430058
S             6.4985929340        3.7195127798        4.3432845435
S             6.5535414089        3.5172616538        1.1214748447
Mo            6.4972779246        7.2108700544        2.6712761902
S             8.0826942826        6.3433373168        4.2507961516
S             8.0868889306        6.3081597549        1.0900919401
Mo            8.1541303994        9.9068180171        2.8298044893
S             6.4993732521        8.9424590911        4.3769237681
S             6.6167587144        9.0492059027        1.1423028684
Mo            3.4244221863        1.7492627032        2.7725428609
S             4.9798013429        0.8181063771        4.3576726320
S             5.0507657605        0.8490189297        1.2207020864
Mo            4.9833978554        4.5148125548        2.6320743021
S             3.4317091005        3.6717560201        4.2811356018
S             3.4357217547        3.5444045302        1.0654752196
Mo            3.4533816817        7.2108950669        2.6503181930
S             4.9851112240        6.3237378795        1.0377266180
Mo            5.0103516623        9.9020655668        2.7468151262
S             3.4843312699        8.9242373626        4.3466484875
S             3.4084068302        9.0660836729        1.1001552583
Mo            0.2909248295        1.7464513611        2.8378683212
S             1.8594484514        0.8030602726        4.4018274651
S             1.8547897391        0.8531022415        1.2079034514
Mo            1.8587888495        4.4961076073        2.6632948184
S             0.2725737452        3.6543296257        4.3354026390
S             0.2328616228        3.5271270787        1.1707432217
Mo            0.2674259939        7.2191107980        2.7014770600
S             1.8979700518        6.3148012950        4.2271755591
S             1.8587347144        6.3131780300        1.0484096609
Mo            1.8457849712        9.9373383942        2.7632279619
S             0.2964597200        9.0675024811        4.4084838223
S             0.2734243911        9.0485354363        1.1570757812
O             4.1943080696        7.3078542261        5.4398442531



     Writing config-only to output data dir ./MoS2-V-O.save/
     NEW-OLD atomic charge density approx. for the potential

     negative rho (up, down):  1.962E-04 0.000E+00

     total cpu time spent up to now is      145.6 secs

     Self-consistent Calculation

     iteration #  1     ecut=    80.00 Ry     beta= 0.70
     Davidson diagonalization with overlap
     ethr =  1.00E-06,  avg # of iterations = 11.0

     negative rho (up, down):  9.067E-05 0.000E+00

     total cpu time spent up to now is      158.2 secs

     total energy              =   -2246.23339122 Ry
     estimated scf accuracy    <       0.00825925 Ry

     iteration #  2     ecut=    80.00 Ry     beta= 0.70
     Davidson diagonalization with overlap
     ethr =  2.65E-06,  avg # of iterations =  2.0

     negative rho (up, down):  7.750E-05 0.000E+00

     total cpu time spent up to now is      171.5 secs

     total energy              =   -2246.23376654 Ry
     estimated scf accuracy    <       0.00490705 Ry

     iteration #  3     ecut=    80.00 Ry     beta= 0.70
     Davidson diagonalization with overlap
     ethr =  1.57E-06,  avg # of iterations =  2.0

     negative rho (up, down):  6.521E-05 0.000E+00

     total cpu time spent up to now is      184.3 secs

     total energy              =   -2246.23415697 Ry
     estimated scf accuracy    <       0.00214017 Ry

     iteration #  4     ecut=    80.00 Ry     beta= 0.70
     Davidson diagonalization with overlap
     ethr =  6.86E-07,  avg # of iterations =  2.0

     negative rho (up, down):  5.094E-05 0.000E+00

     total cpu time spent up to now is      196.4 secs

     total energy              =   -2246.23423179 Ry
     estimated scf accuracy    <       0.00015462 Ry

     iteration #  5     ecut=    80.00 Ry     beta= 0.70
     Davidson diagonalization with overlap
     ethr =  4.96E-08,  avg # of iterations =  5.0

     negative rho (up, down):  4.156E-05 0.000E+00

     total cpu time spent up to now is      207.6 secs

     total energy              =   -2246.23424480 Ry
     estimated scf accuracy    <       0.00003241 Ry

     iteration #  6     ecut=    80.00 Ry     beta= 0.70
     Davidson diagonalization with overlap
     ethr =  1.04E-08,  avg # of iterations =  5.0

     negative rho (up, down):  3.499E-05 0.000E+00

     total cpu time spent up to now is      217.9 secs

     total energy              =   -2246.23424942 Ry
     estimated scf accuracy    <       0.00000945 Ry

     iteration #  7     ecut=    80.00 Ry     beta= 0.70
     Davidson diagonalization with overlap
     ethr =  3.03E-09,  avg # of iterations =  2.0

     negative rho (up, down):  3.108E-05 0.000E+00

     total cpu time spent up to now is      231.3 secs

     total energy              =   -2246.23425073 Ry
     estimated scf accuracy    <       0.00000356 Ry

     iteration #  8     ecut=    80.00 Ry     beta= 0.70
     Davidson diagonalization with overlap
     ethr =  1.14E-09,  avg # of iterations =  5.0

     negative rho (up, down):  1.671E-04 0.000E+00

     total cpu time spent up to now is      234.8 secs

     End of self-consistent calculation

          k = 0.0000 0.0000 0.0000 (105382 PWs)   bands (ev):

   -63.0611 -63.0320 -63.0271 -63.0171 -63.0077 -63.0048 -62.9982 -62.9960
   -62.9897 -62.9840 -62.9709 -62.9219 -37.4190 -37.3513 -37.3201 -37.3069
   -37.2976 -37.2762 -37.2582 -37.2502 -37.2368 -37.2265 -37.2246 -37.2180
   -37.2072 -37.1989 -37.1912 -37.1862 -37.1826 -37.1803 -37.1742 -37.1733
   -37.1693 -37.1602 -37.1524 -37.1440 -37.1174 -37.0943 -37.0891 -37.0855
   -37.0777 -37.0660 -37.0394 -37.0239 -37.0023 -36.9800 -36.9431 -36.9376
   -18.0298 -16.0987 -15.3259 -15.2814 -15.1054 -15.0470 -14.9281 -14.6514
   -14.6070 -14.5770 -14.5595 -14.5381 -14.4872 -14.4807 -14.4193 -14.2970
   -14.2701 -14.2644 -14.2485 -14.1777 -14.0249 -14.0073 -13.9929 -13.9487
    -7.8166  -7.6463  -7.4614  -7.4514  -7.4138  -7.3672  -7.3604  -7.2917
    -7.0088  -6.9860  -6.9245  -6.8949  -6.8296  -6.7022  -6.6404  -6.6183
    -6.5486  -6.4520  -6.4288  -6.1966  -6.1183  -6.0781  -6.0343  -5.9846
    -5.9252  -5.9118  -5.8615  -5.8283  -5.8137  -5.7742  -5.6915  -5.6744
    -5.6259  -5.5578  -5.5251  -5.3440  -5.3137  -5.2193  -5.1791  -5.1588
    -5.0963  -5.0626  -5.0091  -4.8604  -4.7033  -4.5459  -4.4837  -4.4516
    -4.3873  -4.3682  -4.2714  -4.1592  -4.0562  -4.0228  -3.9342  -3.8766
    -3.8616  -3.8274  -3.7409  -3.7033  -3.6633  -3.6394  -3.6137  -3.5826
    -3.5467  -3.5203  -3.3707  -3.2859  -3.2160  -3.0736  -3.0051  -2.9973
    -2.9389  -2.8866  -2.8561  -2.8135  -2.7949  -2.7678  -2.6529  -2.4027
    -2.2386  -2.1778  -1.9948  -1.6319  -1.5576  -0.9483  -0.7409  -0.3362
    -0.2941  -0.2479  -0.1919  -0.1016  -0.0077   0.0092   0.0686   0.1163
     0.1539   0.2172   0.2566   0.3015   0.3816   0.3985   0.4208   0.4425
     0.5065   0.5685   0.5950   0.6065   0.6547   0.6890   0.7196   0.7681
     0.8233   0.8664   0.9738

     the Fermi energy is    -1.5948 ev

!    total energy              =   -2246.23425213 Ry
     estimated scf accuracy    <       0.00000067 Ry
     smearing contrib. (-TS)   =      -0.01047344 Ry
     internal energy E=F+TS    =   -2246.22377869 Ry

     The total energy is F=E-TS. E is the sum of the following terms:
     one-electron contribution =  -18417.76645389 Ry
     hartree contribution      =    9196.42825272 Ry
     xc contribution           =    -391.72522823 Ry
     ewald contribution        =    7376.71595243 Ry
     one-center paw contrib.   =      -9.87630171 Ry

     convergence has been achieved in   8 iterations

     negative rho (up, down):  1.671E-04 0.000E+00

     Forces acting on atoms (cartesian axes, Ry/au):

     atom    1 type  1   force =     0.00368805   -0.01273527    0.00010762
     atom    2 type  2   force =    -0.00895902    0.01078281   -0.00189200
     atom    3 type  2   force =    -0.01058322    0.00773058   -0.00839113
     atom    4 type  1   force =     0.00438771    0.00269238    0.00084298
     atom    5 type  2   force =    -0.00006162   -0.00554640   -0.00575647
     atom    6 type  2   force =     0.00113628    0.00584933    0.00159550
     atom    7 type  1   force =     0.00969530   -0.01080028   -0.00192833
     atom    8 type  2   force =     0.00190002   -0.00321324    0.01381806
     atom    9 type  2   force =     0.01040334    0.00526584    0.00739009
     atom   10 type  1   force =    -0.00492499    0.00728122   -0.00928460
     atom   11 type  2   force =     0.00898528   -0.00047266   -0.01195597
     atom   12 type  2   force =    -0.00504271   -0.00005647    0.00179466
     atom   13 type  1   force =     0.00398066    0.00170189   -0.00232792
     atom   14 type  2   force =     0.00614214    0.00154837    0.00956916
     atom   15 type  2   force =    -0.00934212    0.00312837   -0.00766761
     atom   16 type  1   force =     0.00614309    0.00172379   -0.00051253
     atom   17 type  2   force =     0.00655868    0.00072034    0.00176052
     atom   18 type  2   force =    -0.00378993   -0.00445485    0.01071623
     atom   19 type  1   force =     0.00317282   -0.00920100    0.02374636
     atom   20 type  2   force =     0.00060748   -0.00348641    0.00361422
     atom   21 type  1   force =    -0.00342716   -0.00118354    0.00695201
     atom   22 type  2   force =     0.02785480   -0.03903098    0.04431402
     atom   23 type  2   force =     0.00138108   -0.00242068    0.00976011
     atom   24 type  1   force =    -0.00582951   -0.00096577   -0.00866751
     atom   25 type  2   force =     0.01152185    0.01403487   -0.00076633
     atom   26 type  2   force =    -0.00800240   -0.00248968   -0.00477299
     atom   27 type  1   force =    -0.00307693    0.00004227    0.00590954
     atom   28 type  2   force =    -0.00006373   -0.00149577   -0.00500489
     atom   29 type  2   force =     0.00235694    0.00143042   -0.00376747
     atom   30 type  1   force =    -0.00526267    0.00319869    0.00177498
     atom   31 type  2   force =    -0.01129883    0.00006985    0.00827189
     atom   32 type  2   force =    -0.00337005    0.00494322    0.00882018
     atom   33 type  1   force =     0.00171503   -0.00497567   -0.00291060
     atom   34 type  2   force =    -0.00159929   -0.03048253   -0.01462048
     atom   35 type  2   force =    -0.00528121    0.00786823    0.00623129
     atom   36 type  3   force =    -0.02171516    0.05299874   -0.07676257
     The non-local contrib.  to forces
     atom    1 type  1   force =     0.00262629    0.02838626   -0.01104922
     atom    2 type  2   force =    -0.00623636   -0.00251859   -0.27224649
     atom    3 type  2   force =    -0.01228295   -0.00536148    0.26356160
     atom    4 type  1   force =    -0.00040330    0.00822964    0.00502335
     atom    5 type  2   force =     0.00804353   -0.03537718   -0.25851831
     atom    6 type  2   force =    -0.00339013    0.00673338    0.26614844
     atom    7 type  1   force =    -0.01198829   -0.00180871   -0.02308631
     atom    8 type  2   force =     0.00839425   -0.00496513   -0.25794143
     atom    9 type  2   force =     0.00539130   -0.00493680    0.27591895
     atom   10 type  1   force =    -0.00101270    0.00702415   -0.00180387
     atom   11 type  2   force =     0.01631730    0.01362202   -0.27080525
     atom   12 type  2   force =    -0.01522465   -0.01590975    0.26232905
     atom   13 type  1   force =    -0.00060972    0.02728318   -0.00603228
     atom   14 type  2   force =     0.00771399   -0.00944924   -0.26804178
     atom   15 type  2   force =    -0.01033801   -0.00698500    0.26169087
     atom   16 type  1   force =    -0.00342382    0.02837245   -0.02831460
     atom   17 type  2   force =    -0.00075418   -0.02918148   -0.25668743
     atom   18 type  2   force =    -0.00207710   -0.00098652    0.27175768
     atom   19 type  1   force =     0.01358086   -0.00171092   -0.01716491
     atom   20 type  2   force =    -0.00077773   -0.01873192    0.26731841
     atom   21 type  1   force =    -0.00770844    0.01871620    0.01074077
     atom   22 type  2   force =     0.11000317   -0.24871447   -0.11118548
     atom   23 type  2   force =     0.00523028   -0.02251898    0.27296312
     atom   24 type  1   force =     0.00260485    0.01294327   -0.00998874
     atom   25 type  2   force =     0.00438503    0.00233863   -0.26611202
     atom   26 type  2   force =    -0.00106569   -0.01448418    0.26255841
     atom   27 type  1   force =    -0.00213624    0.00944103    0.00848205
     atom   28 type  2   force =    -0.00164898   -0.02289011   -0.27519353
     atom   29 type  2   force =     0.00604497    0.00388421    0.26166146
     atom   30 type  1   force =    -0.00084464    0.01198033    0.00795036
     atom   31 type  2   force =    -0.01550344   -0.01069193   -0.27016170
     atom   32 type  2   force =     0.00208073   -0.00367681    0.27695025
     atom   33 type  1   force =    -0.00212750    0.00713968    0.00317573
     atom   34 type  2   force =    -0.00819847   -0.02926127   -0.27750699
     atom   35 type  2   force =     0.00140090   -0.00831827    0.26702685
     atom   36 type  3   force =    -0.21883460    0.51846227   -0.63051446
     The ionic contribution  to forces
     atom    1 type  1   force =     0.38093443    0.54424401    4.75661942
     atom    2 type  2   force =    -0.35206744    0.48073168   39.16722118
     atom    3 type  2   force =    -0.12075024    0.11156068  -36.70223588
     atom    4 type  1   force =     0.38384517   -0.19112544   -0.61702072
     atom    5 type  2   force =    -0.58399508    0.84874826   38.33607442
     atom    6 type  2   force =     0.40464214   -0.71980906  -38.54840580
     atom    7 type  1   force =    -1.04098858   -2.68982424   -0.64258955
     atom    8 type  2   force =    -0.46072835   -0.27034367   37.07514184
     atom    9 type  2   force =     0.43373407   -0.13933722  -38.71601876
     atom   10 type  1   force =    -0.48993032    0.34755303    4.00666550
     atom   11 type  2   force =     0.92192465   -0.46431677   38.22006169
     atom   12 type  2   force =     0.48894871    0.80323264  -38.63605906
     atom   13 type  1   force =     0.28232380    0.91611562    1.58966470
     atom   14 type  2   force =     0.07578216    0.48759430   38.26475469
     atom   15 type  2   force =     0.20229804    0.05766605  -37.42980444
     atom   16 type  1   force =     0.33403120    2.22569793   -1.92472583
     atom   17 type  2   force =     0.58890090    0.51239666   37.44607319
     atom   18 type  2   force =    -0.20073548   -0.76982912  -39.13321340
     atom   19 type  1   force =     1.55523981   -2.53678220   -4.32348110
     atom   20 type  2   force =     0.21877034   -0.25609945  -39.52692429
     atom   21 type  1   force =     0.36352346    1.80462669   -1.20354409
     atom   22 type  2   force =    -1.16597643    2.01412415   36.08080513
     atom   23 type  2   force =    -0.12470802    0.77406976  -39.16353588
     atom   24 type  1   force =    -0.43565861    1.03699809    4.61284946
     atom   25 type  2   force =     0.32739993    0.51176990   38.95602947
     atom   26 type  2   force =    -0.29146765    0.16969759  -37.83655484
     atom   27 type  1   force =    -0.61202664   -0.66615418   -3.83591782
     atom   28 type  2   force =    -0.09228308    0.57667018   37.95011567
     atom   29 type  2   force =    -0.27756132   -0.49155025  -37.82186278
     atom   30 type  1   force =    -0.84728569   -0.93512116   -1.84192775
     atom   31 type  2   force =    -0.73542967   -0.99558028   36.17426646
     atom   32 type  2   force =    -0.56564564   -0.08962944  -39.43552442
     atom   33 type  1   force =     0.04287744    0.42424262    0.18539297
     atom   34 type  2   force =    -0.18612625   -0.76598681   38.89845227
     atom   35 type  2   force =    -0.33170061    0.56671284  -38.42686073
     atom   36 type  3   force =     1.90988885   -3.23296338   44.04601908
     The local contribution  to forces
     atom    1 type  1   force =    -0.38017348   -0.58506645   -4.74631536
     atom    2 type  2   force =     0.34916990   -0.46742126  -38.91821795
     atom    3 type  2   force =     0.12188847   -0.09863304   36.45081136
     atom    4 type  1   force =    -0.37916989    0.18538271    0.61211654
     atom    5 type  2   force =     0.57652497   -0.82090441  -38.10452792
     atom    6 type  2   force =    -0.40057398    0.71987211   38.30477287
     atom    7 type  1   force =     1.06227399    2.68073204    0.66304565
     atom    8 type  2   force =     0.45461882    0.27152095  -36.82455297
     atom    9 type  2   force =    -0.42867175    0.14923864   38.46836051
     atom   10 type  1   force =     0.48612554   -0.34724879   -4.01474341
     atom   11 type  2   force =    -0.92816113    0.45152729  -37.98324568
     atom   12 type  2   force =    -0.47999650   -0.78863540   38.39615187
     atom   13 type  1   force =    -0.27773544   -0.94156899   -1.58669845
     atom   14 type  2   force =    -0.07688333   -0.47654774  -38.00852201
     atom   15 type  2   force =    -0.20195189   -0.04791056   37.18091234
     atom   16 type  1   force =    -0.32463798   -2.25236217    1.95190924
     atom   17 type  2   force =    -0.58168677   -0.48409143  -37.20884133
     atom   18 type  2   force =     0.19907992    0.76694869   38.89308919
     atom   19 type  1   force =    -1.56547355    2.52891185    4.36334623
     atom   20 type  2   force =    -0.21755933    0.27050159   39.28444173
     atom   21 type  1   force =    -0.35909436   -1.82442559    1.19872102
     atom   22 type  2   force =     1.08936044   -1.81646324  -35.93913005
     atom   23 type  2   force =     0.12126845   -0.75557339   38.92126872
     atom   24 type  1   force =     0.42746869   -1.05089902   -4.61210748
     atom   25 type  2   force =    -0.32034916   -0.49969879  -38.71207142
     atom   26 type  2   force =     0.28476227   -0.15845571   37.58992849
     atom   27 type  1   force =     0.61135518    0.65671218    3.83259790
     atom   28 type  2   force =     0.09375975   -0.55700728  -37.70141111
     atom   29 type  2   force =     0.27443040    0.48974943   37.57680448
     atom   30 type  1   force =     0.84307119    0.92628215    1.83495800
     atom   31 type  2   force =     0.73828108    1.00558336  -35.91833320
     atom   32 type  2   force =     0.56060566    0.09793744   39.18847290
     atom   33 type  1   force =    -0.03917723   -0.43613488   -0.19226247
     atom   34 type  2   force =     0.19203330    0.76387623  -38.65740440
     atom   35 type  2   force =     0.32530836   -0.55137099   38.18685158
     atom   36 type  3   force =    -1.71506669    2.77315343  -43.49975950
     The core correction contribution to forces
     atom    1 type  1   force =     0.00000000    0.00000000    0.00000000
     atom    2 type  2   force =     0.00018924    0.00001318    0.02094316
     atom    3 type  2   force =     0.00054149    0.00019404   -0.02071830
     atom    4 type  1   force =     0.00000000    0.00000000    0.00000000
     atom    5 type  2   force =    -0.00072548    0.00196996    0.02068751
     atom    6 type  2   force =     0.00036729   -0.00096916   -0.02095550
     atom    7 type  1   force =     0.00000000    0.00000000    0.00000000
     atom    8 type  2   force =    -0.00039378    0.00054483    0.02074781
     atom    9 type  2   force =    -0.00002988    0.00027173   -0.02106602
     atom   10 type  1   force =     0.00000000    0.00000000    0.00000000
     atom   11 type  2   force =    -0.00105152   -0.00129776    0.02161777
     atom   12 type  2   force =     0.00117663    0.00127948   -0.02081298
     atom   13 type  1   force =     0.00000000    0.00000000    0.00000000
     atom   14 type  2   force =    -0.00045576    0.00006843    0.02091886
     atom   15 type  2   force =     0.00064257    0.00042039   -0.02059226
     atom   16 type  1   force =     0.00000000    0.00000000    0.00000000
     atom   17 type  2   force =     0.00014714    0.00163111    0.02069241
     atom   18 type  2   force =    -0.00001872   -0.00055270   -0.02096937
     atom   19 type  1   force =     0.00000000    0.00000000    0.00000000
     atom   20 type  2   force =     0.00007197    0.00080946   -0.02128250
     atom   21 type  1   force =     0.00000000    0.00000000    0.00000000
     atom   22 type  2   force =    -0.00551682    0.01193630    0.01338090
     atom   23 type  2   force =    -0.00038601    0.00153861   -0.02113170
     atom   24 type  1   force =     0.00000000    0.00000000    0.00000000
     atom   25 type  2   force =     0.00004750   -0.00027683    0.02090909
     atom   26 type  2   force =    -0.00019801    0.00080310   -0.02085241
     atom   27 type  1   force =     0.00000000    0.00000000    0.00000000
     atom   28 type  2   force =     0.00014775    0.00166797    0.02104550
     atom   29 type  2   force =    -0.00051237   -0.00066525   -0.02050778
     atom   30 type  1   force =     0.00000000    0.00000000    0.00000000
     atom   31 type  2   force =     0.00141996    0.00067831    0.02200917
     atom   32 type  2   force =    -0.00033541    0.00029807   -0.02117398
     atom   33 type  1   force =     0.00000000    0.00000000    0.00000000
     atom   34 type  2   force =     0.00064220    0.00090908    0.02138023
     atom   35 type  2   force =    -0.00027218    0.00082842   -0.02096848
     atom   36 type  3   force =     0.00233943   -0.00577506    0.00704809
     The Hubbard contrib.    to forces
     atom    1 type  1   force =     0.00000000    0.00000000    0.00000000
     atom    2 type  2   force =     0.00000000    0.00000000    0.00000000
     atom    3 type  2   force =     0.00000000    0.00000000    0.00000000
     atom    4 type  1   force =     0.00000000    0.00000000    0.00000000
     atom    5 type  2   force =     0.00000000    0.00000000    0.00000000
     atom    6 type  2   force =     0.00000000    0.00000000    0.00000000
     atom    7 type  1   force =     0.00000000    0.00000000    0.00000000
     atom    8 type  2   force =     0.00000000    0.00000000    0.00000000
     atom    9 type  2   force =     0.00000000    0.00000000    0.00000000
     atom   10 type  1   force =     0.00000000    0.00000000    0.00000000
     atom   11 type  2   force =     0.00000000    0.00000000    0.00000000
     atom   12 type  2   force =     0.00000000    0.00000000    0.00000000
     atom   13 type  1   force =     0.00000000    0.00000000    0.00000000
     atom   14 type  2   force =     0.00000000    0.00000000    0.00000000
     atom   15 type  2   force =     0.00000000    0.00000000    0.00000000
     atom   16 type  1   force =     0.00000000    0.00000000    0.00000000
     atom   17 type  2   force =     0.00000000    0.00000000    0.00000000
     atom   18 type  2   force =     0.00000000    0.00000000    0.00000000
     atom   19 type  1   force =     0.00000000    0.00000000    0.00000000
     atom   20 type  2   force =     0.00000000    0.00000000    0.00000000
     atom   21 type  1   force =     0.00000000    0.00000000    0.00000000
     atom   22 type  2   force =     0.00000000    0.00000000    0.00000000
     atom   23 type  2   force =     0.00000000    0.00000000    0.00000000
     atom   24 type  1   force =     0.00000000    0.00000000    0.00000000
     atom   25 type  2   force =     0.00000000    0.00000000    0.00000000
     atom   26 type  2   force =     0.00000000    0.00000000    0.00000000
     atom   27 type  1   force =     0.00000000    0.00000000    0.00000000
     atom   28 type  2   force =     0.00000000    0.00000000    0.00000000
     atom   29 type  2   force =     0.00000000    0.00000000    0.00000000
     atom   30 type  1   force =     0.00000000    0.00000000    0.00000000
     atom   31 type  2   force =     0.00000000    0.00000000    0.00000000
     atom   32 type  2   force =     0.00000000    0.00000000    0.00000000
     atom   33 type  1   force =     0.00000000    0.00000000    0.00000000
     atom   34 type  2   force =     0.00000000    0.00000000    0.00000000
     atom   35 type  2   force =     0.00000000    0.00000000    0.00000000
     atom   36 type  3   force =     0.00000000    0.00000000    0.00000000
     The SCF correction term to forces
     atom    1 type  1   force =     0.00029921   -0.00030056    0.00082642
     atom    2 type  2   force =    -0.00001596   -0.00002367    0.00038175
     atom    3 type  2   force =     0.00001841   -0.00003110    0.00016374
     atom    4 type  1   force =     0.00011414    0.00020398    0.00069745
     atom    5 type  2   force =     0.00008884    0.00001549    0.00050147
     atom    6 type  2   force =     0.00008935    0.00002058    0.00000914
     atom    7 type  1   force =     0.00039659    0.00009916    0.00067553
     atom    8 type  2   force =     0.00000748    0.00002830    0.00039646
     atom    9 type  2   force =    -0.00002200    0.00002801    0.00016905
     atom   10 type  1   force =    -0.00010911   -0.00004865    0.00057083
     atom   11 type  2   force =    -0.00004562   -0.00000891    0.00038914
     atom   12 type  2   force =     0.00005151   -0.00002492    0.00015942
     atom   13 type  1   force =     0.00000042   -0.00012939    0.00071175
     atom   14 type  2   force =    -0.00001652   -0.00011886    0.00043305
     atom   15 type  2   force =     0.00000559   -0.00006399    0.00009952
     atom   16 type  1   force =     0.00017210    0.00001411    0.00059231
     atom   17 type  2   force =    -0.00005001   -0.00003599    0.00049733
     atom   18 type  2   force =    -0.00004014   -0.00003666    0.00002579
     atom   19 type  1   force =    -0.00017590    0.00037879    0.00101978
     atom   20 type  2   force =     0.00010062    0.00003243    0.00003451
     atom   21 type  1   force =    -0.00014942   -0.00010231    0.00100796
     atom   22 type  2   force =    -0.00001716    0.00008481    0.00041717
     atom   23 type  2   force =    -0.00002522    0.00006183    0.00016951
     atom   24 type  1   force =    -0.00024603   -0.00000958    0.00055290
     atom   25 type  2   force =     0.00003695   -0.00009951    0.00045219
     atom   26 type  2   force =    -0.00003492   -0.00005195    0.00012099
     atom   27 type  1   force =    -0.00027083    0.00004176    0.00072106
     atom   28 type  2   force =    -0.00004076    0.00006200    0.00041223
     atom   29 type  2   force =    -0.00004633    0.00001080    0.00011080
     atom   30 type  1   force =    -0.00020512    0.00005589    0.00076802
     atom   31 type  2   force =    -0.00006835    0.00007892    0.00046480
     atom   32 type  2   force =    -0.00007700    0.00001249    0.00006907
     atom   33 type  1   force =     0.00014072   -0.00022457    0.00075681
     atom   34 type  2   force =     0.00004833   -0.00002123    0.00043206
     atom   35 type  2   force =    -0.00001927    0.00001474    0.00015571
     atom   36 type  3   force =    -0.00004374    0.00012000    0.00041787

     Total force =     0.137456     Total SCF correction =     0.003217
     Energy error            =      2.1E-02 Ry
     Gradient error          =      7.7E-02 Ry/Bohr

     number of scf cycles    =   2
     number of bfgs steps    =   1

     energy             old  =   -2246.2137253762 Ry
     energy             new  =   -2246.2342521277 Ry

     CASE: energy            _new < energy            _old


     WARNING: bfgs curvature condition failed, Theta= 0.909
     new trust radius        =       0.0930349752 bohr
     new conv_thr            =       0.0000000768 Ry


ATOMIC_POSITIONS (angstrom)
Mo            6.5864274597        1.7641871447        2.8287713320
S             8.1623662338        0.8260986920        4.4335441562
S             8.1811798031        0.8209793034        1.2736196283
Mo            8.0997400903        4.4988283860        2.7165007381
S             6.4979688819        3.7165179769        4.3400071875
S             6.5539698909        3.5215550395        1.1220422492
Mo            6.5035385183        7.2041538303        2.6704187791
S             8.0837080377        6.3421293927        4.2587692688
S             8.0927520276        6.3113275794        1.0951710740
Mo            8.1496701061        9.9111324226        2.8207404046
S             6.5039993181        8.9421023406        4.3704988064
S             6.6147015861        9.0494165789        1.1439425062
Mo            3.4268853782        1.7508337407        2.7700383468
S             4.9837737782        0.8191061859        4.3638233555
S             5.0447159530        0.8512242309        1.2156652297
Mo            4.9869129576        4.5160808506        2.6315480269
S             3.4354527724        3.6720436947        4.2823189603
S             3.4335750242        3.5413108864        1.0719621437
Mo            3.4541111158        7.2056413539        2.6664667914
S             4.9861567281        6.3212240247        1.0390266736
Mo            5.0084454257        9.9019252507        2.7504680691
S             3.4988266115        8.9035694830        4.3696086976
S             3.4088102018        9.0658618214        1.1049587867
Mo            0.2868022856        1.7456752736        2.8299464055
S             1.8670336324        0.8120330327        4.4032624738
S             1.8496278033        0.8517475771        1.2057849851
Mo            1.8569920192        4.4963230850        2.6664898145
S             0.2727202331        3.6538497905        4.3329000039
S             0.2343176509        3.5274993081        1.1690283961
Mo            0.2641354895        7.2212027670        2.7019077606
S             1.8926222809        6.3157434793        4.2318298513
S             1.8561135062        6.3159625056        1.0528228261
Mo            1.8469603569        9.9345595941        2.7578851514
S             0.2962322896        9.0480232924        4.4016270808
S             0.2703027666        9.0531968567        1.1620130609
O             4.1838032423        7.3338129716        5.3993525151



     Writing config-only to output data dir ./MoS2-V-O.save/
     NEW-OLD atomic charge density approx. for the potential

     negative rho (up, down):  2.023E-04 0.000E+00

     total cpu time spent up to now is      242.3 secs

     Self-consistent Calculation

     iteration #  1     ecut=    80.00 Ry     beta= 0.70
     Davidson diagonalization with overlap
     ethr =  1.00E-06,  avg # of iterations = 10.0

     negative rho (up, down):  8.902E-05 0.000E+00

     total cpu time spent up to now is      256.4 secs

     total energy              =   -2246.25270709 Ry
     estimated scf accuracy    <       0.00896146 Ry

     iteration #  2     ecut=    80.00 Ry     beta= 0.70
     Davidson diagonalization with overlap
     ethr =  2.87E-06,  avg # of iterations =  2.0

     negative rho (up, down):  6.808E-05 0.000E+00

     total cpu time spent up to now is      271.5 secs

     total energy              =   -2246.25332629 Ry
     estimated scf accuracy    <       0.00308959 Ry

     iteration #  3     ecut=    80.00 Ry     beta= 0.70
     Davidson diagonalization with overlap
     ethr =  9.90E-07,  avg # of iterations =  2.0

     negative rho (up, down):  5.257E-05 0.000E+00

     total cpu time spent up to now is      288.2 secs

     total energy              =   -2246.25352556 Ry
     estimated scf accuracy    <       0.00095635 Ry

     iteration #  4     ecut=    80.00 Ry     beta= 0.70
     Davidson diagonalization with overlap
     ethr =  3.07E-07,  avg # of iterations =  2.0

     negative rho (up, down):  4.072E-05 0.000E+00

     total cpu time spent up to now is      300.7 secs

     total energy              =   -2246.25357383 Ry
     estimated scf accuracy    <       0.00011047 Ry

     iteration #  5     ecut=    80.00 Ry     beta= 0.70
     Davidson diagonalization with overlap
     ethr =  3.54E-08,  avg # of iterations =  5.0

     negative rho (up, down):  3.144E-05 0.000E+00

     total cpu time spent up to now is      313.2 secs

     total energy              =   -2246.25358852 Ry
     estimated scf accuracy    <       0.00003978 Ry

     iteration #  6     ecut=    80.00 Ry     beta= 0.70
     Davidson diagonalization with overlap
     ethr =  1.28E-08,  avg # of iterations =  2.0

     negative rho (up, down):  2.662E-05 0.000E+00

     total cpu time spent up to now is      325.7 secs

     total energy              =   -2246.25359126 Ry
     estimated scf accuracy    <       0.00000951 Ry

     iteration #  7     ecut=    80.00 Ry     beta= 0.70
     Davidson diagonalization with overlap
     ethr =  3.05E-09,  avg # of iterations =  5.0

     negative rho (up, down):  2.661E-05 0.000E+00

     total cpu time spent up to now is      336.0 secs

     total energy              =   -2246.25359384 Ry
     estimated scf accuracy    <       0.00000229 Ry

     iteration #  8     ecut=    80.00 Ry     beta= 0.70
     Davidson diagonalization with overlap
     ethr =  7.36E-10,  avg # of iterations =  4.0

     negative rho (up, down):  3.426E-05 0.000E+00

     total cpu time spent up to now is      347.4 secs

     total energy              =   -2246.25359473 Ry
     estimated scf accuracy    <       0.00000085 Ry

     iteration #  9     ecut=    80.00 Ry     beta= 0.70
     Davidson diagonalization with overlap
     ethr =  2.72E-10,  avg # of iterations =  5.0

     negative rho (up, down):  5.006E-05 0.000E+00

     total cpu time spent up to now is      357.7 secs

     total energy              =   -2246.25359524 Ry
     estimated scf accuracy    <       0.00000025 Ry

     iteration # 10     ecut=    80.00 Ry     beta= 0.70
     Davidson diagonalization with overlap
     ethr =  7.94E-11,  avg # of iterations =  5.0

     negative rho (up, down):  9.458E-05 0.000E+00

     total cpu time spent up to now is      369.6 secs

     total energy              =   -2246.25359552 Ry
     estimated scf accuracy    <       0.00000011 Ry

     iteration # 11     ecut=    80.00 Ry     beta= 0.70
     Davidson diagonalization with overlap
     ethr =  3.53E-11,  avg # of iterations =  3.0

     negative rho (up, down):  1.711E-04 0.000E+00

     total cpu time spent up to now is      373.1 secs

     End of self-consistent calculation

          k = 0.0000 0.0000 0.0000 (105382 PWs)   bands (ev):

   -63.0537 -63.0147 -63.0075 -62.9981 -62.9933 -62.9862 -62.9804 -62.9759
   -62.9686 -62.9652 -62.9522 -62.8818 -37.4014 -37.3325 -37.3003 -37.2876
   -37.2772 -37.2603 -37.2471 -37.2320 -37.2206 -37.2141 -37.2048 -37.1991
   -37.1898 -37.1821 -37.1742 -37.1692 -37.1647 -37.1599 -37.1563 -37.1504
   -37.1468 -37.1419 -37.1278 -37.1232 -37.0977 -37.0733 -37.0670 -37.0610
   -37.0559 -37.0494 -37.0176 -37.0039 -36.9829 -36.9617 -36.9238 -36.9021
   -18.4274 -16.0789 -15.3037 -15.2670 -15.0825 -15.0228 -14.9094 -14.6303
   -14.5853 -14.5540 -14.5467 -14.5235 -14.4638 -14.4586 -14.3960 -14.2793
   -14.2522 -14.2462 -14.2324 -14.1615 -14.0059 -13.9878 -13.9775 -13.9302
    -7.8034  -7.6334  -7.4629  -7.4408  -7.3865  -7.3516  -7.3452  -7.2800
    -7.0062  -6.9741  -6.9143  -6.8764  -6.8203  -6.7049  -6.6308  -6.6080
    -6.5271  -6.4581  -6.4182  -6.2227  -6.1160  -6.0861  -6.0199  -5.9667
    -5.9114  -5.8975  -5.8377  -5.8089  -5.7937  -5.7611  -5.6832  -5.6596
    -5.6141  -5.5325  -5.5080  -5.3503  -5.2932  -5.1947  -5.1649  -5.1414
    -5.0873  -5.0511  -4.9963  -4.8489  -4.6935  -4.5982  -4.4672  -4.4287
    -4.3703  -4.3466  -4.2633  -4.1529  -4.0764  -4.0143  -3.9235  -3.8624
    -3.8485  -3.8099  -3.7303  -3.6987  -3.6506  -3.6181  -3.5992  -3.5643
    -3.5335  -3.5018  -3.3640  -3.3010  -3.2235  -3.0574  -2.9906  -2.9828
    -2.9210  -2.8721  -2.8449  -2.7975  -2.7759  -2.7499  -2.6552  -2.3897
    -2.2841  -2.1657  -2.0323  -1.6248  -1.5137  -0.9220  -0.6901  -0.3137
    -0.2792  -0.2319  -0.1659  -0.0720   0.0083   0.0230   0.0829   0.1437
     0.1802   0.2479   0.2784   0.3193   0.4005   0.4234   0.4397   0.4611
     0.5250   0.5738   0.6095   0.6260   0.6606   0.7155   0.7445   0.7987
     0.8342   0.8809   1.0013

     the Fermi energy is    -1.5692 ev

!    total energy              =   -2246.25359550 Ry
     estimated scf accuracy    <       0.00000003 Ry
     smearing contrib. (-TS)   =      -0.00955020 Ry
     internal energy E=F+TS    =   -2246.24404529 Ry

     The total energy is F=E-TS. E is the sum of the following terms:
     one-electron contribution =  -18425.04018560 Ry
     hartree contribution      =    9200.17902169 Ry
     xc contribution           =    -391.74816077 Ry
     ewald contribution        =    7380.24088809 Ry
     one-center paw contrib.   =      -9.87560870 Ry

     convergence has been achieved in  11 iterations

     negative rho (up, down):  1.711E-04 0.000E+00

     Forces acting on atoms (cartesian axes, Ry/au):

     atom    1 type  1   force =    -0.00353856   -0.00337359   -0.00466179
     atom    2 type  2   force =    -0.00431783    0.00612591   -0.00200267
     atom    3 type  2   force =    -0.00921848    0.00602905   -0.01184758
     atom    4 type  1   force =     0.00447957    0.00162151    0.00238037
     atom    5 type  2   force =     0.00188165   -0.00529156   -0.00470427
     atom    6 type  2   force =     0.00172749    0.00274788    0.00201315
     atom    7 type  1   force =     0.00651012   -0.00841617   -0.00316474
     atom    8 type  2   force =     0.00154458   -0.00495912    0.01231885
     atom    9 type  2   force =     0.00942755    0.00393307    0.00385204
     atom   10 type  1   force =    -0.00057041    0.00634074    0.00078041
     atom   11 type  2   force =     0.00988483   -0.00020337   -0.01130444
     atom   12 type  2   force =    -0.00701211   -0.00049568    0.00023856
     atom   13 type  1   force =     0.00282523   -0.00053505    0.00075384
     atom   14 type  2   force =     0.00401195    0.00094927    0.00657405
     atom   15 type  2   force =    -0.00657771    0.00116368   -0.00465348
     atom   16 type  1   force =     0.00561199    0.00136203    0.00019668
     atom   17 type  2   force =     0.00584222    0.00104992    0.00126077
     atom   18 type  2   force =    -0.00360552   -0.00209554    0.00845831
     atom   19 type  1   force =     0.00501070   -0.00884940    0.01351176
     atom   20 type  2   force =    -0.00129445   -0.00177030    0.00499642
     atom   21 type  1   force =    -0.00196455   -0.00260600    0.00675813
     atom   22 type  2   force =     0.03232593   -0.04352510    0.05113055
     atom   23 type  2   force =     0.00213059   -0.00559871    0.01142116
     atom   24 type  1   force =    -0.00323577   -0.00013079   -0.00082162
     atom   25 type  2   force =     0.00730418    0.00957043   -0.00498038
     atom   26 type  2   force =    -0.00522023   -0.00290278   -0.00531046
     atom   27 type  1   force =    -0.00268695   -0.00083735    0.00554693
     atom   28 type  2   force =    -0.00056302   -0.00243822   -0.00489791
     atom   29 type  2   force =     0.00185770    0.00247166   -0.00431947
     atom   30 type  1   force =    -0.00361895    0.00264618    0.00212956
     atom   31 type  2   force =    -0.01345273   -0.00313147    0.00727671
     atom   32 type  2   force =    -0.00051870    0.00441282    0.00970341
     atom   33 type  1   force =    -0.00012430   -0.00550380    0.00608895
     atom   34 type  2   force =    -0.00325139   -0.02040267   -0.01552546
     atom   35 type  2   force =    -0.00384005    0.00627491    0.00187967
     atom   36 type  3   force =    -0.02776455    0.06636764   -0.08107599
     The non-local contrib.  to forces
     atom    1 type  1   force =     0.00400384    0.02626122   -0.01060291
     atom    2 type  2   force =    -0.00298721   -0.00561119   -0.27085066
     atom    3 type  2   force =    -0.01006574   -0.00753821    0.26025520
     atom    4 type  1   force =    -0.00075662    0.01011506    0.00532858
     atom    5 type  2   force =     0.00930058   -0.03584713   -0.25835499
     atom    6 type  2   force =    -0.00269787    0.00388782    0.26702124
     atom    7 type  1   force =    -0.01329709   -0.00217770   -0.02202157
     atom    8 type  2   force =     0.00932185   -0.00553870   -0.25802255
     atom    9 type  2   force =     0.00416134   -0.00600632    0.27323127
     atom   10 type  1   force =    -0.00202555    0.00772329   -0.00196805
     atom   11 type  2   force =     0.01629056    0.01378267   -0.27068665
     atom   12 type  2   force =    -0.01623167   -0.01466640    0.26186565
[...]
     atom   28 type  2   force =     0.00609566   -0.01429671   -0.27527792
     atom   29 type  2   force =    -0.00181780   -0.00816555    0.26161402
     atom   30 type  1   force =    -0.01096258    0.00690763    0.01373349
     atom   31 type  2   force =    -0.04084572   -0.01058403   -0.25439547
     atom   32 type  2   force =     0.00643418   -0.02172129    0.27653313
     atom   33 type  1   force =     0.00869278   -0.01155761    0.00760691
     atom   34 type  2   force =     0.00477111   -0.00955937   -0.26946909
     atom   35 type  2   force =    -0.00483327   -0.00668374    0.26265924
     atom   36 type  3   force =    -0.55404330    1.55978548   -1.09596799
     The ionic contribution  to forces
     atom    1 type  1   force =     0.46735190    0.90209027   -0.60730365
     atom    2 type  2   force =    -0.15809266    0.41154176   38.51592913
     atom    3 type  2   force =     0.20762945   -0.13843958  -38.38822493
     atom    4 type  1   force =     0.34415787    0.04170647   -1.91341642
     atom    5 type  2   force =    -0.52970993    0.80019205   37.91286740
     atom    6 type  2   force =     0.23990648   -0.34475093  -39.20884342
     atom    7 type  1   force =    -0.59424410   -1.97383859   -1.39656919
     atom    8 type  2   force =    -0.91285380   -0.29516508   37.93952691
     atom    9 type  2   force =     0.59712154    0.06030697  -38.83916395
     atom   10 type  1   force =     0.12686552    0.03002180    0.87720279
     atom   11 type  2   force =     1.15988586   -0.86686364   37.75009268
     atom   12 type  2   force =     0.23886320    0.36790043  -38.83573410
     atom   13 type  1   force =    -0.37878263    1.05668390    1.01239333
     atom   14 type  2   force =     0.38729324    1.02230675   38.45971778
     atom   15 type  2   force =    -0.20134871   -0.22874814  -38.69157014
     atom   16 type  1   force =     0.31968177    1.68335630   -1.70301717
     atom   17 type  2   force =     0.71924790    0.59301945   37.88554009
     atom   18 type  2   force =    -0.40233548   -0.42059561  -38.79350428
     atom   19 type  1   force =    -0.01773112   -2.33891188    0.17757198
     atom   20 type  2   force =    -0.13711476    0.10119544  -39.86569781
     atom   21 type  1   force =     0.14134559    0.71056624   -1.51690209
     atom   22 type  2   force =    -1.39055260    4.82921530   39.31037147
     atom   23 type  2   force =    -0.57923021    0.30271286  -37.13822615
     atom   24 type  1   force =     0.09565732    0.47096868    0.85124948
     atom   25 type  2   force =    -0.30641994    0.94005801   38.72173276
     atom   26 type  2   force =    -0.08255855   -0.32267628  -37.90269382
     atom   27 type  1   force =    -0.26211781   -0.54873053   -1.48806272
     atom   28 type  2   force =    -0.28392089    0.28448518   37.95950591
     atom   29 type  2   force =     0.04626782   -0.15661192  -38.43928695
     atom   30 type  1   force =    -0.18985367   -0.68683942    0.22284355
     atom   31 type  2   force =    -0.84117766   -1.00971187   37.20502894
     atom   32 type  2   force =    -0.27727214    0.45055363  -38.06943834
     atom   33 type  1   force =    -0.24274786   -0.10115317    3.52367236
     atom   34 type  2   force =    -0.66542492   -0.26826029   38.80946191
     atom   35 type  2   force =     0.35586310    0.20235191  -37.97269137
     atom   36 type  3   force =     3.00635087   -5.55993645   43.63563804
     The local contribution  to forces
     atom    1 type  1   force =    -0.46420151   -0.93135953    0.61713090
     atom    2 type  2   force =     0.15429746   -0.39916996  -38.27295625
     atom    3 type  2   force =    -0.20254308    0.14835930   38.14295313
     atom    4 type  1   force =    -0.34857006   -0.04974696    1.90590412
     atom    5 type  2   force =     0.52493244   -0.77501034  -37.68078235
     atom    6 type  2   force =    -0.24127727    0.34681492   38.96715657
     atom    7 type  1   force =     0.61346524    1.97769767    1.42307029
     atom    8 type  2   force =     0.90452012    0.28858792  -37.69343489
     atom    9 type  2   force =    -0.58853779   -0.04947233   38.59319011
     atom   10 type  1   force =    -0.13192269   -0.03762810   -0.88289040
     atom   11 type  2   force =    -1.17342622    0.87009980  -37.51755896
     atom   12 type  2   force =    -0.23664385   -0.35628112   38.59314211
     atom   13 type  1   force =     0.37329568   -1.08587530   -1.01373305
     atom   14 type  2   force =    -0.36769381   -1.01661266  -38.21486042
     atom   15 type  2   force =     0.19196538    0.23471586   38.44878336
     atom   16 type  1   force =    -0.32013893   -1.71761606    1.72742535
     atom   17 type  2   force =    -0.71439683   -0.57043418  -37.65144049
     atom   18 type  2   force =     0.40154791    0.42698157   38.54857137
     atom   19 type  1   force =     0.02179749    2.35639547   -0.08953639
     atom   20 type  2   force =     0.13459846   -0.07688673   39.62319859
     atom   21 type  1   force =    -0.11732518   -0.73410973    1.50735449
     atom   22 type  2   force =     1.33426060   -4.36986109  -39.03194615
     atom   23 type  2   force =     0.57019383   -0.28862268   36.88444750
     atom   24 type  1   force =    -0.09524117   -0.48843609   -0.85111187
     atom   25 type  2   force =     0.29767322   -0.92654266  -38.47869050
     atom   26 type  2   force =     0.08475994    0.33219727   37.65247666
     atom   27 type  1   force =     0.27301878    0.54477668    1.48546458
     atom   28 type  2   force =     0.27892711   -0.27097759  -37.70574231
     atom   29 type  2   force =    -0.04356060    0.16431771   38.19789039
     atom   30 type  1   force =     0.20073276    0.68050480   -0.23660781
     atom   31 type  2   force =     0.87867485    1.01831026  -36.97106769
     atom   32 type  2   force =     0.27203584   -0.42946823   37.81389771
     atom   33 type  1   force =     0.23457156    0.11437834   -3.53099533
     atom   34 type  2   force =     0.66076597    0.27720554  -38.56023903
     atom   35 type  2   force =    -0.35221114   -0.19528506   37.72988330
     atom   36 type  3   force =    -2.45960479    4.01716769  -42.55087740
     The core correction contribution to forces
     atom    1 type  1   force =     0.00000000    0.00000000    0.00000000
     atom    2 type  2   force =    -0.00037631    0.00057740    0.02071803
     atom    3 type  2   force =     0.00033694    0.00037961   -0.02088491
     atom    4 type  1   force =     0.00000000    0.00000000    0.00000000
     atom    5 type  2   force =    -0.00046621    0.00114223    0.02038594
     atom    6 type  2   force =     0.00005951   -0.00035147   -0.02074789
     atom    7 type  1   force =     0.00000000    0.00000000    0.00000000
     atom    8 type  2   force =    -0.00053368   -0.00014261    0.02089629
     atom    9 type  2   force =     0.00081704    0.00063733   -0.02089472
     atom   10 type  1   force =     0.00000000    0.00000000    0.00000000
     atom   11 type  2   force =    -0.00048658   -0.00049437    0.02038669
     atom   12 type  2   force =     0.00032790    0.00090853   -0.02074543
     atom   13 type  1   force =     0.00000000    0.00000000    0.00000000
     atom   14 type  2   force =     0.00117134    0.00040691    0.02090329
     atom   15 type  2   force =    -0.00054344    0.00025626   -0.02077199
     atom   16 type  1   force =     0.00000000    0.00000000    0.00000000
     atom   17 type  2   force =     0.00046127    0.00124967    0.02031662
     atom   18 type  2   force =    -0.00036059   -0.00012762   -0.02080492
     atom   19 type  1   force =     0.00000000    0.00000000    0.00000000
     atom   20 type  2   force =    -0.00035475    0.00133459   -0.02134643
     atom   21 type  1   force =     0.00000000    0.00000000    0.00000000
     atom   22 type  2   force =    -0.00385901    0.02707478    0.01904763
     atom   23 type  2   force =    -0.00083413    0.00069601   -0.02128017
     atom   24 type  1   force =     0.00000000    0.00000000    0.00000000
     atom   25 type  2   force =    -0.00059001    0.00106852    0.02062767
     atom   26 type  2   force =     0.00010355    0.00017993   -0.02096594
     atom   27 type  1   force =     0.00000000    0.00000000    0.00000000
     atom   28 type  2   force =    -0.00046763    0.00092933    0.02124050
     atom   29 type  2   force =     0.00002847    0.00016097   -0.02060705
     atom   30 type  1   force =     0.00000000    0.00000000    0.00000000
     atom   31 type  2   force =     0.00226549    0.00101645    0.02065866
     atom   32 type  2   force =    -0.00026072    0.00154236   -0.02096544
     atom   33 type  1   force =     0.00000000    0.00000000    0.00000000
     atom   34 type  2   force =    -0.00042987    0.00029032    0.02105557
     atom   35 type  2   force =     0.00053394    0.00059023   -0.02081526
     atom   36 type  3   force =     0.00598515   -0.01698119    0.01207192
     The Hubbard contrib.    to forces
     atom    1 type  1   force =     0.00000000    0.00000000    0.00000000
     atom    2 type  2   force =     0.00000000    0.00000000    0.00000000
     atom    3 type  2   force =     0.00000000    0.00000000    0.00000000
     atom    4 type  1   force =     0.00000000    0.00000000    0.00000000
     atom    5 type  2   force =     0.00000000    0.00000000    0.00000000
     atom    6 type  2   force =     0.00000000    0.00000000    0.00000000
     atom    7 type  1   force =     0.00000000    0.00000000    0.00000000
     atom    8 type  2   force =     0.00000000    0.00000000    0.00000000
     atom    9 type  2   force =     0.00000000    0.00000000    0.00000000
     atom   10 type  1   force =     0.00000000    0.00000000    0.00000000
     atom   11 type  2   force =     0.00000000    0.00000000    0.00000000
     atom   12 type  2   force =     0.00000000    0.00000000    0.00000000
     atom   13 type  1   force =     0.00000000    0.00000000    0.00000000
     atom   14 type  2   force =     0.00000000    0.00000000    0.00000000
     atom   15 type  2   force =     0.00000000    0.00000000    0.00000000
     atom   16 type  1   force =     0.00000000    0.00000000    0.00000000
     atom   17 type  2   force =     0.00000000    0.00000000    0.00000000
     atom   18 type  2   force =     0.00000000    0.00000000    0.00000000
     atom   19 type  1   force =     0.00000000    0.00000000    0.00000000
     atom   20 type  2   force =     0.00000000    0.00000000    0.00000000
     atom   21 type  1   force =     0.00000000    0.00000000    0.00000000
     atom   22 type  2   force =     0.00000000    0.00000000    0.00000000
     atom   23 type  2   force =     0.00000000    0.00000000    0.00000000
     atom   24 type  1   force =     0.00000000    0.00000000    0.00000000
     atom   25 type  2   force =     0.00000000    0.00000000    0.00000000
     atom   26 type  2   force =     0.00000000    0.00000000    0.00000000
     atom   27 type  1   force =     0.00000000    0.00000000    0.00000000
     atom   28 type  2   force =     0.00000000    0.00000000    0.00000000
     atom   29 type  2   force =     0.00000000    0.00000000    0.00000000
     atom   30 type  1   force =     0.00000000    0.00000000    0.00000000
     atom   31 type  2   force =     0.00000000    0.00000000    0.00000000
     atom   32 type  2   force =     0.00000000    0.00000000    0.00000000
     atom   33 type  1   force =     0.00000000    0.00000000    0.00000000
     atom   34 type  2   force =     0.00000000    0.00000000    0.00000000
     atom   35 type  2   force =     0.00000000    0.00000000    0.00000000
     atom   36 type  3   force =     0.00000000    0.00000000    0.00000000
     The SCF correction term to forces
     atom    1 type  1   force =    -0.00000328    0.00004895   -0.00001688
     atom    2 type  2   force =     0.00000194    0.00000330   -0.00000506
     atom    3 type  2   force =    -0.00000323   -0.00000191   -0.00000926
     atom    4 type  1   force =    -0.00000310    0.00003210   -0.00002073
     atom    5 type  2   force =    -0.00000184    0.00001548   -0.00001004
     atom    6 type  2   force =     0.00000002    0.00001881   -0.00000068
     atom    7 type  1   force =     0.00001799   -0.00001833   -0.00003975
     atom    8 type  2   force =    -0.00000884   -0.00000382   -0.00001461
     atom    9 type  2   force =    -0.00000642   -0.00000102   -0.00000505
     atom   10 type  1   force =     0.00000253   -0.00005389   -0.00003050
     atom   11 type  2   force =     0.00001136   -0.00001916   -0.00002538
     atom   12 type  2   force =     0.00000332   -0.00002093   -0.00000253
     atom   13 type  1   force =    -0.00000979    0.00004666    0.00001517
     atom   14 type  2   force =     0.00000288    0.00001421   -0.00000642
     atom   15 type  2   force =     0.00000660    0.00000175   -0.00000768
     atom   16 type  1   force =     0.00000393    0.00002155   -0.00001472
     atom   17 type  2   force =     0.00000346    0.00001146   -0.00000702
     atom   18 type  2   force =     0.00000758    0.00002315    0.00000139
     atom   19 type  1   force =     0.00001229   -0.00003510   -0.00007011
     atom   20 type  2   force =     0.00000400   -0.00000134   -0.00000951
     atom   21 type  1   force =     0.00001738   -0.00004007   -0.00004589
     atom   22 type  2   force =    -0.00000207    0.00000272   -0.00003149
     atom   23 type  2   force =     0.00000414   -0.00001989   -0.00001604
     atom   24 type  1   force =     0.00000958    0.00003732    0.00000123
     atom   25 type  2   force =    -0.00000408    0.00000914   -0.00001332
     atom   26 type  2   force =    -0.00000291   -0.00000270    0.00000350
     atom   27 type  1   force =    -0.00000288    0.00001560   -0.00000853
     atom   28 type  2   force =    -0.00000175    0.00001035   -0.00001132
     atom   29 type  2   force =    -0.00000645    0.00002024    0.00000019
     atom   30 type  1   force =    -0.00003829   -0.00002919   -0.00003996
     atom   31 type  2   force =    -0.00000664   -0.00001934   -0.00001790
     atom   32 type  2   force =     0.00000171   -0.00000214   -0.00001207
     atom   33 type  1   force =    -0.00001495   -0.00001483   -0.00002720
     atom   34 type  2   force =    -0.00001454   -0.00000379   -0.00001873
     atom   35 type  2   force =    -0.00000837   -0.00001454   -0.00000640
     atom   36 type  3   force =     0.00005600   -0.00006559   -0.00004316

     Total force =     0.006634     Total SCF correction =     0.000220
     Energy error            =      1.0E-04 Ry
     Gradient error          =      1.7E-03 Ry/Bohr

     bfgs converged in  28 scf cycles and  26 bfgs steps
     (criteria: energy <  1.0E-04 Ry, force <  1.0E-02 Ry/Bohr)

     End of BFGS Geometry Optimization

     Final energy             =   -2246.3974530759 Ry

     File ./MoS2-V-O.bfgs deleted, as requested
Begin final coordinates

ATOMIC_POSITIONS (angstrom)
Mo            6.5801229036        1.7448580688        2.7348829037
S             8.1438238139        0.8384217302        4.3626729892
S             8.1742397821        0.8168531951        1.1668399136
Mo            8.1160446552        4.4758411565        2.6995795339
S             6.5254949113        3.6473071791        4.2905144707
S             6.5627435131        3.5436011971        1.0852822542
Mo            6.5155119439        7.1724533673        2.6671169077
S             8.0488542293        6.2736604970        4.3094040718
S             8.1344064442        6.3208819179        1.1159432658
Mo            8.1675174975        9.9225904393        2.7778020501
S             6.5659774985        8.9522822541        4.3247949965
S             6.6001496028        9.0354678317        1.1394550484
Mo            3.4461724169        1.7375470704        2.7722004105
S             5.0457700055        0.8620635562        4.3659837940
S             4.9922635889        0.8321235027        1.1561977368
Mo            5.0056065051        4.5102026380        2.6432947407
S             3.4749593255        3.6578804409        4.3087139574
S             3.4245660412        3.5416078421        1.1140862287
Mo            3.5321659164        7.1082600127        2.7976747368
S             4.9582328254        6.3139638046        1.0666446984
Mo            5.0403027962        9.9429496672        2.7677890403
S             3.5458441657        9.2592132852        4.6351209932
S             3.4318173989        8.9584688267        1.2685454913
Mo            0.2799208346        1.7191277497        2.7741148841
S             1.8654694570        0.8625408356        4.4035407480
S             1.8762638666        0.7869563434        1.2035084163
Mo            1.8436416911        4.4557199352        2.7233267128
S             0.2427228256        3.5798768868        4.3196023941
S             0.2690471954        3.5303665870        1.1460389856
Mo            0.2412535574        7.2028355060        2.7641753437
S             1.8107015963        6.2349696442        4.3001658708
S             1.8667660980        6.3057573089        1.1687306043
Mo            1.8706242858        9.9100879857        2.8526870072
S             0.2629561466        8.9968123035        4.4013613686
S             0.3176747966        9.0307768559        1.2111382410
O             3.8957213244        7.6825523213        4.8158307267
End final coordinates



     Writing all to output data dir ./MoS2-V-O.save/
 
     init_run     :      5.39s CPU      5.87s WALL (       1 calls)
     electrons    :   2519.71s CPU   2845.83s WALL (      28 calls)
     update_pot   :     86.00s CPU     91.38s WALL (      27 calls)
     forces       :     76.54s CPU     87.07s WALL (      28 calls)

     Called by init_run:
     wfcinit      :      0.48s CPU      0.53s WALL (       1 calls)
     potinit      :      3.12s CPU      3.36s WALL (       1 calls)
     hinit0       :      0.44s CPU      0.46s WALL (       1 calls)

     Called by electrons:
     c_bands      :    369.04s CPU    377.80s WALL (     258 calls)
     sum_band     :    144.85s CPU    186.15s WALL (     258 calls)
     v_of_rho     :    246.10s CPU    298.80s WALL (     280 calls)
     newd         :     86.68s CPU    126.37s WALL (     280 calls)
     PAW_pot      :     11.14s CPU     11.19s WALL (     307 calls)
     mix_rho      :   1690.58s CPU   1876.55s WALL (     258 calls)

     Called by c_bands:
     init_us_2    :      5.93s CPU      6.36s WALL (     544 calls)
     init_us_2:cp :      5.92s CPU      6.36s WALL (     544 calls)
     regterg      :    349.44s CPU    357.75s WALL (     258 calls)

     Called by *egterg:
     rdiaghg      :     24.47s CPU     24.72s WALL (    1411 calls)
     h_psi        :    226.41s CPU    228.41s WALL (    1445 calls)
     s_psi        :     21.68s CPU     21.79s WALL (    1445 calls)
     g_psi        :      1.09s CPU      1.11s WALL (    1186 calls)

     Called by h_psi:
     h_psi:calbec :     24.76s CPU     24.92s WALL (    1445 calls)
     vloc_psi     :    177.45s CPU    179.12s WALL (    1445 calls)
     add_vuspsi   :     21.40s CPU     21.53s WALL (    1445 calls)

     General routines
     calbec       :     35.93s CPU     36.17s WALL (    1842 calls)
     fft          :    172.12s CPU    198.69s WALL (   18709 calls)
     ffts         :    761.08s CPU    940.23s WALL (  415356 calls)
     fftw         :    113.18s CPU    114.09s WALL (  157410 calls)
     interpolate  :      3.50s CPU      4.03s WALL (     280 calls)
 
     Parallel routines
 
     PWSCF        :  44m59.81s CPU  50m47.71s WALL

 
   This run was terminated on:  20:10:49   1Nov2023            

=------------------------------------------------------------------------------=
   JOB DONE.
=------------------------------------------------------------------------------=
