
     Program PWSCF v.7.2 starts on  1Nov2023 at 18:37:23 

     This program is part of the open-source Quantum ESPRESSO suite
     for quantum simulation of materials; please cite
         "P. Giannozzi et al., J. Phys.:Condens. Matter 21 395502 (2009);
         "P. Giannozzi et al., J. Phys.:Condens. Matter 29 465901 (2017);
         "P. Giannozzi et al., J. Chem. Phys. 152 154105 (2020);
          URL http://www.quantum-espresso.org", 
     in publications or presentations arising from this work. More details at
     http://www.quantum-espresso.org/quote

     Parallel version (MPI & OpenMP), running on      48 processor cores
     Number of MPI processes:                48
     Threads/MPI process:                     1

     MPI processes distributed on     1 nodes
     58682 MiB available memory on the printing compute node when the environment starts
 
     Waiting for input...
     Reading input from standard input
Warning: card &CELL ignored
Warning: card CELL_DYNAMICS = 'BFGS', ignored
Warning: card CELL_DOFREE = '2DXY' ignored
Warning: card / ignored

     Current dimensions of program PWSCF are:
     Max number of different atomic species (ntypx) = 10
     Max number of k-points (npk) =  40000
     Max angular momentum in pseudopotentials (lmaxx) =  4
     file O.pbe-n-kjpaw_psl.0.1.UPF: wavefunction(s)  2P renormalized

     IMPORTANT: XC functional enforced from input :
     Exchange-correlation= RVV10
                           (   1   4  13   4  26   0   0)
     Any further DFT definition will be discarded
     Please, verify this is what you really want


     gamma-point specific algorithms are used
     signal trapping enabled: kill the code with -SIGUSR1 to stop cleanly the simulation 
 
     R & G space division:  proc/nbgrp/npool/nimage =      48
     Subspace diagonalization in iterative solution of the eigenvalue problem:
     one sub-group per band group will be used
     scalapack distributed-memory algorithm (size of sub-group:  2*  2 procs)

 
     Parallelization info
     --------------------
     sticks:   dense  smooth     PW     G-vecs:    dense   smooth      PW
     Min         396     194     47               101632    35090    4376
     Max         398     196     50               101674    35128    4410
     Sum       19091    9389   2349              4879585  1685513  210763
 
     Using Slab Decomposition
 


     bravais-lattice index     =            0
     lattice parameter (alat)  =      17.8707  a.u.
     unit-cell volume          =   17436.2743 (a.u.)^3
     number of atoms/cell      =           36
     number of atomic types    =            3
     number of electrons       =       312.00
     number of Kohn-Sham states=          187
     kinetic-energy cutoff     =      80.0000  Ry
     charge density cutoff     =     650.0000  Ry
     scf convergence threshold =      1.0E-06
     mixing beta               =       0.7000
     number of iterations used =            8  local-TF  mixing
     energy convergence thresh.=      1.0E-04
     force convergence thresh. =      1.0E-02
     Exchange-correlation= RVV10
                           (   1   4  13   4  26   0   0)
     nstep                     =          200


     celldm(1)=  17.870686  celldm(2)=   0.000000  celldm(3)=   0.000000
     celldm(4)=   0.000000  celldm(5)=   0.000000  celldm(6)=   0.000000

     crystal axes: (cart. coord. in units of alat)
               a(1) = (   1.000000   0.000000   0.000000 )  
               a(2) = (   0.000000   1.155671   0.000000 )  
               a(3) = (   0.000000   0.000000   2.643601 )  

     reciprocal axes: (cart. coord. in units 2 pi/alat)
               b(1) = (  1.000000  0.000000  0.000000 )  
               b(2) = (  0.000000  0.865298  0.000000 )  
               b(3) = (  0.000000  0.000000  0.378272 )  


     PseudoPot. # 1 for Mo read from file:
     ../pseudo/Mo_ONCV_PBE-1.0.oncvpsp.upf
     MD5 check sum: 1b5d28e075c9ccadda658a603575cd1f
     Pseudo is Norm-conserving, Zval = 14.0
     Generated using ONCVPSP code by D. R. Hamann
     Using radial grid of 1526 points,  6 beta functions with: 
                l(1) =   0
                l(2) =   0
                l(3) =   1
                l(4) =   1
                l(5) =   2
                l(6) =   2

     PseudoPot. # 2 for S  read from file:
     ../pseudo/s_pbe_v1.4.uspp.F.UPF
     MD5 check sum: 88d86576ff6df21479756cfb9bdac1df
     Pseudo is Ultrasoft + core correction, Zval =  6.0
     Generated by new atomic code, or converted to UPF format
     Using radial grid of  907 points,  6 beta functions with: 
                l(1) =   0
                l(2) =   0
                l(3) =   1
                l(4) =   1
                l(5) =   2
                l(6) =   2
     Q(r) pseudized with  8 coefficients,  rinner =    1.300   1.300   1.300
                                                       1.300   1.300

     PseudoPot. # 3 for O  read from file:
     ../pseudo/O.pbe-n-kjpaw_psl.0.1.UPF
     MD5 check sum: 0234752ac141de4415c5fc33072bef88
     Pseudo is Projector augmented-wave + core cor, Zval =  6.0
     Generated using "atomic" code by A. Dal Corso  v.5.0.99 svn rev. 10869
     Shape of augmentation charge: BESSEL
     Using radial grid of 1095 points,  4 beta functions with: 
                l(1) =   0
                l(2) =   0
                l(3) =   1
                l(4) =   1
     Q(r) pseudized with 0 coefficients 


     atomic species   valence    mass     pseudopotential
        Mo            14.00    95.94000     Mo( 1.00)
        S              6.00    32.06500     S ( 1.00)
        O              6.00    15.99940     O ( 1.00)

     No symmetry found



   Cartesian axes

     site n.     atom                  positions (alat units)
         1           Mo  tau(   1) = (   0.6952221   0.1890506   0.2985846  )
         2           S   tau(   2) = (   0.8646417   0.0856217   0.4689279  )
         3           S   tau(   3) = (   0.8663890   0.0857843   0.1351291  )
         4           Mo  tau(   4) = (   0.8560186   0.4753274   0.2873942  )
         5           S   tau(   5) = (   0.6873294   0.3936244   0.4596353  )
         6           S   tau(   6) = (   0.6929804   0.3713468   0.1185692  )
         7           Mo  tau(   7) = (   0.6862796   0.7633098   0.2825370  )
         8           S   tau(   8) = (   0.8545980   0.6708292   0.4486168  )
         9           S   tau(   9) = (   0.8545123   0.6666874   0.1146125  )
        10           Mo  tau(  10) = (   0.8629403   1.0471007   0.3006803  )
        11           S   tau(  11) = (   0.6868280   0.9456650   0.4634891  )
        12           S   tau(  12) = (   0.6998113   0.9568511   0.1205389  )
        13           Mo  tau(  13) = (   0.3618216   0.1847309   0.2935964  )
        14           S   tau(  14) = (   0.5260962   0.0863870   0.4600448  )
        15           S   tau(  15) = (   0.5348379   0.0894875   0.1297123  )
        16           Mo  tau(  16) = (   0.5265817   0.4772436   0.2784130  )
        17           S   tau(  17) = (   0.3624753   0.3882513   0.4525556  )
        18           S   tau(  18) = (   0.3635411   0.3752055   0.1119148  )
        19           Mo  tau(  19) = (   0.3652268   0.7630864   0.2781795  )
        20           S   tau(  20) = (   0.5269494   0.6690381   0.1096838  )
        21           Mo  tau(  21) = (   0.5300192   1.0470394   0.2900995  )
        22           S   tau(  22) = (   0.3670346   0.9457522   0.4574073  )
        23           S   tau(  23) = (   0.3604225   0.9585725   0.1159032  )
        24           Mo  tau(  24) = (   0.0313099   0.1847895   0.3013130  )
        25           S   tau(  25) = (   0.1956761   0.0838230   0.4650863  )
        26           S   tau(  26) = (   0.1967693   0.0903508   0.1278874  )
        27           Mo  tau(  27) = (   0.1967578   0.4753919   0.2813011  )
        28           S   tau(  28) = (   0.0287851   0.3864324   0.4586755  )
        29           S   tau(  29) = (   0.0244514   0.3729871   0.1239344  )
        30           Mo  tau(  30) = (   0.0286728   0.7631204   0.2856894  )
        31           S   tau(  31) = (   0.2011512   0.6675435   0.4465001  )
        32           S   tau(  32) = (   0.1969214   0.6672839   0.1104564  )
        33           Mo  tau(  33) = (   0.1950294   1.0511147   0.2932237  )
        34           S   tau(  34) = (   0.0312912   0.9612169   0.4667423  )
        35           S   tau(  35) = (   0.0292670   0.9563028   0.1216485  )
        36           O   tau(  36) = (   1.0000000   0.6420393   0.5656742  )

     number of k points=     1  Gaussian smearing, width (Ry)=  0.0100
                       cart. coord. in units 2pi/alat
        k(    1) = (   0.0000000   0.0000000   0.0000000), wk =   2.0000000

     Dense  grid:  2439793 G-vectors     FFT dimensions: ( 150, 180, 384)

     Smooth grid:   842757 G-vectors     FFT dimensions: ( 108, 120, 270)

     Estimated max dynamical RAM per process >     269.22 MB

     Estimated total dynamical RAM >      12.62 GB

     Initial potential from superposition of free atoms

     starting charge     311.9873, renormalised to     312.0000

     negative rho (up, down):  2.746E-04 0.000E+00


---------------------------------------------------------------------------------
Carrying out rVV10 run using the following parameters:
Nqs =      20    Nr_points =    1024   r_max =   100.000
b_value =  6.30000    beta =  0.00901
     q_mesh =  0.00010000  0.00030000  0.00058939  0.00100810
               0.00161396  0.00249058  0.00375900  0.00559430
               0.00824984  0.01209221  0.01765183  0.02569619
               0.03733578  0.05417739  0.07854596  0.11380545
               0.16482331  0.23864234  0.34545298  0.50000000

Gradients computed in Reciprocal space

---------------------------------------------------------------------------------


     Starting wfcs are  216 randomized atomic wfcs
     Checking if some PAW data can be deallocated... 

     total cpu time spent up to now is        5.3 secs

     Self-consistent Calculation

     iteration #  1     ecut=    80.00 Ry     beta= 0.70
     Davidson diagonalization with overlap
     ethr =  1.00E-02,  avg # of iterations =  2.0

     Threshold (ethr) on eigenvalues was too large:
     Diagonalizing with lowered threshold

     Davidson diagonalization with overlap
     ethr =  4.51E-04,  avg # of iterations =  3.0

     negative rho (up, down):  3.022E-08 0.000E+00

     total cpu time spent up to now is       20.9 secs

     total energy              =   -2246.20158823 Ry
     estimated scf accuracy    <       1.64904446 Ry

     iteration #  2     ecut=    80.00 Ry     beta= 0.70
     Davidson diagonalization with overlap
     ethr =  5.29E-04,  avg # of iterations =  4.0

     total cpu time spent up to now is       26.1 secs

     total energy              =   -2246.20603345 Ry
     estimated scf accuracy    <       0.79412432 Ry

     iteration #  3     ecut=    80.00 Ry     beta= 0.70
     Davidson diagonalization with overlap
     ethr =  2.55E-04,  avg # of iterations =  2.0

     total cpu time spent up to now is       30.0 secs

     total energy              =   -2246.19173368 Ry
     estimated scf accuracy    <       0.27911986 Ry

     iteration #  4     ecut=    80.00 Ry     beta= 0.70
     Davidson diagonalization with overlap
     ethr =  8.95E-05,  avg # of iterations =  8.0

     total cpu time spent up to now is       34.3 secs

     total energy              =   -2246.23671863 Ry
     estimated scf accuracy    <       0.03922877 Ry

     iteration #  5     ecut=    80.00 Ry     beta= 0.70
     Davidson diagonalization with overlap
     ethr =  1.26E-05,  avg # of iterations = 18.0

     total cpu time spent up to now is       39.4 secs

     total energy              =   -2246.23867989 Ry
     estimated scf accuracy    <       0.01899980 Ry

     iteration #  6     ecut=    80.00 Ry     beta= 0.70
     Davidson diagonalization with overlap
     ethr =  6.09E-06,  avg # of iterations =  2.0

     total cpu time spent up to now is       43.2 secs

     total energy              =   -2246.23855258 Ry
     estimated scf accuracy    <       0.01289595 Ry

     iteration #  7     ecut=    80.00 Ry     beta= 0.70
     Davidson diagonalization with overlap
     ethr =  4.13E-06,  avg # of iterations =  2.0

     total cpu time spent up to now is       46.9 secs

     total energy              =   -2246.23779105 Ry
     estimated scf accuracy    <       0.00929669 Ry

     iteration #  8     ecut=    80.00 Ry     beta= 0.70
     Davidson diagonalization with overlap
     ethr =  2.98E-06,  avg # of iterations =  1.0

     negative rho (up, down):  5.093E-05 0.000E+00

     total cpu time spent up to now is       52.3 secs

     total energy              =   -2246.23642090 Ry
     estimated scf accuracy    <       0.00597935 Ry

     iteration #  9     ecut=    80.00 Ry     beta= 0.70
     Davidson diagonalization with overlap
     ethr =  1.92E-06,  avg # of iterations =  2.0

     negative rho (up, down):  9.510E-03 0.000E+00

     total cpu time spent up to now is       58.5 secs

     total energy              =   -2246.23604975 Ry
     estimated scf accuracy    <       0.00279296 Ry

     iteration # 10     ecut=    80.00 Ry     beta= 0.70
     Davidson diagonalization with overlap
     ethr =  8.95E-07,  avg # of iterations =  2.0

     negative rho (up, down):  1.767E-02 0.000E+00

     total cpu time spent up to now is       64.4 secs

     total energy              =   -2246.23583593 Ry
     estimated scf accuracy    <       0.00161123 Ry

     iteration # 11     ecut=    80.00 Ry     beta= 0.70
     Davidson diagonalization with overlap
     ethr =  5.16E-07,  avg # of iterations =  2.0

     negative rho (up, down):  2.193E-02 0.000E+00

     total cpu time spent up to now is       71.3 secs

     total energy              =   -2246.23597335 Ry
     estimated scf accuracy    <       0.00064826 Ry

     iteration # 12     ecut=    80.00 Ry     beta= 0.70
     Davidson diagonalization with overlap
     ethr =  2.08E-07,  avg # of iterations =  2.0

     negative rho (up, down):  9.395E-03 0.000E+00

     total cpu time spent up to now is       78.6 secs

     total energy              =   -2246.23594538 Ry
     estimated scf accuracy    <       0.00013238 Ry

     iteration # 13     ecut=    80.00 Ry     beta= 0.70
     Davidson diagonalization with overlap
     ethr =  4.24E-08,  avg # of iterations =  5.0

     negative rho (up, down):  2.534E-03 0.000E+00

     total cpu time spent up to now is       87.0 secs

     total energy              =   -2246.23601367 Ry
     estimated scf accuracy    <       0.00002902 Ry

     iteration # 14     ecut=    80.00 Ry     beta= 0.70
     Davidson diagonalization with overlap
     ethr =  9.30E-09,  avg # of iterations =  6.0

     negative rho (up, down):  1.004E-03 0.000E+00

     total cpu time spent up to now is       97.0 secs

     total energy              =   -2246.23602110 Ry
     estimated scf accuracy    <       0.00000898 Ry

     iteration # 15     ecut=    80.00 Ry     beta= 0.70
     Davidson diagonalization with overlap
     ethr =  2.88E-09,  avg # of iterations =  4.0

     negative rho (up, down):  4.647E-04 0.000E+00

     total cpu time spent up to now is      104.2 secs

     total energy              =   -2246.23602761 Ry
     estimated scf accuracy    <       0.00000307 Ry

     iteration # 16     ecut=    80.00 Ry     beta= 0.70
     Davidson diagonalization with overlap
     ethr =  9.85E-10,  avg # of iterations =  5.0

     negative rho (up, down):  3.086E-04 0.000E+00

     total cpu time spent up to now is      114.3 secs

     total energy              =   -2246.23602829 Ry
     estimated scf accuracy    <       0.00000103 Ry

     iteration # 17     ecut=    80.00 Ry     beta= 0.70
     Davidson diagonalization with overlap
     ethr =  3.32E-10,  avg # of iterations =  4.0

     negative rho (up, down):  2.001E-04 0.000E+00

     total cpu time spent up to now is      118.0 secs

     End of self-consistent calculation

          k = 0.0000 0.0000 0.0000 (105382 PWs)   bands (ev):

   -63.0240 -62.9872 -62.9602 -62.9490 -62.9395 -62.9301 -62.9190 -62.9145
   -62.9011 -62.8899 -62.8530 -62.8445 -37.3892 -37.2907 -37.2621 -37.2346
   -37.2292 -37.2231 -37.2023 -37.1824 -37.1816 -37.1716 -37.1569 -37.1500
   -37.1326 -37.1254 -37.1176 -37.1122 -37.1059 -37.1048 -37.0946 -37.0907
   -37.0824 -37.0781 -37.0721 -37.0435 -37.0274 -37.0234 -37.0109 -36.9988
   -36.9912 -36.9862 -36.9711 -36.9493 -36.9268 -36.9062 -36.8889 -36.8316
   -20.0199 -16.0276 -15.2939 -15.1995 -15.1585 -14.9747 -14.8583 -14.7615
   -14.6046 -14.5319 -14.4939 -14.4598 -14.4369 -14.3936 -14.3370 -14.2701
   -14.2473 -14.1996 -14.1733 -14.0049 -13.9747 -13.9574 -13.9377 -13.9190
    -7.8432  -7.7624  -7.5621  -7.4769  -7.4206  -7.3503  -7.3045  -7.2909
    -7.2237  -7.0239  -6.9355  -6.8703  -6.8589  -6.7794  -6.6938  -6.6249
    -6.5391  -6.4741  -6.3850  -6.3479  -6.1573  -6.0580  -6.0322  -5.9999
    -5.8909  -5.8574  -5.8206  -5.7862  -5.7802  -5.7312  -5.6969  -5.6271
    -5.6112  -5.5804  -5.5530  -5.3205  -5.2652  -5.1981  -5.1580  -5.1147
    -5.0574  -5.0307  -4.9086  -4.8297  -4.7002  -4.6104  -4.4239  -4.4075
    -4.3782  -4.3185  -4.1753  -4.1167  -4.0728  -4.0109  -3.9201  -3.8971
    -3.8423  -3.8117  -3.7049  -3.6737  -3.6281  -3.6209  -3.5816  -3.5516
    -3.4987  -3.4700  -3.3099  -3.2617  -3.0743  -3.0193  -2.9419  -2.9281
    -2.9015  -2.8287  -2.8110  -2.7713  -2.7412  -2.6999  -2.5402  -2.3580
    -2.1669  -2.0843  -2.0024  -1.7575  -1.4154  -0.9336  -0.6791  -0.2766
    -0.2335  -0.1325  -0.0405  -0.0019   0.0278   0.1082   0.1303   0.1587
     0.1782   0.2376   0.3087   0.3729   0.4375   0.4623   0.4828   0.5305
     0.5866   0.6398   0.6764   0.6899   0.7109   0.7462   0.7872   0.8456
     0.9353   0.9802   1.1295

     the Fermi energy is    -1.5865 ev

!    total energy              =   -2246.23602719 Ry
     estimated scf accuracy    <       0.00000016 Ry
     smearing contrib. (-TS)   =      -0.00232465 Ry
     internal energy E=F+TS    =   -2246.23370254 Ry

     The total energy is F=E-TS. E is the sum of the following terms:
     one-electron contribution =  -18450.15552278 Ry
     hartree contribution      =    9213.00169751 Ry
     xc contribution           =    -391.92597425 Ry
     ewald contribution        =    7392.71753613 Ry
     one-center paw contrib.   =      -9.87143915 Ry

     convergence has been achieved in  17 iterations

     negative rho (up, down):  2.001E-04 0.000E+00

     Forces acting on atoms (cartesian axes, Ry/au):

     atom    1 type  1   force =     0.01061650   -0.02419716    0.00442783
     atom    2 type  2   force =    -0.01290994    0.01521584    0.00240550
     atom    3 type  2   force =    -0.01212379    0.01018213   -0.00390783
     atom    4 type  1   force =     0.00329787   -0.00382463   -0.00771864
     atom    5 type  2   force =    -0.00193160   -0.00844952   -0.00335699
     atom    6 type  2   force =    -0.00331345    0.00838478   -0.00079374
     atom    7 type  1   force =    -0.00637201    0.00535620   -0.01242094
     atom    8 type  2   force =     0.12904337   -0.05654738    0.07946792
     atom    9 type  2   force =     0.00993518    0.00745729    0.01287915
     atom   10 type  1   force =    -0.00857321    0.00405114   -0.02640011
     atom   11 type  2   force =     0.00112145    0.00533643   -0.00830083
     atom   12 type  2   force =    -0.00474246   -0.00193873    0.00249843
     atom   13 type  1   force =     0.00522150    0.00473830   -0.00632418
     atom   14 type  2   force =     0.00774835   -0.00070198    0.01265028
     atom   15 type  2   force =    -0.01161696    0.00261073   -0.00804802
     atom   16 type  1   force =     0.00558129    0.01204458    0.00133944
     atom   17 type  2   force =     0.00746546   -0.00038665    0.00278699
     atom   18 type  2   force =    -0.00113278   -0.00795753    0.01066087
     atom   19 type  1   force =     0.01055455   -0.01143993   -0.01066073
     atom   20 type  2   force =     0.00634361   -0.00310307   -0.00181293
     atom   21 type  1   force =    -0.00127036    0.00988655    0.00106886
     atom   22 type  2   force =    -0.00387942   -0.00221359   -0.00025649
     atom   23 type  2   force =    -0.00099914   -0.00125005    0.00695613
     atom   24 type  1   force =    -0.01108272   -0.00498600   -0.02266904
     atom   25 type  2   force =     0.01548348    0.01890159    0.00854260
     atom   26 type  2   force =    -0.01029846    0.00031606   -0.00507814
     atom   27 type  1   force =    -0.00236004    0.00293733    0.01036048
     atom   28 type  2   force =     0.00261723   -0.00654919   -0.01265746
     atom   29 type  2   force =     0.00198615    0.00001787   -0.00257159
     atom   30 type  1   force =    -0.00685453    0.03362014   -0.04110184
     atom   31 type  2   force =     0.01812207    0.00064815   -0.00257755
     atom   32 type  2   force =    -0.00616792    0.00701419    0.00948037
     atom   33 type  1   force =     0.01114672   -0.00508391   -0.00910653
     atom   34 type  2   force =     0.00283009   -0.04176752   -0.00756469
     atom   35 type  2   force =    -0.00597872    0.00443200    0.01673816
     atom   36 type  3   force =    -0.13750738    0.02724553    0.01106527
     The non-local contrib.  to forces
     atom    1 type  1   force =    -0.00107943    0.02909375   -0.01084212
     atom    2 type  2   force =    -0.01199567    0.00176622   -0.27128372
     atom    3 type  2   force =    -0.01549317   -0.00346314    0.27028979
     atom    4 type  1   force =    -0.00302317    0.01100795    0.01111537
     atom    5 type  2   force =     0.00522659   -0.03175459   -0.25718058
     atom    6 type  2   force =    -0.00476887    0.01108311    0.26159509
     atom    7 type  1   force =    -0.03720034   -0.00389687   -0.01279735
     atom    8 type  2   force =     0.34504001   -0.05870464    0.17812007
     atom    9 type  2   force =     0.00568868   -0.00947935    0.27939349
     atom   10 type  1   force =     0.01054319    0.00566049    0.00275038
     atom   11 type  2   force =     0.00977791    0.00762212   -0.25971600
     atom   12 type  2   force =    -0.01794474   -0.02250778    0.26498032
     atom   13 type  1   force =    -0.00147776    0.02279713   -0.00789008
     atom   14 type  2   force =     0.01141175   -0.01034752   -0.26479416
     atom   15 type  2   force =    -0.01248415   -0.00596243    0.26078509
     atom   16 type  1   force =    -0.00844809    0.02319997   -0.02999549
     atom   17 type  2   force =     0.00591700   -0.02919336   -0.25224727
     atom   18 type  2   force =    -0.00330387   -0.00217274    0.27408611
     atom   19 type  1   force =    -0.00991433   -0.00557758   -0.02147930
     atom   20 type  2   force =     0.00219912   -0.01965901    0.26861720
     atom   21 type  1   force =    -0.00314906    0.03180497    0.00748161
     atom   22 type  2   force =    -0.00718147    0.00512491   -0.25783824
     atom   23 type  2   force =     0.00654140   -0.01264440    0.26661271
     atom   24 type  1   force =     0.01309885    0.02120831   -0.01244250
     atom   25 type  2   force =     0.00906199    0.00624385   -0.26056857
     atom   26 type  2   force =    -0.00246594   -0.01230373    0.26306780
     atom   27 type  1   force =    -0.00078572    0.00665574    0.01262023
     atom   28 type  2   force =     0.00202683   -0.03208326   -0.28148575
     atom   29 type  2   force =     0.00148857    0.00313049    0.26237891
     atom   30 type  1   force =     0.00203736    0.02224877    0.01876892
     atom   31 type  2   force =    -0.04579457    0.00116498   -0.22828462
     atom   32 type  2   force =    -0.00083112   -0.00997461    0.26973770
     atom   33 type  1   force =    -0.00679424    0.00412781    0.01008875
     atom   34 type  2   force =    -0.00328488   -0.02862593   -0.27667676
     atom   35 type  2   force =    -0.00249371   -0.01471704    0.27265950
     atom   36 type  3   force =    -1.01542384    0.17660337   -0.84114384
     The ionic contribution  to forces
     atom    1 type  1   force =     0.03216274   -0.27120690    4.64670873
     atom    2 type  2   force =    -0.80777363    0.31698063   39.07290837
     atom    3 type  2   force =    -0.21753876   -0.01232806  -36.62159694
     atom    4 type  1   force =    -1.32378267   -1.18531662   -2.86120928
     atom    5 type  2   force =    -1.65676847    0.79113261   38.34248872
     atom    6 type  2   force =     0.21234204   -0.68666139  -38.67673481
     atom    7 type  1   force =    -3.86800578   -2.09828113    0.43651285
     atom    8 type  2   force =    -5.69615258    0.97912927   33.42801620
     atom    9 type  2   force =     0.13219738    0.00754157  -39.09335630
     atom   10 type  1   force =    -1.49966261    0.74168188    4.22802029
     atom   11 type  2   force =    -1.06908773   -0.97015755   38.81919407
     atom   12 type  2   force =     0.32412658    0.87739130  -38.47013486
     atom   13 type  1   force =     0.75253707    0.57430398    1.85713995
     atom   14 type  2   force =     0.03215770   -0.04700263   38.35077527
     atom   15 type  2   force =     0.14309044   -0.08335726  -37.26594253
     atom   16 type  1   force =    -0.18545115    3.44616326   -0.95947449
     atom   17 type  2   force =     1.29778465    0.96038879   37.58159153
     atom   18 type  2   force =    -0.05924431   -0.80560452  -39.17855322
     atom   19 type  1   force =     3.62350148   -1.90908320   -1.16458671
     atom   20 type  2   force =     0.19589650   -0.17435839  -39.14964392
     atom   21 type  1   force =    -0.03808922    0.51471203    0.16658023
     atom   22 type  2   force =     0.82482314   -1.21744454   38.14206506
     atom   23 type  2   force =     0.00384354    0.82496356  -38.86901115
     atom   24 type  1   force =    -0.46829234    0.30391691    4.51078961
     atom   25 type  2   force =     0.83245257    0.21244771   39.06523440
     atom   26 type  2   force =    -0.22303564    0.03468201  -37.85357920
     atom   27 type  1   force =     1.46831864   -0.96764187   -5.18343579
     atom   28 type  2   force =     0.32713242   -1.48725205   37.04928493
     atom   29 type  2   force =    -0.23953447   -0.73757897  -38.13125180
     atom   30 type  1   force =     0.12634390    1.16731702   -5.37881336
     atom   31 type  2   force =     4.49111361    0.37741613   35.20998710
     atom   32 type  2   force =    -0.25041284    0.03267939  -39.62381334
     atom   33 type  1   force =     1.24638212    0.02257629    0.73300678
     atom   34 type  2   force =     0.40222726    0.23168733   38.72082783
     atom   35 type  2   force =    -0.27482549    0.76469568  -38.59202088
     atom   36 type  3   force =     1.40922393   -0.52853229   46.71202668
     The local contribution  to forces
     atom    1 type  1   force =    -0.02050755    0.21777679   -4.63178404
     atom    2 type  2   force =     0.80647126   -0.30342795  -38.82025156
     atom    3 type  2   force =     0.22016016    0.02586703   36.36812468
     atom    4 type  1   force =     1.33010554    1.17058994    2.84196852
     atom    5 type  2   force =     1.65014156   -0.76955165  -38.10941915
     atom    6 type  2   force =    -0.21133724    0.68505534   38.43496496
     atom    7 type  1   force =     3.89876671    2.10742862   -0.43654987
     atom    8 type  2   force =     5.49966666   -0.98066886  -33.52422922
     atom    9 type  2   force =    -0.12795962    0.00886357   38.84784827
     atom   10 type  1   force =     1.48048651   -0.74315575   -4.25760529
     atom   11 type  2   force =     1.06090069    0.96837163  -38.58865979
     atom   12 type  2   force =    -0.31233321   -0.85849314   38.22841825
     atom   13 type  1   force =    -0.74582529   -0.59240486   -1.85587328
     atom   14 type  2   force =    -0.03522962    0.05657429  -38.09430172
     atom   15 type  2   force =    -0.14290627    0.09154255   37.01754258
     atom   16 type  1   force =     0.19941587   -3.45722210    0.99042083
     atom   17 type  2   force =    -1.29597879   -0.93315762  -37.34713343
     atom   18 type  2   force =     0.06139185    0.80037033   38.93600785
     atom   19 type  1   force =    -3.60287867    1.90319618    1.17503482
     atom   20 type  2   force =    -0.19164267    0.19017534   38.90035979
     atom   21 type  1   force =     0.03995528   -0.53653361   -0.17331168
     atom   22 type  2   force =    -0.82160757    1.21066461  -37.90518108
     atom   23 type  2   force =    -0.01083395   -0.81472378   38.62998418
     atom   24 type  1   force =     0.44415752   -0.33014532   -4.52139909
     atom   25 type  2   force =    -0.82589442   -0.19926587  -38.81707992
     atom   26 type  2   force =     0.21539048   -0.02268822   37.60612103
     atom   27 type  1   force =    -1.46982473    0.96382225    5.18077963
     atom   28 type  2   force =    -0.32645182    1.50992696  -36.80239382
     atom   29 type  2   force =     0.24034450    0.73516208   37.88659503
     atom   30 type  1   force =    -0.13530638   -1.15596311    5.31852263
     atom   31 type  2   force =    -4.42849563   -0.37801345  -35.00423934
     atom   32 type  2   force =     0.24533388   -0.01629823   39.38419535
     atom   33 type  1   force =    -1.22837723   -0.03169009   -0.75258222
     atom   34 type  2   force =    -0.39666568   -0.24541993  -38.47336415
     atom   35 type  2   force =     0.27138191   -0.74663431   38.35703989
     atom   36 type  3   force =    -0.54301677    0.38109492  -45.86891676
     The core correction contribution to forces
     atom    1 type  1   force =     0.00000000    0.00000000    0.00000000
     atom    2 type  2   force =     0.00035805   -0.00010237    0.02082627
     atom    3 type  2   force =     0.00073784    0.00008651   -0.02088018
     atom    4 type  1   force =     0.00000000    0.00000000    0.00000000
     atom    5 type  2   force =    -0.00055727    0.00169593    0.02060232
     atom    6 type  2   force =     0.00046144   -0.00109820   -0.02081510
     atom    7 type  1   force =     0.00000000    0.00000000    0.00000000
     atom    8 type  2   force =    -0.01949588    0.00366860   -0.00266604
     atom    9 type  2   force =    -0.00002751    0.00054056   -0.02119754
     atom   10 type  1   force =     0.00000000    0.00000000    0.00000000
     atom   11 type  2   force =    -0.00050320   -0.00049304    0.02070437
     atom   12 type  2   force =     0.00141786    0.00165851   -0.02094757
     atom   13 type  1   force =     0.00000000    0.00000000    0.00000000
     atom   14 type  2   force =    -0.00059959    0.00007755    0.02075367
     atom   15 type  2   force =     0.00067971    0.00038768   -0.02056972
     atom   16 type  1   force =     0.00000000    0.00000000    0.00000000
     atom   17 type  2   force =    -0.00025601    0.00154118    0.02039713
     atom   18 type  2   force =    -0.00000543   -0.00057218   -0.02105179
     atom   19 type  1   force =     0.00000000    0.00000000    0.00000000
     atom   20 type  2   force =    -0.00007008    0.00076122   -0.02130438
     atom   21 type  1   force =     0.00000000    0.00000000    0.00000000
     atom   22 type  2   force =     0.00012111   -0.00053184    0.02053797
     atom   23 type  2   force =    -0.00053824    0.00118017   -0.02082248
     atom   24 type  1   force =     0.00000000    0.00000000    0.00000000
     atom   25 type  2   force =    -0.00010135   -0.00049757    0.02074469
     atom   26 type  2   force =    -0.00018338    0.00063920   -0.02084182
     atom   27 type  1   force =     0.00000000    0.00000000    0.00000000
     atom   28 type  2   force =    -0.00007496    0.00283195    0.02174337
     atom   29 type  2   force =    -0.00029547   -0.00070170   -0.02049613
     atom   30 type  1   force =     0.00000000    0.00000000    0.00000000
     atom   31 type  2   force =     0.00131456    0.00005937    0.01982091
     atom   32 type  2   force =    -0.00026626    0.00058698   -0.02085576
     atom   33 type  1   force =     0.00000000    0.00000000    0.00000000
     atom   34 type  2   force =     0.00055772    0.00062647    0.02146269
     atom   35 type  2   force =    -0.00006504    0.00111100   -0.02114921
     atom   36 type  3   force =     0.01172416   -0.00192969    0.00888273
     The Hubbard contrib.    to forces
     atom    1 type  1   force =     0.00000000    0.00000000    0.00000000
     atom    2 type  2   force =     0.00000000    0.00000000    0.00000000
     atom    3 type  2   force =     0.00000000    0.00000000    0.00000000
     atom    4 type  1   force =     0.00000000    0.00000000    0.00000000
     atom    5 type  2   force =     0.00000000    0.00000000    0.00000000
     atom    6 type  2   force =     0.00000000    0.00000000    0.00000000
     atom    7 type  1   force =     0.00000000    0.00000000    0.00000000
     atom    8 type  2   force =     0.00000000    0.00000000    0.00000000
     atom    9 type  2   force =     0.00000000    0.00000000    0.00000000
     atom   10 type  1   force =     0.00000000    0.00000000    0.00000000
     atom   11 type  2   force =     0.00000000    0.00000000    0.00000000
     atom   12 type  2   force =     0.00000000    0.00000000    0.00000000
     atom   13 type  1   force =     0.00000000    0.00000000    0.00000000
     atom   14 type  2   force =     0.00000000    0.00000000    0.00000000
     atom   15 type  2   force =     0.00000000    0.00000000    0.00000000
     atom   16 type  1   force =     0.00000000    0.00000000    0.00000000
     atom   17 type  2   force =     0.00000000    0.00000000    0.00000000
     atom   18 type  2   force =     0.00000000    0.00000000    0.00000000
     atom   19 type  1   force =     0.00000000    0.00000000    0.00000000
     atom   20 type  2   force =     0.00000000    0.00000000    0.00000000
     atom   21 type  1   force =     0.00000000    0.00000000    0.00000000
     atom   22 type  2   force =     0.00000000    0.00000000    0.00000000
     atom   23 type  2   force =     0.00000000    0.00000000    0.00000000
     atom   24 type  1   force =     0.00000000    0.00000000    0.00000000
     atom   25 type  2   force =     0.00000000    0.00000000    0.00000000
     atom   26 type  2   force =     0.00000000    0.00000000    0.00000000
     atom   27 type  1   force =     0.00000000    0.00000000    0.00000000
     atom   28 type  2   force =     0.00000000    0.00000000    0.00000000
     atom   29 type  2   force =     0.00000000    0.00000000    0.00000000
     atom   30 type  1   force =     0.00000000    0.00000000    0.00000000
     atom   31 type  2   force =     0.00000000    0.00000000    0.00000000
     atom   32 type  2   force =     0.00000000    0.00000000    0.00000000
     atom   33 type  1   force =     0.00000000    0.00000000    0.00000000
     atom   34 type  2   force =     0.00000000    0.00000000    0.00000000
     atom   35 type  2   force =     0.00000000    0.00000000    0.00000000
     atom   36 type  3   force =     0.00000000    0.00000000    0.00000000
     The SCF correction term to forces
     atom    1 type  1   force =     0.00003995    0.00013956    0.00032779
     atom    2 type  2   force =     0.00002925   -0.00000033    0.00018867
     atom    3 type  2   force =     0.00000935    0.00002016    0.00013736
     atom    4 type  1   force =    -0.00000262   -0.00010554    0.00038928
     atom    5 type  2   force =     0.00002521    0.00002856    0.00013423
     atom    6 type  2   force =    -0.00001160    0.00000629    0.00017867
     atom    7 type  1   force =     0.00006661    0.00010595    0.00039596
     atom    8 type  2   force =    -0.00001563    0.00002861    0.00020944
     atom    9 type  2   force =     0.00003546   -0.00000868    0.00017376
     atom   10 type  1   force =     0.00005891   -0.00013512    0.00041704
     atom   11 type  2   force =     0.00003299   -0.00000637    0.00015906
     atom   12 type  2   force =    -0.00000974    0.00001274    0.00016482
     atom   13 type  1   force =    -0.00001332    0.00004242    0.00028176
     atom   14 type  2   force =     0.00000732   -0.00000330    0.00019974
     atom   15 type  2   force =     0.00000252    0.00000056    0.00011910
     atom   16 type  1   force =     0.00006387   -0.00009618    0.00037113
     atom   17 type  2   force =    -0.00000218    0.00003473    0.00016156
     atom   18 type  2   force =     0.00002819    0.00002194    0.00015446
     atom   19 type  1   force =    -0.00015472    0.00002504    0.00035300
     atom   20 type  2   force =    -0.00004005   -0.00002186    0.00014091
     atom   21 type  1   force =     0.00001185   -0.00009648    0.00030124
     atom   22 type  2   force =    -0.00003542   -0.00002637    0.00014234
     atom   23 type  2   force =    -0.00001268   -0.00002523    0.00017540
     atom   24 type  1   force =    -0.00004754    0.00003446    0.00036546
     atom   25 type  2   force =    -0.00003611   -0.00002616    0.00019453
     atom   26 type  2   force =    -0.00000477   -0.00001284    0.00013659
     atom   27 type  1   force =    -0.00006902    0.00010158    0.00037894
     atom   28 type  2   force =    -0.00001603    0.00002756    0.00017634
     atom   29 type  2   force =    -0.00001776    0.00000633    0.00018493
     atom   30 type  1   force =     0.00006980    0.00001782    0.00040249
     atom   31 type  2   force =    -0.00001669    0.00002149    0.00012094
     atom   32 type  2   force =     0.00000763    0.00002104    0.00019896
     atom   33 type  1   force =    -0.00006471   -0.00009756    0.00036269
     atom   34 type  2   force =    -0.00000512   -0.00003510    0.00016824
     atom   35 type  2   force =     0.00002281   -0.00002297    0.00019139
     atom   36 type  3   force =    -0.00001565    0.00000959    0.00019900

     Total force =     0.241084     Total SCF correction =     0.001568

     BFGS Geometry Optimization
     Energy error            =      0.0E+00 Ry
     Gradient error          =      1.4E-01 Ry/Bohr

     number of scf cycles    =   1
     number of bfgs steps    =   0

     energy             new  =   -2246.2360271917 Ry

     new trust radius        =       0.1617558311 bohr
     new conv_thr            =       0.0000010000 Ry


ATOMIC_POSITIONS (angstrom)
Mo            6.5801664209        1.7750016431        2.8259861401
S             8.1698776940        0.8177558995        4.4358112884
S             8.1868174511        0.8166298938        1.2758154940
Mo            8.0969077242        4.4930330350        2.7137338642
S             6.4988870996        3.7179401959        4.3448842042
S             6.5515963947        3.5161745907        1.1208602005
Mo            6.4866097726        7.2212716649        2.6653116039
S             8.1500145404        6.3139474093        4.2845141776
S             8.0861751204        6.3086485453        1.0906783508
Mo            8.1560823032        9.9043241857        2.8294914263
S             6.4957610431        8.9457507300        4.3787129254
S             6.6154375963        9.0476852828        1.1412294154
Mo            3.4244227610        1.7494632493        2.7731245479
S             4.9792657404        0.8165697364        4.3572273318
S             5.0516863247        0.8476436476        1.2223996310
Mo            4.9827101725        4.5195517188        2.6335933516
S             3.4317922108        3.6713950800        4.2811843896
S             3.4373211388        3.5440177560        1.0639931724
Mo            3.4594469698        7.2102707898        2.6250354441
S             4.9865910877        6.3252902129        1.0362943688
Mo            5.0115916769        9.9068317872        2.7439665796
S             3.4689052170        8.9425798856        4.3254555814
S             3.4079004420        9.0643284870        1.0997493234
Mo            0.2902257644        1.7448710541        2.8374487706
S             1.8586557152        0.8026962978        4.4027299876
S             1.8553503214        0.8545931714        1.2067136183
Mo            1.8594424287        4.4972211277        2.6656799092
S             0.2735988282        3.6509331424        4.3308860583
S             0.2322822341        3.5272586822        1.1706570579
Mo            0.2675248907        7.2344371047        2.6799462684
S             1.9118280361        6.3131418236        4.2210801403
S             1.8589742903        6.3140555634        1.0495760775
Mo            1.8502452545        9.9374488658        2.7681272835
S             0.2974105182        9.0678954084        4.4098664055
S             0.2736075984        9.0458710292        1.1592582303
O             9.3839942299        6.0860288243        5.3553001998



     Writing config-only to output data dir ./MoS2-V-O.save/
     NEW-OLD atomic charge density approx. for the potential

     negative rho (up, down):  2.092E-04 0.000E+00

     total cpu time spent up to now is      125.3 secs

     Self-consistent Calculation

     iteration #  1     ecut=    80.00 Ry     beta= 0.70
     Davidson diagonalization with overlap
     ethr =  1.00E-06,  avg # of iterations = 15.0

     negative rho (up, down):  1.035E-04 0.000E+00

     total cpu time spent up to now is      139.0 secs

     total energy              =   -2246.28444469 Ry
     estimated scf accuracy    <       0.01947433 Ry

     iteration #  2     ecut=    80.00 Ry     beta= 0.70
     Davidson diagonalization with overlap
     ethr =  6.24E-06,  avg # of iterations =  5.0

     negative rho (up, down):  9.802E-05 0.000E+00

     total cpu time spent up to now is      150.7 secs

     total energy              =   -2246.28791573 Ry
     estimated scf accuracy    <       0.00865762 Ry

     iteration #  3     ecut=    80.00 Ry     beta= 0.70
     Davidson diagonalization with overlap
     ethr =  2.77E-06,  avg # of iterations =  4.0

     negative rho (up, down):  7.119E-05 0.000E+00

     total cpu time spent up to now is      163.9 secs

     total energy              =   -2246.28873587 Ry
     estimated scf accuracy    <       0.00048882 Ry

     iteration #  4     ecut=    80.00 Ry     beta= 0.70
     Davidson diagonalization with overlap
     ethr =  1.57E-07,  avg # of iterations =  5.0

     negative rho (up, down):  6.729E-05 0.000E+00

     total cpu time spent up to now is      176.2 secs

     total energy              =   -2246.28879749 Ry
     estimated scf accuracy    <       0.00006462 Ry

     iteration #  5     ecut=    80.00 Ry     beta= 0.70
     Davidson diagonalization with overlap
     ethr =  2.07E-08,  avg # of iterations =  4.0

     negative rho (up, down):  6.787E-05 0.000E+00

     total cpu time spent up to now is      191.4 secs

     total energy              =   -2246.28880532 Ry
     estimated scf accuracy    <       0.00001279 Ry

     iteration #  6     ecut=    80.00 Ry     beta= 0.70
     Davidson diagonalization with overlap
     ethr =  4.10E-09,  avg # of iterations =  5.0

     negative rho (up, down):  7.146E-05 0.000E+00

     total cpu time spent up to now is      204.6 secs

     total energy              =   -2246.28880857 Ry
     estimated scf accuracy    <       0.00000434 Ry

     iteration #  7     ecut=    80.00 Ry     beta= 0.70
     Davidson diagonalization with overlap
     ethr =  1.39E-09,  avg # of iterations =  2.0

     negative rho (up, down):  7.971E-05 0.000E+00

     total cpu time spent up to now is      214.2 secs

     total energy              =   -2246.28880888 Ry
     estimated scf accuracy    <       0.00000137 Ry

     iteration #  8     ecut=    80.00 Ry     beta= 0.70
     Davidson diagonalization with overlap
     ethr =  4.40E-10,  avg # of iterations =  5.0

     negative rho (up, down):  2.013E-04 0.000E+00

     total cpu time spent up to now is      217.7 secs

     End of self-consistent calculation

          k = 0.0000 0.0000 0.0000 (105382 PWs)   bands (ev):

   -63.0350 -62.9806 -62.9593 -62.9440 -62.9301 -62.9211 -62.9207 -62.9160
   -62.9055 -62.8845 -62.8599 -62.7948 -37.3889 -37.2892 -37.2584 -37.2327
   -37.2248 -37.2118 -37.1999 -37.1803 -37.1760 -37.1651 -37.1510 -37.1451
   -37.1305 -37.1237 -37.1112 -37.1035 -37.0985 -37.0953 -37.0936 -37.0876
   -37.0790 -37.0765 -37.0707 -37.0422 -37.0326 -37.0160 -37.0148 -36.9912
   -36.9815 -36.9588 -36.9474 -36.9445 -36.9170 -36.9005 -36.8778 -36.8320
   -21.0118 -16.0237 -15.2913 -15.1563 -15.1055 -14.9732 -14.8340 -14.6744
   -14.5992 -14.5294 -14.4860 -14.4516 -14.4354 -14.3850 -14.3293 -14.2493
   -14.2323 -14.1994 -14.1727 -13.9752 -13.9633 -13.9419 -13.9331 -13.8151
    -7.8947  -7.8675  -7.5643  -7.5055  -7.4378  -7.3396  -7.3122  -7.2883
    -7.2272  -7.0731  -6.9358  -6.8929  -6.8341  -6.7836  -6.7043  -6.6345
    -6.5354  -6.4699  -6.3809  -6.3330  -6.1727  -6.0828  -6.0069  -5.9895
    -5.8854  -5.8588  -5.8137  -5.7923  -5.7789  -5.7318  -5.6882  -5.6240
    -5.6183  -5.5846  -5.5071  -5.3130  -5.2462  -5.1825  -5.1560  -5.1028
    -5.0674  -5.0357  -4.9290  -4.8319  -4.7106  -4.6414  -4.4236  -4.4055
    -4.3613  -4.3240  -4.1939  -4.1384  -4.1054  -4.0175  -3.9528  -3.8793
    -3.8277  -3.7873  -3.7206  -3.6605  -3.6307  -3.6095  -3.5879  -3.5459
    -3.4963  -3.4621  -3.3320  -3.2612  -3.0677  -3.0171  -2.9904  -2.9243
    -2.8836  -2.8182  -2.8128  -2.7870  -2.7310  -2.7112  -2.5621  -2.3590
    -2.1926  -2.0830  -2.0324  -1.8336  -1.2693  -0.9307  -0.6500  -0.2620
    -0.2124  -0.1277  -0.0294   0.0322   0.0433   0.1192   0.1500   0.1811
     0.1970   0.2497   0.3113   0.3878   0.4560   0.4710   0.4924   0.5540
     0.6007   0.6443   0.6810   0.6955   0.7132   0.7453   0.7980   0.8976
     0.9300   0.9846   1.1667

     the Fermi energy is    -1.5514 ev

!    total energy              =   -2246.28880904 Ry
     estimated scf accuracy    <       0.00000033 Ry
     smearing contrib. (-TS)   =      -0.00015297 Ry
     internal energy E=F+TS    =   -2246.28865607 Ry

     The total energy is F=E-TS. E is the sum of the following terms:
     one-electron contribution =  -18449.04450325 Ry
     hartree contribution      =    9212.46382840 Ry
     xc contribution           =    -392.00128396 Ry
     ewald contribution        =    7392.15892630 Ry
     one-center paw contrib.   =      -9.86562355 Ry

     convergence has been achieved in   8 iterations

     negative rho (up, down):  2.013E-04 0.000E+00

     Forces acting on atoms (cartesian axes, Ry/au):

     atom    1 type  1   force =     0.00135143   -0.01240724    0.00009739
     atom    2 type  2   force =    -0.00821617    0.00893771   -0.00069140
     atom    3 type  2   force =    -0.01127396    0.00750502   -0.00924313
     atom    4 type  1   force =     0.00599967   -0.00425957   -0.00249555
     atom    5 type  2   force =     0.00056243   -0.00717700   -0.00461788
     atom    6 type  2   force =    -0.00420516    0.00440898    0.00026788
     atom    7 type  1   force =     0.00469849   -0.00303101    0.01009414
     atom    8 type  2   force =     0.10562583   -0.03244580    0.03687533
     atom    9 type  2   force =     0.00676572    0.00711579    0.00892226
     atom   10 type  1   force =    -0.00288939    0.00421040   -0.00826758
     atom   11 type  2   force =     0.00241169    0.00254568   -0.00969038
     atom   12 type  2   force =    -0.00595647   -0.00169844   -0.00251993
     atom   13 type  1   force =     0.00452927    0.00264998   -0.00234480
     atom   14 type  2   force =     0.00551663   -0.00058446    0.00902068
     atom   15 type  2   force =    -0.00850573    0.00222072   -0.00654615
     atom   16 type  1   force =     0.00444781    0.00954677    0.00116734
     atom   17 type  2   force =     0.00657089    0.00044934    0.00191777
     atom   18 type  2   force =    -0.00122434   -0.00416072    0.00975724
     atom   19 type  1   force =     0.00777577   -0.00739187   -0.00015844
     atom   20 type  2   force =     0.00723003   -0.00379266   -0.00642252
     atom   21 type  1   force =    -0.00395435    0.00564099    0.00272832
     atom   22 type  2   force =    -0.00155526   -0.00230042   -0.00261342
     atom   23 type  2   force =     0.00114062   -0.00100334    0.00319832
     atom   24 type  1   force =    -0.00628208   -0.00295082   -0.01018399
     atom   25 type  2   force =     0.01089206    0.01399847    0.00074778
     atom   26 type  2   force =    -0.00663677   -0.00025914   -0.00502182
     atom   27 type  1   force =    -0.00054479    0.00033134    0.00556265
     atom   28 type  2   force =     0.00168337   -0.00814539   -0.01049354
     atom   29 type  2   force =     0.00268028    0.00127935   -0.00469308
     atom   30 type  1   force =    -0.00180940    0.01051396   -0.02140293
     atom   31 type  2   force =     0.02108266    0.00882299   -0.01120263
     atom   32 type  2   force =    -0.00493217    0.00480760    0.00361020
     atom   33 type  1   force =     0.00376165   -0.00114494   -0.00005868
     atom   34 type  2   force =    -0.00054702   -0.03048904   -0.01354264
     atom   35 type  2   force =    -0.00404637    0.01300326    0.00304654
     atom   36 type  3   force =    -0.13214687    0.01525351    0.03519664
     The non-local contrib.  to forces
     atom    1 type  1   force =     0.00011555    0.02522698   -0.01150142
     atom    2 type  2   force =    -0.00898468   -0.00273587   -0.27186117
     atom    3 type  2   force =    -0.01387978   -0.00635990    0.26563564
     atom    4 type  1   force =    -0.00307573    0.01826924    0.01439049
     atom    5 type  2   force =     0.00766491   -0.03083447   -0.25802538
     atom    6 type  2   force =    -0.00669846    0.00698070    0.26286242
     atom    7 type  1   force =    -0.04061443   -0.00835008   -0.01726672
     atom    8 type  2   force =     0.33600069   -0.05814481    0.19946735
     atom    9 type  2   force =     0.00433103   -0.00931706    0.27859523
     atom   10 type  1   force =     0.00940578    0.00494138    0.00178428
     atom   11 type  2   force =     0.00974867    0.00528589   -0.25946326
     atom   12 type  2   force =    -0.01829119   -0.02178884    0.26283907
     atom   13 type  1   force =    -0.00076530    0.02363102   -0.00802100
     atom   14 type  2   force =     0.00969287   -0.01025259   -0.26663118
     atom   15 type  2   force =    -0.01006525   -0.00620723    0.26067171
     atom   16 type  1   force =    -0.00910120    0.02332705   -0.03291125
     atom   17 type  2   force =     0.00597782   -0.02790688   -0.25359212
     atom   18 type  2   force =    -0.00241640    0.00069398    0.27427769
     atom   19 type  1   force =    -0.00631247   -0.00420599   -0.02669193
     atom   20 type  2   force =     0.00304337   -0.01805431    0.26599327
     atom   21 type  1   force =    -0.00326948    0.03297868    0.00622737
     atom   22 type  2   force =    -0.00540723    0.00374996   -0.26006395
     atom   23 type  2   force =     0.00743435   -0.01318460    0.26507647
     atom   24 type  1   force =     0.01276941    0.01985501   -0.01208106
     atom   25 type  2   force =     0.00469403    0.00279143   -0.26543828
     atom   26 type  2   force =     0.00006217   -0.01228134    0.26324128
     atom   27 type  1   force =    -0.00166453    0.00596325    0.00972404
     atom   28 type  2   force =     0.00245748   -0.03428544   -0.28139452
     atom   29 type  2   force =     0.00067050    0.00208796    0.26309037
     atom   30 type  1   force =    -0.00677802    0.02278823    0.02525508
     atom   31 type  2   force =    -0.01421968    0.00256832   -0.25412296
     atom   32 type  2   force =     0.00075492   -0.01018996    0.26762535
     atom   33 type  1   force =    -0.00451549    0.00170862    0.00829147
     atom   34 type  2   force =    -0.00505576   -0.01913135   -0.27996688
     atom   35 type  2   force =    -0.00251625   -0.00726921    0.26313799
     atom   36 type  3   force =    -1.35856838    0.21562227   -1.09645047
     The ionic contribution  to forces
     atom    1 type  1   force =    -0.20318416    0.06852748    4.76136534
     atom    2 type  2   force =    -0.62213258    0.19220057   39.15945528
     atom    3 type  2   force =    -0.20729079    0.00685072  -36.73418706
     atom    4 type  1   force =    -1.47980570   -1.00835226   -3.01078280
     atom    5 type  2   force =    -1.66972068    0.81425750   38.25160444
     atom    6 type  2   force =     0.16762823   -0.72390234  -38.59729204
     atom    7 type  1   force =    -3.45482328   -2.37561811    0.72353064
     atom    8 type  2   force =    -6.61193504    1.22385755   32.78849711
     atom    9 type  2   force =     0.05296163   -0.08917242  -38.97350055
     atom   10 type  1   force =    -1.31757939    0.75487819    3.97764086
     atom   11 type  2   force =    -1.00572074   -1.06756749   38.78507537
     atom   12 type  2   force =     0.24924727    0.86032298  -38.49032230
     atom   13 type  1   force =     0.66876972    0.58330403    1.82570144
     atom   14 type  2   force =    -0.05691718   -0.01494922   38.45375495
     atom   15 type  2   force =     0.14009450   -0.02996853  -37.31494258
     atom   16 type  1   force =    -0.14969996    3.30712212   -0.78654804
     atom   17 type  2   force =     1.28017566    0.96144110   37.59530398
     atom   18 type  2   force =    -0.06383913   -0.74574329  -39.07501537
     atom   19 type  1   force =     3.53949653   -1.84979865   -1.23947054
     atom   20 type  2   force =     0.19677077   -0.21993072  -39.21538915
     atom   21 type  1   force =    -0.14713592    0.42789574    0.35268103
     atom   22 type  2   force =     0.81210642   -1.25432821   38.15485261
     atom   23 type  2   force =     0.03836259    0.81429620  -38.82857771
     atom   24 type  1   force =    -0.21173434    0.20497612    4.18638032
     atom   25 type  2   force =     0.71928259    0.16356678   39.04218250
     atom   26 type  2   force =    -0.16856175    0.04721192  -37.82058335
     atom   27 type  1   force =     1.47297363   -0.93720951   -4.77347520
     atom   28 type  2   force =     0.40027447   -1.50949125   37.00342642
     atom   29 type  2   force =    -0.17893829   -0.67035174  -38.14046314
     atom   30 type  1   force =     0.16269592    0.75081304   -6.08342710
     atom   31 type  2   force =     4.22663962    0.39643758   35.31132514
     atom   32 type  2   force =    -0.20330937   -0.07827230  -39.55459799
     atom   33 type  1   force =     1.17595315    0.26358353    0.88508035
     atom   34 type  2   force =     0.38974643    0.41803656   38.65459104
     atom   35 type  2   force =    -0.21595990    0.90580700  -38.60670356
     atom   36 type  3   force =     2.27510907   -0.59073068   47.33282965
     The local contribution  to forces
     atom    1 type  1   force =     0.20426066   -0.10616278   -4.75029863
     atom    2 type  2   force =     0.62257613   -0.18058463  -38.90948055
     atom    3 type  2   force =     0.20922914    0.00676250   36.48000252
     atom    4 type  1   force =     1.48878365    0.98584038    2.99335594
     atom    5 type  2   force =     1.66327862   -0.79227257  -38.01914670
     atom    6 type  2   force =    -0.16568657    0.72227598   38.35544353
     atom    7 type  1   force =     3.50020073    2.38095365   -0.69665917
     atom    8 type  2   force =     6.40143866   -1.20191365  -32.94652078
     atom    9 type  2   force =    -0.05050873    0.10514283   38.72497284
     atom   10 type  1   force =     1.30532786   -0.75550938   -3.98810355
     atom   11 type  2   force =     0.99880855    1.06529625  -38.55629948
     atom   12 type  2   force =    -0.23830860   -0.84185048   38.24575930
     atom   13 type  1   force =    -0.66345103   -0.60442899   -1.82047631
     atom   14 type  2   force =     0.05328451    0.02450491  -38.19926576
     atom   15 type  2   force =    -0.13913916    0.03797319   37.06823940
     atom   16 type  1   force =     0.16329708   -3.32109449    0.82009515
     atom   17 type  2   force =    -1.27932246   -0.93464930  -37.36055947
     atom   18 type  2   force =     0.06511138    0.74149258   38.83147012
     atom   19 type  1   force =    -3.52537592    1.84677812    1.26550663
     atom   20 type  2   force =    -0.19246853    0.23353816   38.96408850
     atom   21 type  1   force =     0.14635200   -0.45513674   -0.35668584
     atom   22 type  2   force =    -0.80828333    1.24889256  -37.91832766
     atom   23 type  2   force =    -0.04408247   -0.80326678   38.58737886
     atom   24 type  1   force =     0.19280548   -0.22795650   -4.18489581
     atom   25 type  2   force =    -0.71310021   -0.15205821  -38.79719699
     atom   26 type  2   force =     0.16215575   -0.03583863   37.57309821
     atom   27 type  1   force =    -1.47184853    0.93147412    4.76876024
     atom   28 type  2   force =    -0.40096537    1.53281062  -36.75461567
     atom   29 type  2   force =     0.18114596    0.67013431   37.89311311
     atom   30 type  1   force =    -0.15777067   -0.76309088    6.03630708
     atom   31 type  2   force =    -4.19097350   -0.39019835  -35.08980663
     atom   32 type  2   force =     0.19793875    0.09275477   39.31120944
     atom   33 type  1   force =    -1.16763397   -0.26623525   -0.89381374
     atom   34 type  2   force =    -0.38582955   -0.42956385  -38.41007495
     atom   35 type  2   force =     0.21445347   -0.88641180   38.36738874
     atom   36 type  3   force =    -1.06421713    0.39278549  -46.21348245
     The core correction contribution to forces
     atom    1 type  1   force =     0.00000000    0.00000000    0.00000000
     atom    2 type  2   force =     0.00032791    0.00001670    0.02088598
     atom    3 type  2   force =     0.00064475    0.00023329   -0.02079155
     atom    4 type  1   force =     0.00000000    0.00000000    0.00000000
     atom    5 type  2   force =    -0.00067690    0.00160922    0.02057607
     atom    6 type  2   force =     0.00053840   -0.00097760   -0.02081458
     atom    7 type  1   force =     0.00000000    0.00000000    0.00000000
     atom    8 type  2   force =    -0.01985854    0.00378254   -0.00498120
     atom    9 type  2   force =    -0.00002464    0.00045532   -0.02123371
     atom   10 type  1   force =     0.00000000    0.00000000    0.00000000
     atom   11 type  2   force =    -0.00043865   -0.00040579    0.02068876
     atom   12 type  2   force =     0.00136601    0.00164692   -0.02091207
     atom   13 type  1   force =     0.00000000    0.00000000    0.00000000
     atom   14 type  2   force =    -0.00057648    0.00010267    0.02083772
     atom   15 type  2   force =     0.00058853    0.00042410   -0.02058504
     atom   16 type  1   force =     0.00000000    0.00000000    0.00000000
     atom   17 type  2   force =    -0.00023404    0.00145847    0.02043065
     atom   18 type  2   force =    -0.00005816   -0.00065740   -0.02107487
     atom   19 type  1   force =     0.00000000    0.00000000    0.00000000
     atom   20 type  2   force =    -0.00010131    0.00066362   -0.02126944
     atom   21 type  1   force =     0.00000000    0.00000000    0.00000000
     atom   22 type  2   force =     0.00003682   -0.00052016    0.02060959
     atom   23 type  2   force =    -0.00054967    0.00120453   -0.02078319
     atom   24 type  1   force =     0.00000000    0.00000000    0.00000000
     atom   25 type  2   force =     0.00004004   -0.00033703    0.02085946
     atom   26 type  2   force =    -0.00025663    0.00063055   -0.02083506
     atom   27 type  1   force =     0.00000000    0.00000000    0.00000000
     atom   28 type  2   force =    -0.00009275    0.00273945    0.02171735
     atom   29 type  2   force =    -0.00020966   -0.00059949   -0.02054482
     atom   30 type  1   force =     0.00000000    0.00000000    0.00000000
     atom   31 type  2   force =    -0.00036421    0.00006277    0.02104185
     atom   32 type  2   force =    -0.00033652    0.00053020   -0.02076509
     atom   33 type  1   force =     0.00000000    0.00000000    0.00000000
     atom   34 type  2   force =     0.00059566    0.00025441    0.02154630
     atom   35 type  2   force =    -0.00002180    0.00089639   -0.02087662
     atom   36 type  3   force =     0.01536469   -0.00234860    0.01161622
     The Hubbard contrib.    to forces
     atom    1 type  1   force =     0.00000000    0.00000000    0.00000000
     atom    2 type  2   force =     0.00000000    0.00000000    0.00000000
     atom    3 type  2   force =     0.00000000    0.00000000    0.00000000
     atom    4 type  1   force =     0.00000000    0.00000000    0.00000000
     atom    5 type  2   force =     0.00000000    0.00000000    0.00000000
     atom    6 type  2   force =     0.00000000    0.00000000    0.00000000
     atom    7 type  1   force =     0.00000000    0.00000000    0.00000000
     atom    8 type  2   force =     0.00000000    0.00000000    0.00000000
     atom    9 type  2   force =     0.00000000    0.00000000    0.00000000
     atom   10 type  1   force =     0.00000000    0.00000000    0.00000000
     atom   11 type  2   force =     0.00000000    0.00000000    0.00000000
     atom   12 type  2   force =     0.00000000    0.00000000    0.00000000
     atom   13 type  1   force =     0.00000000    0.00000000    0.00000000
     atom   14 type  2   force =     0.00000000    0.00000000    0.00000000
     atom   15 type  2   force =     0.00000000    0.00000000    0.00000000
     atom   16 type  1   force =     0.00000000    0.00000000    0.00000000
     atom   17 type  2   force =     0.00000000    0.00000000    0.00000000
     atom   18 type  2   force =     0.00000000    0.00000000    0.00000000
     atom   19 type  1   force =     0.00000000    0.00000000    0.00000000
     atom   20 type  2   force =     0.00000000    0.00000000    0.00000000
     atom   21 type  1   force =     0.00000000    0.00000000    0.00000000
     atom   22 type  2   force =     0.00000000    0.00000000    0.00000000
     atom   23 type  2   force =     0.00000000    0.00000000    0.00000000
     atom   24 type  1   force =     0.00000000    0.00000000    0.00000000
     atom   25 type  2   force =     0.00000000    0.00000000    0.00000000
     atom   26 type  2   force =     0.00000000    0.00000000    0.00000000
     atom   27 type  1   force =     0.00000000    0.00000000    0.00000000
     atom   28 type  2   force =     0.00000000    0.00000000    0.00000000
     atom   29 type  2   force =     0.00000000    0.00000000    0.00000000
     atom   30 type  1   force =     0.00000000    0.00000000    0.00000000
     atom   31 type  2   force =     0.00000000    0.00000000    0.00000000
     atom   32 type  2   force =     0.00000000    0.00000000    0.00000000
     atom   33 type  1   force =     0.00000000    0.00000000    0.00000000
     atom   34 type  2   force =     0.00000000    0.00000000    0.00000000
     atom   35 type  2   force =     0.00000000    0.00000000    0.00000000
     atom   36 type  3   force =     0.00000000    0.00000000    0.00000000
     The SCF correction term to forces
     atom    1 type  1   force =     0.00015772    0.00000006    0.00052094
     atom    2 type  2   force =    -0.00000461    0.00003991    0.00029790
     atom    3 type  2   force =     0.00002106    0.00001737    0.00008616
     atom    4 type  1   force =     0.00009579   -0.00001796    0.00052965
     atom    5 type  2   force =     0.00001480    0.00006230    0.00036253
     atom    6 type  2   force =     0.00001159    0.00003121    0.00005739
     atom    7 type  1   force =    -0.00006619   -0.00001750    0.00047823
     atom    8 type  2   force =    -0.00002161   -0.00002847    0.00040169
     atom    9 type  2   force =     0.00000476    0.00000610    0.00007730
     atom   10 type  1   force =    -0.00004530   -0.00010082    0.00039966
     atom   11 type  2   force =     0.00001220   -0.00006421    0.00029706
     atom   12 type  2   force =     0.00002838   -0.00003005    0.00010492
     atom   13 type  1   force =    -0.00002578    0.00014289    0.00043991
     atom   14 type  2   force =     0.00003125    0.00000874    0.00031380
     atom   15 type  2   force =     0.00001399   -0.00000184    0.00005921
     atom   16 type  1   force =    -0.00004977    0.00019107    0.00052033
     atom   17 type  2   force =    -0.00002775    0.00010493    0.00032358
     atom   18 type  2   force =    -0.00002369    0.00005239    0.00008851
     atom   19 type  1   force =    -0.00003403   -0.00016637    0.00048625
     atom   20 type  2   force =    -0.00001593   -0.00001042    0.00014315
     atom   21 type  1   force =     0.00009739   -0.00009771    0.00049460
     atom   22 type  2   force =    -0.00000960   -0.00009561    0.00030482
     atom   23 type  2   force =    -0.00002583   -0.00005372    0.00009272
     atom   24 type  1   force =    -0.00012429    0.00017352    0.00040140
     atom   25 type  2   force =    -0.00002606    0.00003447    0.00032994
     atom   26 type  2   force =    -0.00003797    0.00001734    0.00004594
     atom   27 type  1   force =    -0.00000702    0.00010246    0.00054242
     atom   28 type  2   force =     0.00000788    0.00008021    0.00036172
     atom   29 type  2   force =     0.00001010    0.00000729    0.00010023
     atom   30 type  1   force =     0.00004171    0.00000255    0.00045086
     atom   31 type  2   force =    -0.00000124   -0.00004836    0.00034881
     atom   32 type  2   force =     0.00001837   -0.00001613    0.00012732
     atom   33 type  1   force =    -0.00004370   -0.00020286    0.00037208
     atom   34 type  2   force =    -0.00000546   -0.00008584    0.00035069
     atom   35 type  2   force =    -0.00000357   -0.00002015    0.00008884
     atom   36 type  3   force =     0.00016322   -0.00007600    0.00067254

     Total force =     0.195004     Total SCF correction =     0.002202
     Energy error            =      5.3E-02 Ry
     Gradient error          =      1.3E-01 Ry/Bohr

     number of scf cycles    =   2
     number of bfgs steps    =   1

     energy             old  =   -2246.2360271917 Ry
     energy             new  =   -2246.2888090388 Ry

     CASE: energy            _new < energy            _old

     new trust radius        =       0.1779314142 bohr
     new conv_thr            =       0.0000001321 Ry


ATOMIC_POSITIONS (angstrom)
Mo            6.5825906468        1.7646156074        2.8267542313
S             8.1635044044        0.8248787843        4.4358406738
S             8.1789779763        0.8221906486        1.2703654096
Mo            8.1005686877        4.4901935731        2.7111828586
S             6.4988672735        3.7128310804        4.3419337714
S             6.5488681069        3.5198306857        1.1208712153
Mo            6.4880260547        7.2205598139        2.6685598320
S             8.2259665355        6.2878774828        4.3166057902
S             8.0913105885        6.3135650160        1.0974146272
Mo            8.1531876061        9.9071747157        2.8209058548
S             6.4971995625        8.9479419258        4.3723180640
S             6.6115651119        9.0464860646        1.1403209326
Mo            3.4276290754        1.7516119012        2.7708780130
S             4.9833959743        0.8161514227        4.3639778219
S             5.0453716059        0.8492239130        1.2176843192
Mo            4.9859323211        4.5264782493        2.6344187017
S             3.4364260336        3.6715666105        4.2826353330
S             3.4364995662        3.5405602574        1.0708052158
Mo            3.4652091595        7.2045652298        2.6232257692
S             4.9913866718        6.3228109784        1.0326536117
Mo            5.0093250874        9.9113732334        2.7455615871
S             3.4674662154        8.9410224215        4.3240520616
S             3.4083330039        9.0636030899        1.1025430432
Mo            0.2851564312        1.7425254901        2.8284689308
S             1.8668404525        0.8130536785        4.4045036420
S             1.8502231992        0.8545093281        1.2032738416
Mo            1.8587761763        4.4978696696        2.6702573072
S             0.2749001143        3.6456272202        4.3233668347
S             0.2340008129        3.5279283022        1.1677946761
Mo            0.2654714598        7.2453630507        2.6621335309
S             1.9257510067        6.3178448701        4.2148243886
S             1.8554046799        6.3176973516        1.0529933862
Mo            1.8540114496        9.9360285652        2.7666213902
S             0.2975839359        9.0452396595        4.4015832229
S             0.2705302694        9.0533656043        1.1635575980
O             9.2928497549        6.0983920260        5.3754353320



     Writing config-only to output data dir ./MoS2-V-O.save/
     NEW-OLD atomic charge density approx. for the potential

     negative rho (up, down):  1.834E-04 0.000E+00

     total cpu time spent up to now is      225.0 secs

     Self-consistent Calculation

     iteration #  1     ecut=    80.00 Ry     beta= 0.70
     Davidson diagonalization with overlap
     ethr =  1.00E-06,  avg # of iterations = 15.0

     negative rho (up, down):  6.552E-05 0.000E+00

     total cpu time spent up to now is      239.4 secs

     total energy              =   -2246.32068702 Ry
     estimated scf accuracy    <       0.01965641 Ry

     iteration #  2     ecut=    80.00 Ry     beta= 0.70
     Davidson diagonalization with overlap
     ethr =  6.30E-06,  avg # of iterations =  5.0

     negative rho (up, down):  5.222E-05 0.000E+00

     total cpu time spent up to now is      251.4 secs

     total energy              =   -2246.32482891 Ry
     estimated scf accuracy    <       0.00837293 Ry

     iteration #  3     ecut=    80.00 Ry     beta= 0.70
     Davidson diagonalization with overlap
     ethr =  2.68E-06,  avg # of iterations =  3.0

     negative rho (up, down):  3.145E-05 0.000E+00

     total cpu time spent up to now is      266.3 secs

     total energy              =   -2246.32530637 Ry
     estimated scf accuracy    <       0.00093261 Ry

     iteration #  4     ecut=    80.00 Ry     beta= 0.70
     Davidson diagonalization with overlap
     ethr =  2.99E-07,  avg # of iterations =  4.0

     negative rho (up, down):  2.775E-05 0.000E+00

     total cpu time spent up to now is      279.0 secs

     total energy              =   -2246.32540430 Ry
     estimated scf accuracy    <       0.00013929 Ry

     iteration #  5     ecut=    80.00 Ry     beta= 0.70
     Davidson diagonalization with overlap
     ethr =  4.46E-08,  avg # of iterations =  5.0

     negative rho (up, down):  2.649E-05 0.000E+00

     total cpu time spent up to now is      292.1 secs

     total energy              =   -2246.32541404 Ry
     estimated scf accuracy    <       0.00002671 Ry

     iteration #  6     ecut=    80.00 Ry     beta= 0.70
     Davidson diagonalization with overlap
     ethr =  8.56E-09,  avg # of iterations =  5.0

     negative rho (up, down):  2.728E-05 0.000E+00

     total cpu time spent up to now is      304.2 secs

     total energy              =   -2246.32541908 Ry
     estimated scf accuracy    <       0.00000968 Ry

     iteration #  7     ecut=    80.00 Ry     beta= 0.70
     Davidson diagonalization with overlap
     ethr =  3.10E-09,  avg # of iterations =  2.0

     negative rho (up, down):  3.090E-05 0.000E+00

     total cpu time spent up to now is      316.8 secs

     total energy              =   -2246.32542008 Ry
     estimated scf accuracy    <       0.00000379 Ry

     iteration #  8     ecut=    80.00 Ry     beta= 0.70
     Davidson diagonalization with overlap
     ethr =  1.22E-09,  avg # of iterations =  5.0

     negative rho (up, down):  4.724E-05 0.000E+00

     total cpu time spent up to now is      328.5 secs

     total energy              =   -2246.32542160 Ry
     estimated scf accuracy    <       0.00000073 Ry

     iteration #  9     ecut=    80.00 Ry     beta= 0.70
     Davidson diagonalization with overlap
     ethr =  2.34E-10,  avg # of iterations =  4.0

     negative rho (up, down):  8.156E-05 0.000E+00

     total cpu time spent up to now is      340.8 secs

     total energy              =   -2246.32542218 Ry
     estimated scf accuracy    <       0.00000021 Ry

     iteration # 10     ecut=    80.00 Ry     beta= 0.70
     Davidson diagonalization with overlap
     ethr =  6.76E-11,  avg # of iterations =  4.0

     negative rho (up, down):  2.032E-04 0.000E+00

     total cpu time spent up to now is      344.4 secs

     End of self-consistent calculation

          k = 0.0000 0.0000 0.0000 (105382 PWs)   bands (ev):

   -62.9965 -62.9627 -62.9510 -62.9311 -62.9224 -62.9128 -62.9033 -62.8999
   -62.8788 -62.8770 -62.8684 -62.7278 -37.3515 -37.2773 -37.2329 -37.2127
   -37.2110 -37.1929 -37.1779 -37.1650 -37.1604 -37.1514 -37.1337 -37.1299
   -37.1145 -37.1111 -37.1010 -37.0924 -37.0856 -37.0768 -37.0741 -37.0718
   -37.0656 -37.0560 -37.0497 -37.0405 -37.0225 -37.0048 -36.9942 -36.9844
   -36.9598 -36.9338 -36.9334 -36.9013 -36.8890 -36.8832 -36.8426 -36.8091
   -22.4605 -16.0123 -15.2785 -15.1471 -15.0481 -14.9621 -14.8191 -14.5939
   -14.5762 -14.5152 -14.4821 -14.4216 -14.4147 -14.3685 -14.3201 -14.2251
   -14.2043 -14.1903 -14.1522 -13.9739 -13.9454 -13.9330 -13.9082 -13.5813
    -8.0908  -7.9773  -7.6399  -7.5424  -7.4678  -7.3204  -7.3053  -7.2791
    -7.2146  -7.1344  -6.9640  -6.9181  -6.8141  -6.7778  -6.6996  -6.6434
    -6.5167  -6.4522  -6.3706  -6.3148  -6.1953  -6.1101  -5.9871  -5.9661
    -5.8697  -5.8501  -5.7998  -5.7855  -5.7599  -5.7223  -5.6762  -5.6261
    -5.6135  -5.5849  -5.4613  -5.3098  -5.2347  -5.1714  -5.1431  -5.0840
    -5.0592  -5.0272  -4.9402  -4.8270  -4.7204  -4.6785  -4.4187  -4.3960
    -4.3356  -4.3157  -4.2423  -4.1515  -4.1210  -4.0210  -4.0052  -3.8575
    -3.8129  -3.7547  -3.7311  -3.6500  -3.6276  -3.5851  -3.5777  -3.5318
    -3.4953  -3.4499  -3.3616  -3.2574  -3.0769  -3.0157  -2.9872  -2.8985
    -2.8535  -2.8241  -2.7999  -2.7788  -2.7166  -2.7011  -2.5642  -2.3533
    -2.2389  -2.0731  -2.0656  -1.9306  -1.1477  -0.9045  -0.5854  -0.2384
    -0.1829  -0.1176  -0.0152   0.0517   0.0847   0.1316   0.1722   0.2173
     0.2286   0.2644   0.3278   0.4145   0.4704   0.4940   0.5093   0.5855
     0.6182   0.6585   0.6882   0.7045   0.7324   0.7613   0.8306   0.9324
     0.9503   1.0005   1.2062

     the Fermi energy is    -1.5392 ev

!    total energy              =   -2246.32542227 Ry
     estimated scf accuracy    <       0.00000007 Ry
     smearing contrib. (-TS)   =      -0.00000287 Ry
     internal energy E=F+TS    =   -2246.32541941 Ry

     The total energy is F=E-TS. E is the sum of the following terms:
     one-electron contribution =  -18447.66275392 Ry
     hartree contribution      =    9211.81674945 Ry
     xc contribution           =    -392.11656608 Ry
     ewald contribution        =    7391.49511903 Ry
     one-center paw contrib.   =      -9.85796789 Ry

     convergence has been achieved in  10 iterations

     negative rho (up, down):  2.032E-04 0.000E+00

     Forces acting on atoms (cartesian axes, Ry/au):

     atom    1 type  1   force =    -0.00473983   -0.00337879   -0.00336439
     atom    2 type  2   force =    -0.00447829    0.00440453   -0.00238034
     atom    3 type  2   force =    -0.00959527    0.00464061   -0.01107080
     atom    4 type  1   force =     0.00920077   -0.00292462    0.00141747
     atom    5 type  2   force =     0.00263863   -0.00503872   -0.00474622
     atom    6 type  2   force =    -0.00467047    0.00177813    0.00072266
     atom    7 type  1   force =     0.00844788   -0.01016955    0.01868511
     atom    8 type  2   force =     0.01577533   -0.00154847   -0.05980617
     atom    9 type  2   force =     0.00318287    0.00545759    0.00667593
     atom   10 type  1   force =    -0.00159050    0.00585580    0.00063889
     atom   11 type  2   force =     0.00397401    0.00037658   -0.00743792
     atom   12 type  2   force =    -0.00543505   -0.00165603   -0.00193530
     atom   13 type  1   force =     0.00329914    0.00080057   -0.00004535
     atom   14 type  2   force =     0.00331665   -0.00041330    0.00605684
     atom   15 type  2   force =    -0.00614050    0.00121038   -0.00485748
     atom   16 type  1   force =     0.00243264    0.00689379    0.00173038
     atom   17 type  2   force =     0.00551942    0.00127942    0.00137570
     atom   18 type  2   force =    -0.00129069   -0.00066886    0.00843551
     atom   19 type  1   force =     0.00501288   -0.00282741    0.00207555
     atom   20 type  2   force =     0.00831588   -0.00313768   -0.00616442
     atom   21 type  1   force =    -0.00476397    0.00197156    0.00144251
     atom   22 type  2   force =     0.00011275   -0.00166230   -0.00304714
     atom   23 type  2   force =     0.00255256   -0.00057608    0.00212521
     atom   24 type  1   force =    -0.00279772   -0.00077492   -0.00326986
     atom   25 type  2   force =     0.00675322    0.00939393   -0.00393682
     atom   26 type  2   force =    -0.00331739   -0.00063162   -0.00339893
     atom   27 type  1   force =     0.00187504   -0.00172180    0.00007789
     atom   28 type  2   force =     0.00132843   -0.00955861   -0.00669038
     atom   29 type  2   force =     0.00319159    0.00161854   -0.00575075
     atom   30 type  1   force =     0.00753698   -0.00737478   -0.00437191
     atom   31 type  2   force =     0.01922704    0.01001511   -0.00901965
     atom   32 type  2   force =    -0.00254559    0.00231297   -0.00054166
     atom   33 type  1   force =    -0.00020135    0.00064175    0.00330279
     atom   34 type  2   force =    -0.00252596   -0.02030779   -0.01548819
     atom   35 type  2   force =    -0.00351812    0.01905100   -0.00612993
     atom   36 type  3   force =    -0.05608300   -0.00333093    0.10869114
     The non-local contrib.  to forces
     atom    1 type  1   force =     0.00047042    0.02271978   -0.01167756
     atom    2 type  2   force =    -0.00624234   -0.00650197   -0.27169802
     atom    3 type  2   force =    -0.01171381   -0.00872366    0.26308938
     atom    4 type  1   force =    -0.00297083    0.02679511    0.01953344
     atom    5 type  2   force =     0.00999536   -0.02899181   -0.25757141
     atom    6 type  2   force =    -0.00824421    0.00380045    0.26385084
     atom    7 type  1   force =    -0.03609234   -0.01250426   -0.01776020
     atom    8 type  2   force =     0.25061934   -0.05101203    0.17121486
     atom    9 type  2   force =     0.00344029   -0.01031403    0.27794980
     atom   10 type  1   force =     0.00837655    0.00411782    0.00111191
     atom   11 type  2   force =     0.01043769    0.00254444   -0.25771898
     atom   12 type  2   force =    -0.01726749   -0.02093901    0.26361610
     atom   13 type  1   force =     0.00018448    0.02432887   -0.00786155
     atom   14 type  2   force =     0.00764664   -0.01022263   -0.26773510
     atom   15 type  2   force =    -0.00824107   -0.00686124    0.26063888
     atom   16 type  1   force =    -0.00831413    0.02426817   -0.03526062
     atom   17 type  2   force =     0.00569907   -0.02647686   -0.25448365
     atom   18 type  2   force =    -0.00170655    0.00331966    0.27421430
     atom   19 type  1   force =     0.00048893   -0.00091012   -0.02913737
     atom   20 type  2   force =     0.00356631   -0.01611974    0.26496856
     atom   21 type  1   force =    -0.00313628    0.03337659    0.00548572
     atom   22 type  2   force =    -0.00438115    0.00278050   -0.26142280
[...]
     atom   28 type  2   force =    -0.00159182   -0.01065695   -0.27826734
     atom   29 type  2   force =    -0.00115007   -0.00787823    0.26772232
     atom   30 type  1   force =    -0.00535757    0.00329583    0.01964303
     atom   31 type  2   force =    -0.00951878    0.00062918   -0.26922242
     atom   32 type  2   force =     0.00787825   -0.01382537    0.26408066
     atom   33 type  1   force =     0.00060544    0.00688037    0.00457720
     atom   34 type  2   force =    -0.00095522   -0.00916131   -0.27687812
     atom   35 type  2   force =     0.00164812   -0.01443727    0.26368027
     atom   36 type  3   force =     0.03011680    0.06428090   -2.30807565
     The ionic contribution  to forces
     atom    1 type  1   force =    -0.28383246    0.27211850    2.26390415
     atom    2 type  2   force =    -0.12580766    0.08243029   38.61598705
     atom    3 type  2   force =     0.06016765   -0.06691271  -37.74930096
     atom    4 type  1   force =    -0.09871499   -0.94646601   -3.91980022
     atom    5 type  2   force =    -1.46213672    0.09250488   37.64362264
     atom    6 type  2   force =     0.11926634   -0.50918165  -38.66994517
     atom    7 type  1   force =    -3.32086762   -1.44734819   -1.88543032
     atom    8 type  2   force =    -1.10064220    0.30883228   28.01242613
     atom    9 type  2   force =     0.34622670    0.03366428  -38.59657039
     atom   10 type  1   force =    -0.38449644    0.57729899    2.15439603
     atom   11 type  2   force =    -1.04778244   -0.32245340   37.99995378
     atom   12 type  2   force =     0.23372848    0.55808524  -38.66202326
     atom   13 type  1   force =     0.05104024    0.54889632    1.70195906
     atom   14 type  2   force =    -0.14126822   -0.02081228   38.56231180
     atom   15 type  2   force =    -0.00643645   -0.08352141  -37.92137734
     atom   16 type  1   force =    -0.54586264    2.75194011    0.71154077
     atom   17 type  2   force =     0.75582540    0.82325769   38.01716370
     atom   18 type  2   force =    -0.17610876   -0.49749728  -38.45263597
     atom   19 type  1   force =     2.54410065   -1.57549240    0.85572962
     atom   20 type  2   force =    -0.06200787   -0.11752976  -39.57801096
     atom   21 type  1   force =    -0.31393397    0.35978165    0.34358506
     atom   22 type  2   force =     0.38170402   -1.10779863   38.25277316
     atom   23 type  2   force =    -0.23029526    0.46673743  -38.43923209
     atom   24 type  1   force =     0.19159119   -0.07344068    1.21341170
     atom   25 type  2   force =     0.28117788    0.09336512   38.60325401
     atom   26 type  2   force =    -0.03856777   -0.04719904  -37.95012135
     atom   27 type  1   force =     0.58781216   -0.28345892   -1.09038474
     atom   28 type  2   force =     0.65404734   -0.48594022   37.43287216
     atom   29 type  2   force =     0.08511793   -0.24579438  -38.46357150
     atom   30 type  1   force =     1.03526321   -0.05851855   -1.62468540
     atom   31 type  2   force =     2.00718436    0.04490625   37.59784831
     atom   32 type  2   force =    -0.32931736   -0.02584065  -38.74478108
     atom   33 type  1   force =     0.72773680    0.21603982    1.65988652
     atom   34 type  2   force =     0.56841530    0.57210176   38.34002621
     atom   35 type  2   force =    -0.00965568    0.34995011  -38.18636847
     atom   36 type  3   force =    -0.95267114   -0.23670456   49.95158738
     The local contribution  to forces
     atom    1 type  1   force =     0.28871919   -0.29424118   -2.25813904
     atom    2 type  2   force =     0.12770124   -0.07188868  -38.36678347
     atom    3 type  2   force =    -0.05800422    0.07615429   37.50142351
     atom    4 type  1   force =     0.09642962    0.92228355    3.89669643
     atom    5 type  2   force =     1.46006939   -0.07047568  -37.40383775
     atom    6 type  2   force =    -0.11896628    0.51097231   38.42274079
     atom    7 type  1   force =     3.33207039    1.45428065    1.89222474
     atom    8 type  2   force =     1.10092314   -0.27512391  -28.30066045
     atom    9 type  2   force =    -0.33996727   -0.02149880   38.33678707
     atom   10 type  1   force =     0.38264482   -0.58187150   -2.15475359
     atom   11 type  2   force =     1.04305717    0.32511182  -37.75649901
     atom   12 type  2   force =    -0.22530836   -0.54284005   38.41994882
     atom   13 type  1   force =    -0.05232536   -0.57415193   -1.69436943
     atom   14 type  2   force =     0.13873806    0.03081384  -38.31234989
     atom   15 type  2   force =     0.00739017    0.09289978   37.67932956
     atom   16 type  1   force =     0.54517552   -2.78230886   -0.67278878
     atom   17 type  2   force =    -0.75445943   -0.80221861  -37.77992746
     atom   18 type  2   force =     0.17645560    0.49915032   38.20473405
     atom   19 type  1   force =    -2.55994999    1.57053380   -0.83027116
     atom   20 type  2   force =     0.06309532    0.12818786   39.33787437
     atom   21 type  1   force =     0.31514401   -0.38791947   -0.34804027
     atom   22 type  2   force =    -0.37604536    1.11008350  -38.00996285
     atom   23 type  2   force =     0.22238533   -0.45314333   38.19581651
     atom   24 type  1   force =    -0.19454032    0.06011915   -1.21127982
     atom   25 type  2   force =    -0.27965780   -0.08148334  -38.35447583
     atom   26 type  2   force =     0.03597412    0.05667949   37.70459013
     atom   27 type  1   force =    -0.58239836    0.27600880    1.08734004
     atom   28 type  2   force =    -0.65279561    0.49597671  -37.17571863
     atom   29 type  2   force =    -0.08416241    0.25317778   38.21721560
     atom   30 type  1   force =    -1.02842473    0.05387928    1.60566302
     atom   31 type  2   force =    -1.99905831   -0.04463017  -37.35098128
     atom   32 type  2   force =     0.32103162    0.03894680   38.50204991
     atom   33 type  1   force =    -0.72906534   -0.22212482   -1.66353688
     atom   34 type  2   force =    -0.56849743   -0.56353721  -38.08464516
     atom   35 type  2   force =     0.00876284   -0.33650601   37.94273961
     atom   36 type  3   force =     0.92267540    0.17364976  -47.67031853
     The core correction contribution to forces
     atom    1 type  1   force =     0.00000000    0.00000000    0.00000000
     atom    2 type  2   force =     0.00015595    0.00051336    0.02098986
     atom    3 type  2   force =     0.00005619    0.00037294   -0.02090788
     atom    4 type  1   force =     0.00000000    0.00000000    0.00000000
     atom    5 type  2   force =    -0.00023084    0.00113379    0.02084476
     atom    6 type  2   force =     0.00007987   -0.00043362   -0.02094908
     atom    7 type  1   force =     0.00000000    0.00000000    0.00000000
     atom    8 type  2   force =    -0.00009501    0.00197267   -0.00988293
     atom    9 type  2   force =     0.00067771    0.00074817   -0.02143382
     atom   10 type  1   force =     0.00000000    0.00000000    0.00000000
     atom   11 type  2   force =    -0.00005628   -0.00018696    0.02099675
     atom   12 type  2   force =     0.00076868    0.00125896   -0.02079024
     atom   13 type  1   force =     0.00000000    0.00000000    0.00000000
     atom   14 type  2   force =    -0.00019114    0.00017558    0.02108477
     atom   15 type  2   force =     0.00010318    0.00043353   -0.02075141
     atom   16 type  1   force =     0.00000000    0.00000000    0.00000000
     atom   17 type  2   force =     0.00025778    0.00093517    0.02053558
     atom   18 type  2   force =    -0.00008216   -0.00037655   -0.02096376
     atom   19 type  1   force =     0.00000000    0.00000000    0.00000000
     atom   20 type  2   force =    -0.00000179    0.00036505   -0.02110915
     atom   21 type  1   force =     0.00000000    0.00000000    0.00000000
     atom   22 type  2   force =     0.00011278   -0.00014619    0.02084774
     atom   23 type  2   force =    -0.00065558    0.00106205   -0.02080511
     atom   24 type  1   force =     0.00000000    0.00000000    0.00000000
     atom   25 type  2   force =     0.00006063    0.00051235    0.02099366
     atom   26 type  2   force =    -0.00015457    0.00040500   -0.02090568
     atom   27 type  1   force =     0.00000000    0.00000000    0.00000000
     atom   28 type  2   force =     0.00008379    0.00079352    0.02148383
     atom   29 type  2   force =     0.00010635    0.00021983   -0.02081436
     atom   30 type  1   force =     0.00000000    0.00000000    0.00000000
     atom   31 type  2   force =     0.00044870    0.00013924    0.02122871
     atom   32 type  2   force =    -0.00071696    0.00068021   -0.02077439
     atom   33 type  1   force =     0.00000000    0.00000000    0.00000000
     atom   34 type  2   force =     0.00003890    0.00035976    0.02151781
     atom   35 type  2   force =    -0.00017077    0.00088361   -0.02083310
     atom   36 type  3   force =    -0.00032912   -0.00066773    0.02446428
     The Hubbard contrib.    to forces
     atom    1 type  1   force =     0.00000000    0.00000000    0.00000000
     atom    2 type  2   force =     0.00000000    0.00000000    0.00000000
     atom    3 type  2   force =     0.00000000    0.00000000    0.00000000
     atom    4 type  1   force =     0.00000000    0.00000000    0.00000000
     atom    5 type  2   force =     0.00000000    0.00000000    0.00000000
     atom    6 type  2   force =     0.00000000    0.00000000    0.00000000
     atom    7 type  1   force =     0.00000000    0.00000000    0.00000000
     atom    8 type  2   force =     0.00000000    0.00000000    0.00000000
     atom    9 type  2   force =     0.00000000    0.00000000    0.00000000
     atom   10 type  1   force =     0.00000000    0.00000000    0.00000000
     atom   11 type  2   force =     0.00000000    0.00000000    0.00000000
     atom   12 type  2   force =     0.00000000    0.00000000    0.00000000
     atom   13 type  1   force =     0.00000000    0.00000000    0.00000000
     atom   14 type  2   force =     0.00000000    0.00000000    0.00000000
     atom   15 type  2   force =     0.00000000    0.00000000    0.00000000
     atom   16 type  1   force =     0.00000000    0.00000000    0.00000000
     atom   17 type  2   force =     0.00000000    0.00000000    0.00000000
     atom   18 type  2   force =     0.00000000    0.00000000    0.00000000
     atom   19 type  1   force =     0.00000000    0.00000000    0.00000000
     atom   20 type  2   force =     0.00000000    0.00000000    0.00000000
     atom   21 type  1   force =     0.00000000    0.00000000    0.00000000
     atom   22 type  2   force =     0.00000000    0.00000000    0.00000000
     atom   23 type  2   force =     0.00000000    0.00000000    0.00000000
     atom   24 type  1   force =     0.00000000    0.00000000    0.00000000
     atom   25 type  2   force =     0.00000000    0.00000000    0.00000000
     atom   26 type  2   force =     0.00000000    0.00000000    0.00000000
     atom   27 type  1   force =     0.00000000    0.00000000    0.00000000
     atom   28 type  2   force =     0.00000000    0.00000000    0.00000000
     atom   29 type  2   force =     0.00000000    0.00000000    0.00000000
     atom   30 type  1   force =     0.00000000    0.00000000    0.00000000
     atom   31 type  2   force =     0.00000000    0.00000000    0.00000000
     atom   32 type  2   force =     0.00000000    0.00000000    0.00000000
     atom   33 type  1   force =     0.00000000    0.00000000    0.00000000
     atom   34 type  2   force =     0.00000000    0.00000000    0.00000000
     atom   35 type  2   force =     0.00000000    0.00000000    0.00000000
     atom   36 type  3   force =     0.00000000    0.00000000    0.00000000
     The SCF correction term to forces
     atom    1 type  1   force =    -0.00001991    0.00003323    0.00003231
     atom    2 type  2   force =    -0.00002122    0.00003435   -0.00001288
     atom    3 type  2   force =     0.00000242    0.00001769    0.00001185
     atom    4 type  1   force =     0.00004519   -0.00003961    0.00002912
     atom    5 type  2   force =     0.00001376    0.00000272    0.00001587
     atom    6 type  2   force =     0.00000810   -0.00001082    0.00000550
     atom    7 type  1   force =     0.00000822   -0.00001212    0.00003233
     atom    8 type  2   force =     0.00000790   -0.00003387   -0.00000243
     atom    9 type  2   force =     0.00003134   -0.00001288    0.00001786
     atom   10 type  1   force =     0.00000224   -0.00000207   -0.00001071
     atom   11 type  2   force =    -0.00000761    0.00000293   -0.00000439
     atom   12 type  2   force =     0.00001221    0.00000378   -0.00000195
     atom   13 type  1   force =    -0.00001749    0.00004858   -0.00005987
     atom   14 type  2   force =     0.00003202    0.00002389   -0.00000629
     atom   15 type  2   force =     0.00000480    0.00000988    0.00000110
     atom   16 type  1   force =     0.00000009   -0.00001468    0.00003644
     atom   17 type  2   force =    -0.00000058    0.00001299   -0.00001867
     atom   18 type  2   force =    -0.00002207    0.00000520    0.00001113
     atom   19 type  1   force =    -0.00001464   -0.00003434   -0.00000688
     atom   20 type  2   force =    -0.00002424   -0.00001815    0.00001719
     atom   21 type  1   force =     0.00001866    0.00001044    0.00000925
     atom   22 type  2   force =    -0.00000988   -0.00001617   -0.00001088
     atom   23 type  2   force =    -0.00002031    0.00001068    0.00000042
     atom   24 type  1   force =    -0.00009141    0.00009920   -0.00007700
     atom   25 type  2   force =     0.00000839    0.00001853   -0.00000016
     atom   26 type  2   force =     0.00001392    0.00001943   -0.00002674
     atom   27 type  1   force =    -0.00000221   -0.00001563   -0.00002485
     atom   28 type  2   force =    -0.00001718    0.00003283   -0.00001358
     atom   29 type  2   force =     0.00001205    0.00000522    0.00001537
     atom   30 type  1   force =     0.00002697   -0.00004165    0.00002281
     atom   31 type  2   force =    -0.00002377   -0.00002297   -0.00000227
     atom   32 type  2   force =    -0.00000145   -0.00002359   -0.00000284
     atom   33 type  1   force =     0.00003980   -0.00005086   -0.00010534
     atom   34 type  2   force =    -0.00000040   -0.00002586   -0.00001375
     atom   35 type  2   force =    -0.00000181   -0.00001220    0.00000483
     atom   36 type  3   force =     0.00002345   -0.00009223    0.00000793

     Total force =     0.007264     Total SCF correction =     0.000296
     Energy error            =      9.3E-05 Ry
     Gradient error          =      2.5E-03 Ry/Bohr

     bfgs converged in  23 scf cycles and  22 bfgs steps
     (criteria: energy <  1.0E-04 Ry, force <  1.0E-02 Ry/Bohr)

     End of BFGS Geometry Optimization

     Final energy             =   -2246.4506694768 Ry

     File ./MoS2-V-O.bfgs deleted, as requested
Begin final coordinates

ATOMIC_POSITIONS (angstrom)
Mo            6.5932439650        1.7512989330        2.7732148924
S             8.1752381252        0.8454152790        4.3749562132
S             8.1711582667        0.8374937387        1.1907658581
Mo            8.1633674214        4.4649881594        2.6924373946
S             6.5711158549        3.6699136690        4.3170211483
S             6.5721933258        3.5416740230        1.1100757137
Mo            6.5258743244        7.1983501901        2.6460120371
S             8.1268189111        6.3147605190        4.2047605780
S             8.1847930686        6.3224959387        1.1214502412
Mo            8.1714541223        9.9271153755        2.7818917562
S             6.5523134903        8.9269510941        4.3407017754
S             6.6280327721        9.0464228244        1.1238974913
Mo            3.4663212346        1.7472335950        2.7595383652
S             5.0258328858        0.8082316404        4.3563900457
S             5.0342742980        0.8352626389        1.1730809714
Mo            5.0351472949        4.5404083395        2.6626348708
S             3.5069068228        3.6542915042        4.3065004000
S             3.4802642481        3.5545200218        1.1132964903
Mo            3.5128474264        7.1807922268        2.6612351013
S             5.0228837529        6.3000735891        1.0269725174
Mo            5.0335173582        9.9055643674        2.7351692227
S             3.5050946729        8.9494005430        4.3245108072
S             3.4427062790        9.0351433129        1.1262495294
Mo            0.3070730577        1.7438379169        2.7658139518
S             1.8915396007        0.8418184500        4.3630975625
S             1.8864221446        0.8357388011        1.1743765323
Mo            1.9103123534        4.4907135041        2.7083067054
S             0.3038170794        3.6101662098        4.3144540048
S             0.3201899547        3.5459715370        1.1315736532
Mo            0.3336066763        7.2247578374        2.7316805936
S             1.9707812679        6.3028268377        4.2988686056
S             1.9017428566        6.3154601040        1.1028135323
Mo            1.8861694800        9.9305965052        2.7658165065
S             0.3095488174        9.0216226941        4.3713834099
S             0.2946423848        9.0613137283        1.1716743827
O             8.1118614171        6.2699318730        5.7036999582
End final coordinates



     Writing all to output data dir ./MoS2-V-O.save/
 
     init_run     :      4.60s CPU      5.11s WALL (       1 calls)
     electrons    :   2113.63s CPU   2392.03s WALL (      23 calls)
     update_pot   :     67.41s CPU     71.99s WALL (      22 calls)
     forces       :     62.73s CPU     71.56s WALL (      23 calls)

     Called by init_run:
     wfcinit      :      0.48s CPU      0.53s WALL (       1 calls)
     potinit      :      2.38s CPU      2.62s WALL (       1 calls)
     hinit0       :      0.43s CPU      0.46s WALL (       1 calls)

     Called by electrons:
     c_bands      :    306.64s CPU    314.50s WALL (     217 calls)
     sum_band     :    122.20s CPU    157.54s WALL (     217 calls)
     v_of_rho     :    210.26s CPU    255.42s WALL (     232 calls)
     newd         :     72.21s CPU    104.98s WALL (     232 calls)
     PAW_pot      :      9.18s CPU      9.21s WALL (     254 calls)
     mix_rho      :   1416.68s CPU   1575.98s WALL (     217 calls)

     Called by c_bands:
     init_us_2    :      4.98s CPU      5.38s WALL (     457 calls)
     init_us_2:cp :      4.98s CPU      5.38s WALL (     457 calls)
     regterg      :    290.37s CPU    297.82s WALL (     217 calls)

     Called by *egterg:
     rdiaghg      :     19.66s CPU     19.84s WALL (    1116 calls)
     h_psi        :    188.87s CPU    190.48s WALL (    1147 calls)
     s_psi        :     17.94s CPU     18.01s WALL (    1147 calls)
     g_psi        :      0.91s CPU      0.93s WALL (     929 calls)

     Called by h_psi:
     h_psi:calbec :     19.80s CPU     19.91s WALL (    1147 calls)
     vloc_psi     :    148.97s CPU    150.37s WALL (    1147 calls)
     add_vuspsi   :     17.72s CPU     17.81s WALL (    1147 calls)

     General routines
     calbec       :     28.78s CPU     28.93s WALL (    1478 calls)
     fft          :    146.22s CPU    168.38s WALL (   15493 calls)
     ffts         :    636.79s CPU    790.31s WALL (  348289 calls)
     fftw         :     95.72s CPU     96.51s WALL (  132260 calls)
     interpolate  :      2.87s CPU      3.31s WALL (     232 calls)
 
     Parallel routines
 
     PWSCF        :  37m38.48s CPU  42m35.47s WALL

 
   This run was terminated on:  19:19:58   1Nov2023            

=------------------------------------------------------------------------------=
   JOB DONE.
=------------------------------------------------------------------------------=
