
     Program PWSCF v.7.2 starts on  1Nov2023 at 19:34:24 

     This program is part of the open-source Quantum ESPRESSO suite
     for quantum simulation of materials; please cite
         "P. Giannozzi et al., J. Phys.:Condens. Matter 21 395502 (2009);
         "P. Giannozzi et al., J. Phys.:Condens. Matter 29 465901 (2017);
         "P. Giannozzi et al., J. Chem. Phys. 152 154105 (2020);
          URL http://www.quantum-espresso.org", 
     in publications or presentations arising from this work. More details at
     http://www.quantum-espresso.org/quote

     Parallel version (MPI & OpenMP), running on      48 processor cores
     Number of MPI processes:                48
     Threads/MPI process:                     1

     MPI processes distributed on     1 nodes
     151371 MiB available memory on the printing compute node when the environment starts
 
     Waiting for input...
     Reading input from standard input
Warning: card &CELL ignored
Warning: card CELL_DYNAMICS = 'BFGS', ignored
Warning: card CELL_DOFREE = '2DXY' ignored
Warning: card / ignored

     Current dimensions of program PWSCF are:
     Max number of different atomic species (ntypx) = 10
     Max number of k-points (npk) =  40000
     Max angular momentum in pseudopotentials (lmaxx) =  4
     file O.pbe-n-kjpaw_psl.0.1.UPF: wavefunction(s)  2P renormalized

     IMPORTANT: XC functional enforced from input :
     Exchange-correlation= RVV10
                           (   1   4  13   4  26   0   0)
     Any further DFT definition will be discarded
     Please, verify this is what you really want


     gamma-point specific algorithms are used
     signal trapping enabled: kill the code with -SIGUSR1 to stop cleanly the simulation 
 
     R & G space division:  proc/nbgrp/npool/nimage =      48
     Subspace diagonalization in iterative solution of the eigenvalue problem:
     one sub-group per band group will be used
     scalapack distributed-memory algorithm (size of sub-group:  2*  2 procs)

 
     Parallelization info
     --------------------
     sticks:   dense  smooth     PW     G-vecs:    dense   smooth      PW
     Min         396     194     47               101632    35090    4376
     Max         398     196     50               101674    35128    4410
     Sum       19091    9389   2349              4879585  1685513  210763
 
     Using Slab Decomposition
 


     bravais-lattice index     =            0
     lattice parameter (alat)  =      17.8707  a.u.
     unit-cell volume          =   17436.2743 (a.u.)^3
     number of atoms/cell      =           36
     number of atomic types    =            3
     number of electrons       =       312.00
     number of Kohn-Sham states=          187
     kinetic-energy cutoff     =      80.0000  Ry
     charge density cutoff     =     650.0000  Ry
     scf convergence threshold =      1.0E-06
     mixing beta               =       0.7000
     number of iterations used =            8  local-TF  mixing
     energy convergence thresh.=      1.0E-04
     force convergence thresh. =      1.0E-02
     Exchange-correlation= RVV10
                           (   1   4  13   4  26   0   0)
     nstep                     =          200


     celldm(1)=  17.870686  celldm(2)=   0.000000  celldm(3)=   0.000000
     celldm(4)=   0.000000  celldm(5)=   0.000000  celldm(6)=   0.000000

     crystal axes: (cart. coord. in units of alat)
               a(1) = (   1.000000   0.000000   0.000000 )  
               a(2) = (   0.000000   1.155671   0.000000 )  
               a(3) = (   0.000000   0.000000   2.643601 )  

     reciprocal axes: (cart. coord. in units 2 pi/alat)
               b(1) = (  1.000000  0.000000  0.000000 )  
               b(2) = (  0.000000  0.865298  0.000000 )  
               b(3) = (  0.000000  0.000000  0.378272 )  


     PseudoPot. # 1 for Mo read from file:
     ../pseudo/Mo_ONCV_PBE-1.0.oncvpsp.upf
     MD5 check sum: 1b5d28e075c9ccadda658a603575cd1f
     Pseudo is Norm-conserving, Zval = 14.0
     Generated using ONCVPSP code by D. R. Hamann
     Using radial grid of 1526 points,  6 beta functions with: 
                l(1) =   0
                l(2) =   0
                l(3) =   1
                l(4) =   1
                l(5) =   2
                l(6) =   2

     PseudoPot. # 2 for S  read from file:
     ../pseudo/s_pbe_v1.4.uspp.F.UPF
     MD5 check sum: 88d86576ff6df21479756cfb9bdac1df
     Pseudo is Ultrasoft + core correction, Zval =  6.0
     Generated by new atomic code, or converted to UPF format
     Using radial grid of  907 points,  6 beta functions with: 
                l(1) =   0
                l(2) =   0
                l(3) =   1
                l(4) =   1
                l(5) =   2
                l(6) =   2
     Q(r) pseudized with  8 coefficients,  rinner =    1.300   1.300   1.300
                                                       1.300   1.300

     PseudoPot. # 3 for O  read from file:
     ../pseudo/O.pbe-n-kjpaw_psl.0.1.UPF
     MD5 check sum: 0234752ac141de4415c5fc33072bef88
     Pseudo is Projector augmented-wave + core cor, Zval =  6.0
     Generated using "atomic" code by A. Dal Corso  v.5.0.99 svn rev. 10869
     Shape of augmentation charge: BESSEL
     Using radial grid of 1095 points,  4 beta functions with: 
                l(1) =   0
                l(2) =   0
                l(3) =   1
                l(4) =   1
     Q(r) pseudized with 0 coefficients 


     atomic species   valence    mass     pseudopotential
        Mo            14.00    95.94000     Mo( 1.00)
        S              6.00    32.06500     S ( 1.00)
        O              6.00    15.99940     O ( 1.00)

     No symmetry found



   Cartesian axes

     site n.     atom                  positions (alat units)
         1           Mo  tau(   1) = (   0.6952221   0.1890506   0.2985846  )
         2           S   tau(   2) = (   0.8646417   0.0856217   0.4689279  )
         3           S   tau(   3) = (   0.8663890   0.0857843   0.1351291  )
         4           Mo  tau(   4) = (   0.8560186   0.4753274   0.2873942  )
         5           S   tau(   5) = (   0.6873294   0.3936244   0.4596353  )
         6           S   tau(   6) = (   0.6929804   0.3713468   0.1185692  )
         7           Mo  tau(   7) = (   0.6862796   0.7633098   0.2825370  )
         8           S   tau(   8) = (   0.8545980   0.6708292   0.4486168  )
         9           S   tau(   9) = (   0.8545123   0.6666874   0.1146125  )
        10           Mo  tau(  10) = (   0.8629403   1.0471007   0.3006803  )
        11           S   tau(  11) = (   0.6868280   0.9456650   0.4634891  )
        12           S   tau(  12) = (   0.6998113   0.9568511   0.1205389  )
        13           Mo  tau(  13) = (   0.3618216   0.1847309   0.2935964  )
        14           S   tau(  14) = (   0.5260962   0.0863870   0.4600448  )
        15           S   tau(  15) = (   0.5348379   0.0894875   0.1297123  )
        16           Mo  tau(  16) = (   0.5265817   0.4772436   0.2784130  )
        17           S   tau(  17) = (   0.3624753   0.3882513   0.4525556  )
        18           S   tau(  18) = (   0.3635411   0.3752055   0.1119148  )
        19           Mo  tau(  19) = (   0.3652268   0.7630864   0.2781795  )
        20           S   tau(  20) = (   0.5269494   0.6690381   0.1096838  )
        21           Mo  tau(  21) = (   0.5300192   1.0470394   0.2900995  )
        22           S   tau(  22) = (   0.3670346   0.9457522   0.4574073  )
        23           S   tau(  23) = (   0.3604225   0.9585725   0.1159032  )
        24           Mo  tau(  24) = (   0.0313099   0.1847895   0.3013130  )
        25           S   tau(  25) = (   0.1956761   0.0838230   0.4650863  )
        26           S   tau(  26) = (   0.1967693   0.0903508   0.1278874  )
        27           Mo  tau(  27) = (   0.1967578   0.4753919   0.2813011  )
        28           S   tau(  28) = (   0.0287851   0.3864324   0.4586755  )
        29           S   tau(  29) = (   0.0244514   0.3729871   0.1239344  )
        30           Mo  tau(  30) = (   0.0286728   0.7631204   0.2856894  )
        31           S   tau(  31) = (   0.2011512   0.6675435   0.4465001  )
        32           S   tau(  32) = (   0.1969214   0.6672839   0.1104564  )
        33           Mo  tau(  33) = (   0.1950294   1.0511147   0.2932237  )
        34           S   tau(  34) = (   0.0312912   0.9612169   0.4667423  )
        35           S   tau(  35) = (   0.0292670   0.9563028   0.1216485  )
        36           O   tau(  36) = (   0.6666667   0.7704471   0.5656742  )

     number of k points=     1  Gaussian smearing, width (Ry)=  0.0100
                       cart. coord. in units 2pi/alat
        k(    1) = (   0.0000000   0.0000000   0.0000000), wk =   2.0000000

     Dense  grid:  2439793 G-vectors     FFT dimensions: ( 150, 180, 384)

     Smooth grid:   842757 G-vectors     FFT dimensions: ( 108, 120, 270)

     Estimated max dynamical RAM per process >     269.22 MB

     Estimated total dynamical RAM >      12.62 GB

     Initial potential from superposition of free atoms

     starting charge     311.9873, renormalised to     312.0000

     negative rho (up, down):  2.744E-04 0.000E+00


---------------------------------------------------------------------------------
Carrying out rVV10 run using the following parameters:
Nqs =      20    Nr_points =    1024   r_max =   100.000
b_value =  6.30000    beta =  0.00901
     q_mesh =  0.00010000  0.00030000  0.00058939  0.00100810
               0.00161396  0.00249058  0.00375900  0.00559430
               0.00824984  0.01209221  0.01765183  0.02569619
               0.03733578  0.05417739  0.07854596  0.11380545
               0.16482331  0.23864234  0.34545298  0.50000000

Gradients computed in Reciprocal space

---------------------------------------------------------------------------------


     Starting wfcs are  216 randomized atomic wfcs
     Checking if some PAW data can be deallocated... 

     total cpu time spent up to now is        5.1 secs

     Self-consistent Calculation

     iteration #  1     ecut=    80.00 Ry     beta= 0.70
     Davidson diagonalization with overlap
     ethr =  1.00E-02,  avg # of iterations =  2.0

     Threshold (ethr) on eigenvalues was too large:
     Diagonalizing with lowered threshold

     Davidson diagonalization with overlap
     ethr =  4.29E-04,  avg # of iterations =  3.0

     negative rho (up, down):  3.573E-08 0.000E+00

     total cpu time spent up to now is       19.2 secs

     total energy              =   -2246.20690679 Ry
     estimated scf accuracy    <       1.58417777 Ry

     iteration #  2     ecut=    80.00 Ry     beta= 0.70
     Davidson diagonalization with overlap
     ethr =  5.08E-04,  avg # of iterations =  4.0

     total cpu time spent up to now is       24.8 secs

     total energy              =   -2246.20215279 Ry
     estimated scf accuracy    <       1.20885517 Ry

     iteration #  3     ecut=    80.00 Ry     beta= 0.70
     Davidson diagonalization with overlap
     ethr =  3.87E-04,  avg # of iterations =  2.0

     total cpu time spent up to now is       28.6 secs

     total energy              =   -2246.19777101 Ry
     estimated scf accuracy    <       0.33119831 Ry

     iteration #  4     ecut=    80.00 Ry     beta= 0.70
     Davidson diagonalization with overlap
     ethr =  1.06E-04,  avg # of iterations =  2.0

     total cpu time spent up to now is       32.4 secs

     total energy              =   -2246.24881760 Ry
     estimated scf accuracy    <       0.04207860 Ry

     iteration #  5     ecut=    80.00 Ry     beta= 0.70
     Davidson diagonalization with overlap
     ethr =  1.35E-05,  avg # of iterations = 18.0

     total cpu time spent up to now is       37.1 secs

     total energy              =   -2246.25048082 Ry
     estimated scf accuracy    <       0.01919262 Ry

     iteration #  6     ecut=    80.00 Ry     beta= 0.70
     Davidson diagonalization with overlap
     ethr =  6.15E-06,  avg # of iterations =  2.0

     total cpu time spent up to now is       40.7 secs

     total energy              =   -2246.25053960 Ry
     estimated scf accuracy    <       0.01498410 Ry

     iteration #  7     ecut=    80.00 Ry     beta= 0.70
     Davidson diagonalization with overlap
     ethr =  4.80E-06,  avg # of iterations =  1.0

     total cpu time spent up to now is       44.0 secs

     total energy              =   -2246.24965950 Ry
     estimated scf accuracy    <       0.00997168 Ry

     iteration #  8     ecut=    80.00 Ry     beta= 0.70
     Davidson diagonalization with overlap
     ethr =  3.20E-06,  avg # of iterations =  1.0

     negative rho (up, down):  1.182E-05 0.000E+00

     total cpu time spent up to now is       50.8 secs

     total energy              =   -2246.24798244 Ry
     estimated scf accuracy    <       0.00637283 Ry

     iteration #  9     ecut=    80.00 Ry     beta= 0.70
     Davidson diagonalization with overlap
     ethr =  2.04E-06,  avg # of iterations =  2.0

     negative rho (up, down):  1.567E-02 0.000E+00

     total cpu time spent up to now is       56.9 secs

     total energy              =   -2246.24781622 Ry
     estimated scf accuracy    <       0.00279735 Ry

     iteration # 10     ecut=    80.00 Ry     beta= 0.70
     Davidson diagonalization with overlap
     ethr =  8.97E-07,  avg # of iterations =  2.0

     negative rho (up, down):  2.376E-02 0.000E+00

     total cpu time spent up to now is       62.8 secs

     total energy              =   -2246.24765075 Ry
     estimated scf accuracy    <       0.00145690 Ry

     iteration # 11     ecut=    80.00 Ry     beta= 0.70
     Davidson diagonalization with overlap
     ethr =  4.67E-07,  avg # of iterations =  2.0

     negative rho (up, down):  1.970E-02 0.000E+00

     total cpu time spent up to now is       68.8 secs

     total energy              =   -2246.24771894 Ry
     estimated scf accuracy    <       0.00046091 Ry

     iteration # 12     ecut=    80.00 Ry     beta= 0.70
     Davidson diagonalization with overlap
     ethr =  1.48E-07,  avg # of iterations =  2.0

     negative rho (up, down):  6.761E-03 0.000E+00

     total cpu time spent up to now is       75.8 secs

     total energy              =   -2246.24768963 Ry
     estimated scf accuracy    <       0.00010666 Ry

     iteration # 13     ecut=    80.00 Ry     beta= 0.70
     Davidson diagonalization with overlap
     ethr =  3.42E-08,  avg # of iterations =  5.0

     negative rho (up, down):  2.235E-03 0.000E+00

     total cpu time spent up to now is       86.2 secs

     total energy              =   -2246.24774290 Ry
     estimated scf accuracy    <       0.00001932 Ry

     iteration # 14     ecut=    80.00 Ry     beta= 0.70
     Davidson diagonalization with overlap
     ethr =  6.19E-09,  avg # of iterations =  5.0

     negative rho (up, down):  9.347E-04 0.000E+00

     total cpu time spent up to now is       95.6 secs

     total energy              =   -2246.24774931 Ry
     estimated scf accuracy    <       0.00000671 Ry

     iteration # 15     ecut=    80.00 Ry     beta= 0.70
     Davidson diagonalization with overlap
     ethr =  2.15E-09,  avg # of iterations =  2.0

     negative rho (up, down):  4.604E-04 0.000E+00

     total cpu time spent up to now is      103.8 secs

     total energy              =   -2246.24775165 Ry
     estimated scf accuracy    <       0.00000323 Ry

     iteration # 16     ecut=    80.00 Ry     beta= 0.70
     Davidson diagonalization with overlap
     ethr =  1.03E-09,  avg # of iterations =  2.0

     negative rho (up, down):  3.661E-04 0.000E+00

     total cpu time spent up to now is      113.8 secs

     total energy              =   -2246.24775289 Ry
     estimated scf accuracy    <       0.00000105 Ry

     iteration # 17     ecut=    80.00 Ry     beta= 0.70
     Davidson diagonalization with overlap
     ethr =  3.38E-10,  avg # of iterations =  5.0

     negative rho (up, down):  1.729E-04 0.000E+00

     total cpu time spent up to now is      117.2 secs

     End of self-consistent calculation

          k = 0.0000 0.0000 0.0000 (105382 PWs)   bands (ev):

   -63.0555 -62.9974 -62.9727 -62.9634 -62.9586 -62.9482 -62.9262 -62.9194
   -62.9115 -62.9042 -62.8618 -62.8505 -37.3798 -37.3017 -37.2714 -37.2567
   -37.2460 -37.2375 -37.2259 -37.2118 -37.1978 -37.1851 -37.1699 -37.1663
   -37.1565 -37.1424 -37.1336 -37.1304 -37.1279 -37.1190 -37.1084 -37.1033
   -37.0980 -37.0870 -37.0609 -37.0496 -37.0342 -37.0325 -37.0246 -37.0172
   -37.0071 -36.9974 -36.9765 -36.9534 -36.9511 -36.9179 -36.8793 -36.8284
   -19.3368 -16.0446 -15.3115 -15.2150 -15.0479 -15.0149 -14.8578 -14.6637
   -14.5842 -14.5491 -14.5018 -14.4691 -14.4461 -14.4035 -14.3780 -14.2983
   -14.2224 -14.1987 -14.1632 -14.1368 -13.9605 -13.9528 -13.9485 -13.9237
    -7.8166  -7.6232  -7.5097  -7.4504  -7.4041  -7.3314  -7.3179  -7.2560
    -7.0632  -6.9674  -6.8951  -6.8502  -6.7974  -6.7161  -6.6183  -6.6014
    -6.5659  -6.4930  -6.3659  -6.3340  -6.0984  -6.0636  -6.0015  -5.9349
    -5.8909  -5.8631  -5.8229  -5.7933  -5.7734  -5.7465  -5.6659  -5.6200
    -5.6040  -5.5464  -5.5046  -5.3537  -5.2904  -5.2100  -5.1801  -5.1178
    -5.0141  -5.0066  -4.9792  -4.8175  -4.7922  -4.6519  -4.4553  -4.4158
    -4.3350  -4.2964  -4.2607  -4.1906  -4.1155  -4.0359  -3.9112  -3.8612
    -3.8226  -3.7852  -3.6888  -3.6591  -3.6454  -3.6205  -3.5738  -3.5328
    -3.5027  -3.4901  -3.3772  -3.3496  -3.2066  -3.0371  -2.9984  -2.9554
    -2.8865  -2.8297  -2.8087  -2.7937  -2.7339  -2.6925  -2.6841  -2.3809
    -2.1656  -2.1331  -1.9577  -1.6032  -1.3875  -0.8539  -0.5929  -0.2978
    -0.2355  -0.2097  -0.1044  -0.0726   0.0507   0.0714   0.1244   0.1429
     0.2211   0.2489   0.3377   0.3775   0.4259   0.4537   0.4648   0.5098
     0.5661   0.6138   0.6435   0.6687   0.6768   0.7385   0.8068   0.8397
     0.9060   0.9616   1.0489

     the Fermi energy is    -1.4953 ev

!    total energy              =   -2246.24775216 Ry
     estimated scf accuracy    <       0.00000030 Ry
     smearing contrib. (-TS)   =      -0.00601778 Ry
     internal energy E=F+TS    =   -2246.24173438 Ry

     The total energy is F=E-TS. E is the sum of the following terms:
     one-electron contribution =  -18439.42985134 Ry
     hartree contribution      =    9207.61125605 Ry
     xc contribution           =    -391.84348701 Ry
     ewald contribution        =    7387.29613621 Ry
     one-center paw contrib.   =      -9.87578828 Ry

     convergence has been achieved in  17 iterations

     negative rho (up, down):  1.729E-04 0.000E+00

     Forces acting on atoms (cartesian axes, Ry/au):

     atom    1 type  1   force =     0.01260348   -0.02784103    0.00386728
     atom    2 type  2   force =    -0.01403576    0.02018596    0.00114784
     atom    3 type  2   force =    -0.01220971    0.00951988   -0.00471908
     atom    4 type  1   force =     0.01215296    0.00499372   -0.00474985
     atom    5 type  2   force =    -0.00233987   -0.00653117   -0.00432561
     atom    6 type  2   force =     0.00116667    0.00968268   -0.00021463
     atom    7 type  1   force =     0.01207125   -0.03573204    0.03018875
     atom    8 type  2   force =     0.03245899   -0.01379887   -0.00544984
     atom    9 type  2   force =     0.00889599    0.00401966    0.01013546
     atom   10 type  1   force =     0.00156412   -0.00335899   -0.02324434
     atom   11 type  2   force =     0.00119837   -0.03334071    0.06672883
     atom   12 type  2   force =    -0.00360355    0.00093818    0.00425014
     atom   13 type  1   force =     0.00498564    0.00476912   -0.00604308
     atom   14 type  2   force =     0.00830343    0.00246812    0.01489330
     atom   15 type  2   force =    -0.00990023    0.00493334   -0.01032100
     atom   16 type  1   force =    -0.00996134    0.00977504   -0.00164452
     atom   17 type  2   force =     0.00580913    0.00065353    0.00209400
     atom   18 type  2   force =    -0.00243415   -0.00662530    0.01299990
     atom   19 type  1   force =    -0.00502806   -0.01144368   -0.01626561
     atom   20 type  2   force =     0.00495281   -0.00541001    0.00172882
     atom   21 type  1   force =    -0.02647096   -0.00499945   -0.00865941
     atom   22 type  2   force =    -0.00621526   -0.00019670   -0.00239722
     atom   23 type  2   force =     0.00512442    0.00333422    0.01065281
     atom   24 type  1   force =    -0.01023449   -0.00343518   -0.02046607
     atom   25 type  2   force =     0.01667475    0.01777875    0.00752601
     atom   26 type  2   force =    -0.01124491   -0.00058593   -0.00324274
     atom   27 type  1   force =    -0.00058089    0.00117388    0.00642151
     atom   28 type  2   force =     0.00063466    0.00029712   -0.00380932
     atom   29 type  2   force =     0.00154783   -0.00067110   -0.00216837
     atom   30 type  1   force =     0.00695275    0.00587862   -0.00869151
     atom   31 type  2   force =     0.00124494    0.00065232    0.01728010
     atom   32 type  2   force =    -0.00885800    0.00670269    0.01007657
     atom   33 type  1   force =     0.01465388   -0.00393023   -0.00791077
     atom   34 type  2   force =     0.00540055   -0.04122916   -0.00988241
     atom   35 type  2   force =    -0.01257629    0.00753111    0.01323568
     atom   36 type  3   force =    -0.02270313    0.08384160   -0.06902162
     The non-local contrib.  to forces
     atom    1 type  1   force =    -0.00506120    0.04612616   -0.00888352
     atom    2 type  2   force =    -0.00980368    0.00411940   -0.27216417
     atom    3 type  2   force =    -0.01401893   -0.00315123    0.26977463
     atom    4 type  1   force =    -0.00060464    0.01379291    0.00494109
     atom    5 type  2   force =     0.00542322   -0.03730031   -0.25561938
     atom    6 type  2   force =    -0.00318141    0.01277057    0.26130300
     atom    7 type  1   force =    -0.02702043   -0.01229921   -0.02264386
     atom    8 type  2   force =    -0.02181913   -0.00238592   -0.26362118
     atom    9 type  2   force =    -0.00227138   -0.00174703    0.28115370
     atom   10 type  1   force =     0.00010095   -0.00369501   -0.00082014
     atom   11 type  2   force =    -0.02888281   -0.39317576   -0.07979298
     atom   12 type  2   force =    -0.01025262   -0.02378363    0.26567941
     atom   13 type  1   force =    -0.00204384    0.02063002   -0.00492371
     atom   14 type  2   force =     0.01332510   -0.00721530   -0.26389968
     atom   15 type  2   force =    -0.01360124   -0.00573094    0.26098791
     atom   16 type  1   force =     0.00363010    0.02931625   -0.02883690
     atom   17 type  2   force =     0.00493950   -0.02921858   -0.25389784
     atom   18 type  2   force =    -0.00243363   -0.00446497    0.27488510
     atom   19 type  1   force =     0.01633880   -0.00552789   -0.01497254
     atom   20 type  2   force =     0.00185948   -0.02044057    0.26736690
     atom   21 type  1   force =     0.00916332    0.01825785    0.00804349
     atom   22 type  2   force =    -0.00945363    0.00907385   -0.26665426
     atom   23 type  2   force =     0.01228208   -0.00713890    0.26787077
     atom   24 type  1   force =     0.01025386    0.01358864   -0.01127676
     atom   25 type  2   force =     0.00906034    0.00528595   -0.26079227
     atom   26 type  2   force =    -0.00294958   -0.01327739    0.26225278
     atom   27 type  1   force =    -0.00225751    0.01183194    0.01051585
     atom   28 type  2   force =    -0.00990606   -0.02181557   -0.27436537
     atom   29 type  2   force =     0.00752126    0.00288610    0.26232374
     atom   30 type  1   force =     0.00175168   -0.00212237    0.01562675
     atom   31 type  2   force =    -0.01028120    0.00013186   -0.25187458
     atom   32 type  2   force =    -0.00306967   -0.00729695    0.27447830
     atom   33 type  1   force =    -0.00244584    0.01075866    0.00621600
     atom   34 type  2   force =     0.00194156   -0.03589011   -0.27652206
     atom   35 type  2   force =    -0.01027498   -0.00398704    0.26896995
     atom   36 type  3   force =     0.06165294    0.82680466   -0.84232330
     The ionic contribution  to forces
     atom    1 type  1   force =     0.44326181    0.24942660    4.55748055
     atom    2 type  2   force =    -0.43215587    0.78771408   39.05623299
     atom    3 type  2   force =    -0.08492815    0.13547613  -36.63356791
     atom    4 type  1   force =     0.89271890   -0.78565870   -1.27103511
     atom    5 type  2   force =    -0.90211239    0.38118406   38.29524217
     atom    6 type  2   force =     0.36194603   -0.71337846  -38.67880836
     atom    7 type  1   force =    -2.20451652   -2.92896937   -4.15812203
     atom    8 type  2   force =     1.77676344   -1.49108142   35.49519547
     atom    9 type  2   force =     0.55813028   -0.18366890  -38.96962982
     atom   10 type  1   force =    -0.14360564    1.17763752    3.62797183
     atom   11 type  2   force =    -0.04496613    2.94992847   36.38513404
     atom   12 type  2   force =     0.48832627    0.98124509  -38.87498811
     atom   13 type  1   force =     0.21146589    1.01448028    1.89099077
     atom   14 type  2   force =    -0.13323310    0.42724198   38.25485967
     atom   15 type  2   force =     0.09780745    0.06128553  -37.37214035
     atom   16 type  1   force =    -0.70284874    2.44066906   -1.66862643
     atom   17 type  2   force =     0.48668365    1.01725466   37.65501543
     atom   18 type  2   force =    -0.24633619   -0.78685877  -39.11719276
     atom   19 type  1   force =     1.20959117   -2.48870643   -1.80815866
     atom   20 type  2   force =     0.04759662   -0.35286182  -39.50558291
     atom   21 type  1   force =    -0.74845820    1.74854211   -1.16057795
     atom   22 type  2   force =    -0.62050961   -0.94866234   37.85876689
     atom   23 type  2   force =    -0.25323526    0.83364606  -39.01408363
     atom   24 type  1   force =    -0.33481369    1.16364646    4.93694765
     atom   25 type  2   force =     0.61887746    0.46828409   39.09892805
     atom   26 type  2   force =    -0.30294327    0.13725235  -37.80774199
     atom   27 type  1   force =    -0.09505032   -0.19155443   -3.45067345
     atom   28 type  2   force =     0.29777221    0.61454241   37.97314074
     atom   29 type  2   force =    -0.19274170   -0.56061690  -37.79566460
     atom   30 type  1   force =     0.76932805   -0.93448759   -2.01738275
     atom   31 type  2   force =     1.02489507   -0.29205595   36.94767332
     atom   32 type  2   force =    -0.51602040   -0.08289457  -39.29055353
     atom   33 type  1   force =     0.66751955   -0.22722088    0.87059724
     atom   34 type  2   force =     0.90190036   -0.90251692   38.98563498
     atom   35 type  2   force =    -0.16524527    0.62809678  -38.49160282
     atom   36 type  3   force =    -2.73086375   -3.34636027   45.19632137
     The local contribution  to forces
     atom    1 type  1   force =    -0.42552647   -0.32342484   -4.54521325
     atom    2 type  2   force =     0.42764153   -0.77152369  -38.80396242
     atom    3 type  2   force =     0.08608112   -0.12293986   36.37967779
     atom    4 type  1   force =    -0.87993241    0.77682944    1.26079138
     atom    5 type  2   force =     0.89497104   -0.35252605  -38.06468655
     atom    6 type  2   force =    -0.35791238    0.71141214   38.43773852
     atom    7 type  1   force =     2.24343129    2.90560686    4.21056926
     atom    8 type  2   force =    -1.72265544    1.47897268  -35.25876902
     atom    9 type  2   force =    -0.54735325    0.18933471   38.71950991
     atom   10 type  1   force =     0.14495436   -1.17732950   -3.65086007
     atom   11 type  2   force =     0.07352354   -2.61051187  -36.24967317
     atom   12 type  2   force =    -0.48270659   -0.95825039   38.63428671
     atom   13 type  1   force =    -0.20446798   -1.03041463   -1.89259593
     atom   14 type  2   force =     0.12895742   -0.41757916  -37.99694934
     atom   15 type  2   force =    -0.09480064   -0.05105257   37.12112598
     atom   16 type  1   force =     0.68929689   -2.45995554    1.69530671
     atom   17 type  2   force =    -0.48571894   -0.98899449  -37.41964035
     atom   18 type  2   force =     0.24630507    0.78512662   38.87607706
     atom   19 type  1   force =    -1.23078681    2.48276612    1.80641178
     atom   20 type  2   force =    -0.04449584    0.36715760   39.26093890
     atom   21 type  1   force =     0.71295367   -1.77186051    1.14342335
     atom   22 type  2   force =     0.62346178    0.94023778  -37.61578115
     atom   23 type  2   force =     0.24690303   -0.82403855   38.77741516
     atom   24 type  1   force =     0.31431118   -1.18070670   -4.94664661
     atom   25 type  2   force =    -0.61118887   -0.45538439  -38.85155599
     atom   26 type  2   force =     0.29476950   -0.12529113   37.56277935
     atom   27 type  1   force =     0.09665719    0.18090259    3.44604382
     atom   28 type  2   force =    -0.28779882   -0.59413694  -37.72375956
     atom   29 type  2   force =     0.18737014    0.55770427   37.55138973
     atom   30 type  1   force =    -0.76410519    0.94254868    1.99256766
     atom   31 type  2   force =    -1.01403596    0.29251259  -36.69919704
     atom   32 type  2   force =     0.51032668    0.09644202   39.04689455
     atom   33 type  1   force =    -0.65043393    0.21249784   -0.88521088
     atom   34 type  2   force =    -0.89876654    0.89606838  -38.74051796
     atom   35 type  2   force =     0.16259856   -0.61720510   38.25656342
     atom   36 type  3   force =     2.64681474    2.61289490  -44.43252331
     The core correction contribution to forces
     atom    1 type  1   force =     0.00000000    0.00000000    0.00000000
     atom    2 type  2   force =     0.00027278   -0.00015845    0.02085682
     atom    3 type  2   force =     0.00065605    0.00010700   -0.02089608
     atom    4 type  1   force =     0.00000000    0.00000000    0.00000000
     atom    5 type  2   force =    -0.00059088    0.00209627    0.02061027
     atom    6 type  2   force =     0.00036857   -0.00114044   -0.02077607
     atom    7 type  1   force =     0.00000000    0.00000000    0.00000000
     atom    8 type  2   force =     0.00008843    0.00076441    0.02165634
     atom    9 type  2   force =     0.00039665    0.00011217   -0.02121331
     atom   10 type  1   force =     0.00000000    0.00000000    0.00000000
     atom   11 type  2   force =     0.00152604    0.02028693    0.01095678
     atom   12 type  2   force =     0.00103401    0.00174572   -0.02100952
     atom   13 type  1   force =     0.00000000    0.00000000    0.00000000
     atom   14 type  2   force =    -0.00073573   -0.00001827    0.02070984
     atom   15 type  2   force =     0.00069917    0.00039205   -0.02059224
     atom   16 type  1   force =     0.00000000    0.00000000    0.00000000
     atom   17 type  2   force =    -0.00012050    0.00159037    0.02048104
     atom   18 type  2   force =    -0.00001320   -0.00045718   -0.02109677
     atom   19 type  1   force =     0.00000000    0.00000000    0.00000000
     atom   20 type  2   force =     0.00000640    0.00077882   -0.02127289
     atom   21 type  1   force =     0.00000000    0.00000000    0.00000000
     atom   22 type  2   force =     0.00030771   -0.00084954    0.02110637
     atom   23 type  2   force =    -0.00082375    0.00088103   -0.02084593
     atom   24 type  1   force =     0.00000000    0.00000000    0.00000000
     atom   25 type  2   force =    -0.00007699   -0.00043792    0.02075187
     atom   26 type  2   force =    -0.00013680    0.00070511   -0.02082063
     atom   27 type  1   force =     0.00000000    0.00000000    0.00000000
     atom   28 type  2   force =     0.00055629    0.00170710    0.02097751
     atom   29 type  2   force =    -0.00061333   -0.00065608   -0.02051609
     atom   30 type  1   force =     0.00000000    0.00000000    0.00000000
     atom   31 type  2   force =     0.00065794    0.00009257    0.02050999
     atom   32 type  2   force =    -0.00011979    0.00045734   -0.02104675
     atom   33 type  1   force =     0.00000000    0.00000000    0.00000000
     atom   34 type  2   force =     0.00031431    0.00109337    0.02135480
     atom   35 type  2   force =     0.00033494    0.00063824   -0.02099110
     atom   36 type  3   force =    -0.00026958   -0.00935929    0.00924856
     The Hubbard contrib.    to forces
     atom    1 type  1   force =     0.00000000    0.00000000    0.00000000
     atom    2 type  2   force =     0.00000000    0.00000000    0.00000000
     atom    3 type  2   force =     0.00000000    0.00000000    0.00000000
     atom    4 type  1   force =     0.00000000    0.00000000    0.00000000
     atom    5 type  2   force =     0.00000000    0.00000000    0.00000000
     atom    6 type  2   force =     0.00000000    0.00000000    0.00000000
     atom    7 type  1   force =     0.00000000    0.00000000    0.00000000
     atom    8 type  2   force =     0.00000000    0.00000000    0.00000000
     atom    9 type  2   force =     0.00000000    0.00000000    0.00000000
     atom   10 type  1   force =     0.00000000    0.00000000    0.00000000
     atom   11 type  2   force =     0.00000000    0.00000000    0.00000000
     atom   12 type  2   force =     0.00000000    0.00000000    0.00000000
     atom   13 type  1   force =     0.00000000    0.00000000    0.00000000
     atom   14 type  2   force =     0.00000000    0.00000000    0.00000000
     atom   15 type  2   force =     0.00000000    0.00000000    0.00000000
     atom   16 type  1   force =     0.00000000    0.00000000    0.00000000
     atom   17 type  2   force =     0.00000000    0.00000000    0.00000000
     atom   18 type  2   force =     0.00000000    0.00000000    0.00000000
     atom   19 type  1   force =     0.00000000    0.00000000    0.00000000
     atom   20 type  2   force =     0.00000000    0.00000000    0.00000000
     atom   21 type  1   force =     0.00000000    0.00000000    0.00000000
     atom   22 type  2   force =     0.00000000    0.00000000    0.00000000
     atom   23 type  2   force =     0.00000000    0.00000000    0.00000000
     atom   24 type  1   force =     0.00000000    0.00000000    0.00000000
     atom   25 type  2   force =     0.00000000    0.00000000    0.00000000
     atom   26 type  2   force =     0.00000000    0.00000000    0.00000000
     atom   27 type  1   force =     0.00000000    0.00000000    0.00000000
     atom   28 type  2   force =     0.00000000    0.00000000    0.00000000
     atom   29 type  2   force =     0.00000000    0.00000000    0.00000000
     atom   30 type  1   force =     0.00000000    0.00000000    0.00000000
     atom   31 type  2   force =     0.00000000    0.00000000    0.00000000
     atom   32 type  2   force =     0.00000000    0.00000000    0.00000000
     atom   33 type  1   force =     0.00000000    0.00000000    0.00000000
     atom   34 type  2   force =     0.00000000    0.00000000    0.00000000
     atom   35 type  2   force =     0.00000000    0.00000000    0.00000000
     atom   36 type  3   force =     0.00000000    0.00000000    0.00000000
     The SCF correction term to forces
     atom    1 type  1   force =    -0.00007180    0.00002985    0.00045841
     atom    2 type  2   force =     0.00000834    0.00003343    0.00015954
     atom    3 type  2   force =    -0.00000094    0.00002667    0.00026740
     atom    4 type  1   force =    -0.00003003    0.00002889    0.00052769
     atom    5 type  2   force =    -0.00003201    0.00001369    0.00010281
     atom    6 type  2   force =    -0.00005529    0.00001769    0.00030319
     atom    7 type  1   force =     0.00017578   -0.00007150    0.00036029
     atom    8 type  2   force =     0.00008055   -0.00006980    0.00006346
     atom    9 type  2   force =    -0.00000745   -0.00001248    0.00028989
     atom   10 type  1   force =     0.00011330    0.00002680    0.00043895
     atom   11 type  2   force =    -0.00000341    0.00013034    0.00007906
     atom   12 type  2   force =    -0.00000577   -0.00001980    0.00025657
     atom   13 type  1   force =     0.00003042    0.00007226    0.00046071
     atom   14 type  2   force =    -0.00001139    0.00003768    0.00014772
     atom   15 type  2   force =    -0.00000612    0.00003808    0.00027260
     atom   16 type  1   force =    -0.00004072   -0.00025592    0.00048701
     atom   17 type  2   force =     0.00002427    0.00002038    0.00011062
     atom   18 type  2   force =     0.00004266    0.00002782    0.00030217
     atom   19 type  1   force =    -0.00017237    0.00002333    0.00042871
     atom   20 type  2   force =    -0.00001500   -0.00004522    0.00025373
     atom   21 type  1   force =    -0.00013089    0.00005992    0.00042661
     atom   22 type  2   force =    -0.00002265    0.00000237    0.00013985
     atom   23 type  2   force =    -0.00000282   -0.00001660    0.00027135
     atom   24 type  1   force =     0.00001301    0.00003523    0.00048457
     atom   25 type  2   force =     0.00000166    0.00002983    0.00016927
     atom   26 type  2   force =     0.00001409    0.00002395    0.00026266
     atom   27 type  1   force =     0.00006861   -0.00000741    0.00051020
     atom   28 type  2   force =     0.00000990   -0.00000106    0.00017228
     atom   29 type  2   force =     0.00001032    0.00001033    0.00027376
     atom   30 type  1   force =    -0.00002293   -0.00006129    0.00047175
     atom   31 type  2   force =     0.00000795   -0.00002993    0.00014334
     atom   32 type  2   force =     0.00002403   -0.00000634    0.00027891
     atom   33 type  1   force =     0.00001295    0.00003296    0.00046178
     atom   34 type  2   force =     0.00000972    0.00001493    0.00014275
     atom   35 type  2   force =     0.00000932   -0.00001295    0.00027114
     atom   36 type  3   force =    -0.00003861   -0.00013957    0.00022998

     Total force =     0.177653     Total SCF correction =     0.001996

     BFGS Geometry Optimization
     Energy error            =      0.0E+00 Ry
     Gradient error          =      8.4E-02 Ry/Bohr

     number of scf cycles    =   1
     number of bfgs steps    =   0

     energy             new  =   -2246.2477521558 Ry

     new trust radius        =       0.1109451618 bohr
     new conv_thr            =       0.0000010000 Ry


ATOMIC_POSITIONS (angstrom)
Mo            6.5812178829        1.7730733892        2.8256895090
S             8.1692819347        0.8203859755        4.4351457621
S             8.1867719840        0.8162794473        1.2753861977
Mo            8.1015936341        4.4976995097        2.7153048799
S             6.4986710503        3.7189553422        4.3443716349
S             6.5539671719        3.5168614088        1.1211666489
Mo            6.4963695265        7.1995287050        2.6878596835
S             8.0989042886        6.3365689438        4.2395776316
S             8.0856252009        6.3068294300        1.0892264533
Mo            8.1614467467        9.9004029100        2.8311613835
S             6.4958017444        8.9252836729        4.4184169076
S             6.6160402851        9.0492076760        1.1421563811
Mo            3.4242979487        1.7494795620        2.7732733004
S             4.9795594779        0.8182472829        4.3584142874
S             5.0525947759        0.8488727222        1.2211968203
Mo            4.9744853698        4.5183507304        2.6320143069
S             3.4309157209        3.6719455194        4.2808176764
S             3.4366324862        3.5447227390        1.0652309324
Mo            3.4512010028        7.2102688027        2.6220694717
S             4.9858551048        6.3240694318        1.0381685839
Mo            4.9982560905        9.8989544559        2.7388186007
S             3.4676691431        8.9436471793        4.3243227593
S             3.4111408927        9.0667543775        1.1017055246
Mo            0.2906746268        1.7456917128        2.8386145333
S             1.8592861104        0.8021021164        4.4021920327
S             1.8548494855        0.8541158587        1.2076848717
Mo            1.8603839136        4.4962879537        2.6635954964
S             0.2725496992        3.6545560534        4.3355682941
S             0.2320502839        3.5268940954        1.1708704315
Mo            0.2748313884        7.2197569259        2.6970970775
S             1.9028970394        6.3131440272        4.2315883578
S             1.8575507603        6.3138907220        1.0498915724
Mo            1.8521011600        9.9380593653        2.7687600510
S             0.2987707468        9.0681802960        4.4086399220
S             0.2701163131        9.0475110074        1.1574047987
O             6.2924926881        7.3303003960        5.3129200430



     Writing config-only to output data dir ./MoS2-V-O.save/
     NEW-OLD atomic charge density approx. for the potential

     negative rho (up, down):  2.153E-04 0.000E+00

     total cpu time spent up to now is      124.0 secs

     Self-consistent Calculation

     iteration #  1     ecut=    80.00 Ry     beta= 0.70
     Davidson diagonalization with overlap
     ethr =  1.00E-06,  avg # of iterations = 11.0

     negative rho (up, down):  8.790E-05 0.000E+00

     total cpu time spent up to now is      141.9 secs

     total energy              =   -2246.27703473 Ry
     estimated scf accuracy    <       0.00751195 Ry

     iteration #  2     ecut=    80.00 Ry     beta= 0.70
     Davidson diagonalization with overlap
     ethr =  2.41E-06,  avg # of iterations =  5.0

     negative rho (up, down):  6.189E-05 0.000E+00

     total cpu time spent up to now is      156.4 secs

     total energy              =   -2246.27761536 Ry
     estimated scf accuracy    <       0.00384373 Ry

     iteration #  3     ecut=    80.00 Ry     beta= 0.70
     Davidson diagonalization with overlap
     ethr =  1.23E-06,  avg # of iterations =  5.0

     negative rho (up, down):  3.988E-05 0.000E+00

     total cpu time spent up to now is      173.4 secs

     total energy              =   -2246.27790620 Ry
     estimated scf accuracy    <       0.00038023 Ry

     iteration #  4     ecut=    80.00 Ry     beta= 0.70
     Davidson diagonalization with overlap
     ethr =  1.22E-07,  avg # of iterations =  4.0

     negative rho (up, down):  3.191E-05 0.000E+00

     total cpu time spent up to now is      185.9 secs

     total energy              =   -2246.27794084 Ry
     estimated scf accuracy    <       0.00013618 Ry

     iteration #  5     ecut=    80.00 Ry     beta= 0.70
     Davidson diagonalization with overlap
     ethr =  4.36E-08,  avg # of iterations =  2.0

     negative rho (up, down):  2.469E-05 0.000E+00

     total cpu time spent up to now is      197.6 secs

     total energy              =   -2246.27794982 Ry
     estimated scf accuracy    <       0.00002507 Ry

     iteration #  6     ecut=    80.00 Ry     beta= 0.70
     Davidson diagonalization with overlap
     ethr =  8.03E-09,  avg # of iterations =  6.0

     negative rho (up, down):  2.295E-05 0.000E+00

     total cpu time spent up to now is      210.0 secs

     total energy              =   -2246.27795623 Ry
     estimated scf accuracy    <       0.00000598 Ry

     iteration #  7     ecut=    80.00 Ry     beta= 0.70
     Davidson diagonalization with overlap
     ethr =  1.92E-09,  avg # of iterations =  2.0

     negative rho (up, down):  2.397E-05 0.000E+00

     total cpu time spent up to now is      222.5 secs

     total energy              =   -2246.27795779 Ry
     estimated scf accuracy    <       0.00000234 Ry

     iteration #  8     ecut=    80.00 Ry     beta= 0.70
     Davidson diagonalization with overlap
     ethr =  7.49E-10,  avg # of iterations =  3.0

     negative rho (up, down):  1.764E-04 0.000E+00

     total cpu time spent up to now is      225.8 secs

     End of self-consistent calculation

          k = 0.0000 0.0000 0.0000 (105382 PWs)   bands (ev):

   -63.0720 -62.9920 -62.9624 -62.9462 -62.9419 -62.9310 -62.9169 -62.9075
   -62.8964 -62.8843 -62.8398 -62.8206 -37.3748 -37.2930 -37.2786 -37.2440
   -37.2308 -37.2225 -37.2122 -37.2023 -37.1884 -37.1748 -37.1568 -37.1513
   -37.1414 -37.1281 -37.1240 -37.1199 -37.1103 -37.1038 -37.0950 -37.0901
   -37.0859 -37.0726 -37.0426 -37.0350 -37.0236 -37.0156 -37.0070 -36.9972
   -36.9833 -36.9741 -36.9602 -36.9399 -36.9348 -36.9036 -36.8647 -36.8046
   -19.8936 -16.0268 -15.2857 -15.2092 -15.0272 -14.9946 -14.8342 -14.6341
   -14.5557 -14.5315 -14.4903 -14.4606 -14.4315 -14.3715 -14.3525 -14.2856
   -14.2057 -14.1911 -14.1380 -14.1192 -13.9467 -13.9371 -13.9266 -13.9171
    -7.8211  -7.6385  -7.5368  -7.4568  -7.3797  -7.3189  -7.3029  -7.2606
    -7.0844  -6.9686  -6.8894  -6.8450  -6.7791  -6.7233  -6.6447  -6.5978
    -6.5731  -6.4889  -6.3630  -6.3418  -6.1076  -6.0697  -5.9922  -5.9190
    -5.8727  -5.8588  -5.8016  -5.7739  -5.7572  -5.7383  -5.6601  -5.6088
    -5.5945  -5.5200  -5.4823  -5.3515  -5.2771  -5.1957  -5.1564  -5.1087
    -5.0102  -5.0032  -4.9740  -4.8408  -4.7774  -4.6624  -4.4517  -4.4071
    -4.3254  -4.2956  -4.2598  -4.2001  -4.1195  -4.0584  -3.9085  -3.8396
    -3.8082  -3.7691  -3.6828  -3.6649  -3.6365  -3.6068  -3.5643  -3.5157
    -3.4934  -3.4785  -3.3777  -3.3337  -3.1975  -3.0426  -2.9664  -2.9430
    -2.8766  -2.8260  -2.7956  -2.7890  -2.7211  -2.6847  -2.6770  -2.3632
    -2.1913  -2.1282  -1.9880  -1.6157  -1.2987  -0.8250  -0.5342  -0.2732
    -0.2298  -0.1958  -0.0847  -0.0464   0.0640   0.0808   0.1370   0.1636
     0.2399   0.2662   0.3555   0.3975   0.4294   0.4784   0.4832   0.5330
     0.5817   0.6180   0.6522   0.6780   0.6831   0.7657   0.8194   0.8486
     0.9068   0.9613   1.0726

     the Fermi energy is    -1.4572 ev

!    total energy              =   -2246.27795919 Ry
     estimated scf accuracy    <       0.00000076 Ry
     smearing contrib. (-TS)   =      -0.00290476 Ry
     internal energy E=F+TS    =   -2246.27505443 Ry

     The total energy is F=E-TS. E is the sum of the following terms:
     one-electron contribution =  -18443.75132347 Ry
     hartree contribution      =    9209.89902426 Ry
     xc contribution           =    -391.86708376 Ry
     ewald contribution        =    7389.31812567 Ry
     one-center paw contrib.   =      -9.87379713 Ry

     convergence has been achieved in   8 iterations

     negative rho (up, down):  1.764E-04 0.000E+00

     Forces acting on atoms (cartesian axes, Ry/au):

     atom    1 type  1   force =     0.00303602   -0.01529033    0.00085121
     atom    2 type  2   force =    -0.00823095    0.01210332   -0.00170031
     atom    3 type  2   force =    -0.01054910    0.00517308   -0.00943364
     atom    4 type  1   force =     0.01196018   -0.00069479   -0.00143253
     atom    5 type  2   force =    -0.00073763   -0.00618597   -0.00721213
     atom    6 type  2   force =     0.00127883    0.00650896    0.00215784
     atom    7 type  1   force =     0.00777714   -0.02329735    0.02208927
     atom    8 type  2   force =     0.03598847   -0.01702359   -0.00910960
     atom    9 type  2   force =     0.00649595    0.00362161    0.00646050
     atom   10 type  1   force =     0.00290894   -0.00527184   -0.00664305
     atom   11 type  2   force =    -0.00567201   -0.03378480    0.06390076
     atom   12 type  2   force =    -0.00600701   -0.00539533    0.00906945
     atom   13 type  1   force =     0.00420845    0.00320777   -0.00221170
     atom   14 type  2   force =     0.00560560   -0.00014270    0.00888532
     atom   15 type  2   force =    -0.00755681    0.00299231   -0.00782307
     atom   16 type  1   force =    -0.00830962    0.00714757    0.00229863
     atom   17 type  2   force =     0.00445164    0.00125006    0.00237123
     atom   18 type  2   force =    -0.00198376   -0.00465350    0.00926387
     atom   19 type  1   force =    -0.00242813   -0.00848763   -0.00773136
     atom   20 type  2   force =     0.00789441   -0.00387597    0.00080999
     atom   21 type  1   force =    -0.01473040   -0.00785752    0.00043969
     atom   22 type  2   force =    -0.00643983   -0.00209164   -0.00391727
     atom   23 type  2   force =     0.00434384    0.00252177    0.00393682
     atom   24 type  1   force =    -0.00562709   -0.00187211   -0.00830991
     atom   25 type  2   force =     0.01147898    0.01403187    0.00057914
     atom   26 type  2   force =    -0.00748428   -0.00046673   -0.00382831
     atom   27 type  1   force =    -0.00041087    0.00006011    0.00694694
     atom   28 type  2   force =     0.00012123   -0.00164675   -0.00494914
     atom   29 type  2   force =     0.00209486    0.00079049   -0.00372688
     atom   30 type  1   force =     0.00709123    0.00421967   -0.00361360
     atom   31 type  2   force =     0.00209258   -0.00039694    0.01279539
     atom   32 type  2   force =    -0.00809731    0.00405584    0.00506176
     atom   33 type  1   force =     0.00638743   -0.00116676    0.00156874
     atom   34 type  2   force =     0.00446834   -0.03105283   -0.01344235
     atom   35 type  2   force =    -0.00931167    0.00702161    0.00667524
     atom   36 type  3   force =    -0.02610767    0.09594903   -0.07107694
     The non-local contrib.  to forces
     atom    1 type  1   force =    -0.00366058    0.04343136   -0.00864462
     atom    2 type  2   force =    -0.00597082   -0.00089507   -0.27099724
     atom    3 type  2   force =    -0.01155409   -0.00776057    0.26654328
     atom    4 type  1   force =     0.00109679    0.01460496    0.00438896
     atom    5 type  2   force =     0.00677077   -0.03725526   -0.25824279
     atom    6 type  2   force =    -0.00305415    0.00943146    0.26418367
     atom    7 type  1   force =    -0.02910840   -0.01537401   -0.02555073
     atom    8 type  2   force =     0.00571964   -0.01680904   -0.26480831
     atom    9 type  2   force =    -0.00408640   -0.00243141    0.27981524
     atom   10 type  1   force =     0.00149173   -0.00613085   -0.00126427
     atom   11 type  2   force =    -0.04111195   -0.45550870   -0.06966214
     atom   12 type  2   force =    -0.01129737   -0.02846814    0.27047348
     atom   13 type  1   force =    -0.00094884    0.02264265   -0.00507728
     atom   14 type  2   force =     0.01215903   -0.00792645   -0.26622536
     atom   15 type  2   force =    -0.01190508   -0.00841819    0.26190669
     atom   16 type  1   force =     0.00448149    0.03195113   -0.02948676
     atom   17 type  2   force =     0.00404119   -0.02848807   -0.25402426
     atom   18 type  2   force =    -0.00175415   -0.00260839    0.27243617
     atom   19 type  1   force =     0.01952826   -0.00358015   -0.01272819
     atom   20 type  2   force =     0.00258087   -0.01893923    0.26605898
     atom   21 type  1   force =     0.00771175    0.02106884    0.00733218
     atom   22 type  2   force =    -0.00934195    0.00590505   -0.26847379
     atom   23 type  2   force =     0.01131071   -0.00659664    0.26269496
     atom   24 type  1   force =     0.00808990    0.01508620   -0.01085665
     atom   25 type  2   force =     0.00536766    0.00206778   -0.26510019
     atom   26 type  2   force =    -0.00027691   -0.01277854    0.26172930
     atom   27 type  1   force =    -0.00229016    0.01273658    0.01001322
     atom   28 type  2   force =    -0.01111714   -0.02170928   -0.27588632
     atom   29 type  2   force =     0.00737600    0.00263796    0.26189147
     atom   30 type  1   force =     0.00168095   -0.00173573    0.01589052
     atom   31 type  2   force =    -0.01062980   -0.00008554   -0.25532668
     atom   32 type  2   force =    -0.00159121   -0.00866795    0.27141359
     atom   33 type  1   force =     0.00047148    0.01078659    0.00457215
     atom   34 type  2   force =     0.00146515   -0.02868406   -0.27924514
     atom   35 type  2   force =    -0.00773593   -0.00217398    0.26599233
     atom   36 type  3   force =     0.08596674    1.07591568   -0.96891700
     The ionic contribution  to forces
     atom    1 type  1   force =     0.19489760    0.47419304    4.62667206
     atom    2 type  2   force =    -0.29219454    0.63324565   39.08322562
     atom    3 type  2   force =    -0.10703133    0.10419333  -36.71729443
     atom    4 type  1   force =     0.67972308   -1.06236510   -1.35939786
     atom    5 type  2   force =    -0.89945676    0.36870461   38.18642287
     atom    6 type  2   force =     0.31948117   -0.77152281  -38.55731515
     atom    7 type  1   force =    -2.37285196   -2.51488151   -3.57181404
     atom    8 type  2   force =     1.75048051   -1.49693117   35.66456707
     atom    9 type  2   force =     0.48055701   -0.13535757  -38.99160238
     atom   10 type  1   force =    -0.36491796    1.19223827    3.37945555
     atom   11 type  2   force =     0.05619181    3.61959217   36.29758262
     atom   12 type  2   force =     0.40699077    0.85296343  -38.69870443
     atom   13 type  1   force =     0.23163395    0.94815394    1.83959285
     atom   14 type  2   force =    -0.14817303    0.40590977   38.28569665
     atom   15 type  2   force =     0.15756848    0.08043784  -37.39424072
     atom   16 type  1   force =    -0.49586968    2.15386183   -1.65220727
     atom   17 type  2   force =     0.50195366    0.96456934   37.69505069
     atom   18 type  2   force =    -0.23704722   -0.78065797  -39.07688404
     atom   19 type  1   force =     1.33829293   -2.38125245   -2.20246440
     atom   20 type  2   force =     0.13797604   -0.26557465  -39.54458884
     atom   21 type  1   force =    -0.20842625    1.68578325   -1.19615485
     atom   22 type  2   force =    -0.62354869   -0.96421938   37.87142360
     atom   23 type  2   force =    -0.23491572    0.79325303  -39.06447054
     atom   24 type  1   force =    -0.18133642    1.00812718    4.64550656
     atom   25 type  2   force =     0.48908080    0.43249800   39.07164064
     atom   26 type  2   force =    -0.27000834    0.14157168  -37.78767624
     atom   27 type  1   force =    -0.08801008   -0.29949066   -3.22278789
     atom   28 type  2   force =     0.29096149    0.49695408   37.97858472
     atom   29 type  2   force =    -0.16618888   -0.54507036  -37.83689025
     atom   30 type  1   force =     0.75464864   -0.89554032   -2.24199910
     atom   31 type  2   force =     1.05222751   -0.28209008   37.07924775
     atom   32 type  2   force =    -0.50996758   -0.14580099  -39.32852408
     atom   33 type  1   force =     0.41414419    0.04071766    0.91830255
     atom   34 type  2   force =     0.85687638   -0.68385534   38.91055253
     atom   35 type  2   force =    -0.13688485    0.65736650  -38.47026412
     atom   36 type  3   force =    -2.77685669   -3.82972425   45.38175627
     The local contribution  to forces
     atom    1 type  1   force =    -0.18820641   -0.53285029   -4.61797331
     atom    2 type  2   force =     0.28971833   -0.62008897  -38.83520677
     atom    3 type  2   force =     0.10752035   -0.09154812   36.46202063
     atom    4 type  1   force =    -0.66882565    1.04727697    1.35287717
     atom    5 type  2   force =     0.89254332   -0.33962314  -37.95642070
     atom    6 type  2   force =    -0.31552256    0.76965457   38.31593063
     atom    7 type  1   force =     2.40968652    2.50636816    3.61868956
     atom    8 type  2   force =    -1.71912785    1.49524794  -35.43116732
     atom    9 type  2   force =    -0.47035606    0.14119405   38.73939891
     atom   10 type  1   force =     0.36681419   -1.19129072   -3.38611585
     atom   11 type  2   force =    -0.02304391   -3.22264360  -36.17360666
     atom   12 type  2   force =    -0.40267160   -0.83166198   38.45814501
     atom   13 type  1   force =    -0.22648183   -0.96748741   -1.83755866
     atom   14 type  2   force =     0.14228311   -0.39801422  -38.03179929
     atom   15 type  2   force =    -0.15394105   -0.06953140   37.14499818
     atom   16 type  1   force =     0.48286493   -2.17839573    1.68333289
     atom   17 type  2   force =    -0.50145459   -0.93628971  -37.45966904
     atom   18 type  2   force =     0.23692066    0.77917716   38.83472383
     atom   19 type  1   force =    -1.36028086    2.37605262    2.20675645
     atom   20 type  2   force =    -0.13284876    0.27973841   39.30057357
     atom   21 type  1   force =     0.18534378   -1.71452621    1.18802914
     atom   22 type  2   force =     0.62607370    0.95695531  -37.62857598
     atom   23 type  2   force =     0.22874084   -0.78495152   38.82639253
     atom   24 type  1   force =     0.16761476   -1.02497159   -4.64386823
     atom   25 type  2   force =    -0.48292211   -0.42019875  -38.82723519
     atom   26 type  2   force =     0.26305311   -0.12991209   37.54277162
     atom   27 type  1   force =     0.09006857    0.28692351    3.21900145
     atom   28 type  2   force =    -0.28030826   -0.47845838  -37.72915433
     atom   29 type  2   force =     0.16148096    0.54382214   37.59168766
     atom   30 type  1   force =    -0.74922730    0.90139185    2.22175130
     atom   31 type  2   force =    -1.04014645    0.28160987  -36.83230897
     atom   32 type  2   force =     0.50372297    0.15810749   39.08318411
     atom   33 type  1   force =    -0.40810324   -0.05278555   -0.92215591
     atom   34 type  2   force =    -0.85409826    0.68051515  -38.66666982
     atom   35 type  2   force =     0.13503613   -0.64879496   38.23178681
     atom   36 type  3   force =     2.66531240    2.86177073  -44.49499087
     The core correction contribution to forces
     atom    1 type  1   force =     0.00000000    0.00000000    0.00000000
     atom    2 type  2   force =     0.00020636   -0.00000808    0.02082810
     atom    3 type  2   force =     0.00053107    0.00032733   -0.02084928
     atom    4 type  1   force =     0.00000000    0.00000000    0.00000000
     atom    5 type  2   force =    -0.00065243    0.00205936    0.02059618
     atom    6 type  2   force =     0.00032707   -0.00102213   -0.02079056
     atom    7 type  1   force =     0.00000000    0.00000000    0.00000000
     atom    8 type  2   force =    -0.00106294    0.00141863    0.02177873
     atom    9 type  2   force =     0.00046048    0.00018989   -0.02121856
     atom   10 type  1   force =     0.00000000    0.00000000    0.00000000
     atom   11 type  2   force =     0.00226832    0.02460919    0.00937091
     atom   12 type  2   force =     0.00100196    0.00181788   -0.02113766
     atom   13 type  1   force =     0.00000000    0.00000000    0.00000000
     atom   14 type  2   force =    -0.00072776    0.00001229    0.02076345
     atom   15 type  2   force =     0.00065977    0.00054318   -0.02062494
     atom   16 type  1   force =     0.00000000    0.00000000    0.00000000
     atom   17 type  2   force =    -0.00007481    0.00152568    0.02048278
     atom   18 type  2   force =    -0.00006789   -0.00053237   -0.02104153
     atom   19 type  1   force =     0.00000000    0.00000000    0.00000000
     atom   20 type  2   force =     0.00005252    0.00078720   -0.02123797
     atom   21 type  1   force =     0.00000000    0.00000000    0.00000000
     atom   22 type  2   force =     0.00029006   -0.00078757    0.02120419
     atom   23 type  2   force =    -0.00080372    0.00079352   -0.02073394
     atom   24 type  1   force =     0.00000000    0.00000000    0.00000000
     atom   25 type  2   force =     0.00003264   -0.00028275    0.02084635
     atom   26 type  2   force =    -0.00022851    0.00067955   -0.02078268
     atom   27 type  1   force =     0.00000000    0.00000000    0.00000000
     atom   28 type  2   force =     0.00061829    0.00162212    0.02105283
     atom   29 type  2   force =    -0.00056455   -0.00060706   -0.02051936
     atom   30 type  1   force =     0.00000000    0.00000000    0.00000000
     atom   31 type  2   force =     0.00068419    0.00014763    0.02060225
     atom   32 type  2   force =    -0.00021995    0.00044729   -0.02097883
     atom   33 type  1   force =     0.00000000    0.00000000    0.00000000
     atom   34 type  2   force =     0.00031608    0.00083833    0.02143650
     atom   35 type  2   force =     0.00026104    0.00056430   -0.02092423
     atom   36 type  3   force =    -0.00055999   -0.01221648    0.01070893
     The Hubbard contrib.    to forces
     atom    1 type  1   force =     0.00000000    0.00000000    0.00000000
     atom    2 type  2   force =     0.00000000    0.00000000    0.00000000
     atom    3 type  2   force =     0.00000000    0.00000000    0.00000000
     atom    4 type  1   force =     0.00000000    0.00000000    0.00000000
     atom    5 type  2   force =     0.00000000    0.00000000    0.00000000
     atom    6 type  2   force =     0.00000000    0.00000000    0.00000000
     atom    7 type  1   force =     0.00000000    0.00000000    0.00000000
     atom    8 type  2   force =     0.00000000    0.00000000    0.00000000
     atom    9 type  2   force =     0.00000000    0.00000000    0.00000000
     atom   10 type  1   force =     0.00000000    0.00000000    0.00000000
     atom   11 type  2   force =     0.00000000    0.00000000    0.00000000
     atom   12 type  2   force =     0.00000000    0.00000000    0.00000000
     atom   13 type  1   force =     0.00000000    0.00000000    0.00000000
     atom   14 type  2   force =     0.00000000    0.00000000    0.00000000
     atom   15 type  2   force =     0.00000000    0.00000000    0.00000000
     atom   16 type  1   force =     0.00000000    0.00000000    0.00000000
     atom   17 type  2   force =     0.00000000    0.00000000    0.00000000
     atom   18 type  2   force =     0.00000000    0.00000000    0.00000000
     atom   19 type  1   force =     0.00000000    0.00000000    0.00000000
     atom   20 type  2   force =     0.00000000    0.00000000    0.00000000
     atom   21 type  1   force =     0.00000000    0.00000000    0.00000000
     atom   22 type  2   force =     0.00000000    0.00000000    0.00000000
     atom   23 type  2   force =     0.00000000    0.00000000    0.00000000
     atom   24 type  1   force =     0.00000000    0.00000000    0.00000000
     atom   25 type  2   force =     0.00000000    0.00000000    0.00000000
     atom   26 type  2   force =     0.00000000    0.00000000    0.00000000
     atom   27 type  1   force =     0.00000000    0.00000000    0.00000000
     atom   28 type  2   force =     0.00000000    0.00000000    0.00000000
     atom   29 type  2   force =     0.00000000    0.00000000    0.00000000
     atom   30 type  1   force =     0.00000000    0.00000000    0.00000000
     atom   31 type  2   force =     0.00000000    0.00000000    0.00000000
     atom   32 type  2   force =     0.00000000    0.00000000    0.00000000
     atom   33 type  1   force =     0.00000000    0.00000000    0.00000000
     atom   34 type  2   force =     0.00000000    0.00000000    0.00000000
     atom   35 type  2   force =     0.00000000    0.00000000    0.00000000
     atom   36 type  3   force =     0.00000000    0.00000000    0.00000000
     The SCF correction term to forces
     atom    1 type  1   force =     0.00000600   -0.00006364    0.00077936
     atom    2 type  2   force =     0.00001030   -0.00014940    0.00043224
     atom    3 type  2   force =    -0.00001451   -0.00003807    0.00012844
     atom    4 type  1   force =    -0.00003345   -0.00021081    0.00068148
     atom    5 type  2   force =     0.00005806   -0.00007073    0.00041458
     atom    6 type  2   force =     0.00004790   -0.00003131    0.00013152
     atom    7 type  1   force =     0.00005157    0.00059083    0.00074676
     atom    8 type  2   force =    -0.00002030    0.00005088    0.00050251
     atom    9 type  2   force =    -0.00007851    0.00002747    0.00004956
     atom   10 type  1   force =    -0.00047843   -0.00008773    0.00126378
     atom   11 type  2   force =     0.00002431    0.00016695    0.00019831
     atom   12 type  2   force =    -0.00003018   -0.00004570    0.00027532
     atom   13 type  1   force =     0.00000576   -0.00010059    0.00081367
     atom   14 type  2   force =     0.00006484   -0.00012327    0.00043215
     atom   15 type  2   force =     0.00006168   -0.00003830    0.00012000
     atom   16 type  1   force =     0.00021422   -0.00026884    0.00064204
     atom   17 type  2   force =    -0.00001322   -0.00006636    0.00051334
     atom   18 type  2   force =    -0.00003458   -0.00003111    0.00001172
     atom   19 type  1   force =     0.00003213    0.00029317    0.00068706
     atom   20 type  2   force =     0.00013433    0.00011311   -0.00001348
     atom   21 type  1   force =     0.00064091   -0.00018258    0.00121550
     atom   22 type  2   force =     0.00008764    0.00005578    0.00048698
     atom   23 type  2   force =     0.00001231    0.00002418    0.00003608
     atom   24 type  1   force =     0.00000525   -0.00011308    0.00089068
     atom   25 type  2   force =    -0.00007942   -0.00005158    0.00040980
     atom   26 type  2   force =    -0.00002305   -0.00002651    0.00011197
     atom   27 type  1   force =    -0.00017861   -0.00010851    0.00070243
     atom   28 type  2   force =    -0.00003257   -0.00005448    0.00043623
     atom   29 type  2   force =    -0.00000809    0.00000862    0.00008588
     atom   30 type  1   force =    -0.00001047    0.00010469    0.00072596
     atom   31 type  2   force =    -0.00004228    0.00002199    0.00056333
     atom   32 type  2   force =    -0.00004095   -0.00002918   -0.00005075
     atom   33 type  1   force =    -0.00012441    0.00011535    0.00083223
     atom   34 type  2   force =    -0.00009041    0.00013390    0.00046585
     atom   35 type  2   force =     0.00001253    0.00006055    0.00006672
     atom   36 type  3   force =     0.00003046    0.00020416    0.00034800

     Total force =     0.166525     Total SCF correction =     0.003592
     Energy error            =      3.0E-02 Ry
     Gradient error          =      9.6E-02 Ry/Bohr

     number of scf cycles    =   2
     number of bfgs steps    =   1

     energy             old  =   -2246.2477521557 Ry
     energy             new  =   -2246.2779591867 Ry

     CASE: energy            _new < energy            _old


     WARNING: bfgs curvature condition failed, Theta= 0.890
     new trust radius        =       0.1220396779 bohr
     new conv_thr            =       0.0000000959 Ry


ATOMIC_POSITIONS (angstrom)
Mo            6.5852650499        1.7615289579        2.8269069695
S             8.1633034130        0.8290647889        4.4349145997
S             8.1805430714        0.8202101532        1.2713536215
Mo            8.1082365815        4.4987273181        2.7136921482
S             6.4978668963        3.7154586276        4.3411106412
S             6.5546445305        3.5212377912        1.1217680857
Mo            6.5017231035        7.1835977864        2.7020491699
S             8.1178737792        6.3279815569        4.2354621151
S             8.0898025111        6.3089252034        1.0937004354
Mo            8.1627172497        9.8979703364        2.8233805959
S             6.4943781331        8.9067640681        4.4543547817
S             6.6133240110        9.0478034731        1.1459621526
Mo            3.4268113557        1.7516356683        2.7711034119
S             4.9833196892        0.8188161627        4.3648040369
S             5.0478465260        0.8510041937        1.2162634234
Mo            4.9694935671        4.5229437678        2.6323038000
S             3.4337071638        3.6724868750        4.2820564688
S             3.4354268819        3.5416676183        1.0712659078
Mo            3.4492172085        7.2048553246        2.6156894482
S             4.9894786619        6.3215516363        1.0388431303
Mo            4.9872213610        9.8953305220        2.7368041925
S             3.4641737671        8.9429638041        4.3225397020
S             3.4137298002        9.0683464561        1.1055421626
Mo            0.2864289301        1.7442716966        2.8310171349
S             1.8669046144        0.8107689738        4.4042344277
S             1.8497897192        0.8538289277        1.2057190899
Mo            1.8601151790        4.4965973504        2.6672958830
S             0.2727438976        3.6541301359        4.3331219314
S             0.2330697582        3.5269674686        1.1692018991
Mo            0.2787073175        7.2224952260        2.6938449666
S             1.9038406956        6.3131853948        4.2397563972
S             1.8528970314        6.3167837137        1.0539265815
Mo            1.8576736830        9.9367305578        2.7672738720
S             0.3014659155        9.0485329626        4.4021104646
S             0.2641719022        9.0515092653        1.1627128828
O             6.2789407225        7.3802059804        5.2742362881



     Writing config-only to output data dir ./MoS2-V-O.save/
     NEW-OLD atomic charge density approx. for the potential

     negative rho (up, down):  2.192E-04 0.000E+00

     total cpu time spent up to now is      232.7 secs

     Self-consistent Calculation

     iteration #  1     ecut=    80.00 Ry     beta= 0.70
     Davidson diagonalization with overlap
     ethr =  1.00E-06,  avg # of iterations = 14.0

     negative rho (up, down):  9.409E-05 0.000E+00

     total cpu time spent up to now is      246.2 secs

     total energy              =   -2246.30372015 Ry
     estimated scf accuracy    <       0.00656580 Ry

     iteration #  2     ecut=    80.00 Ry     beta= 0.70
     Davidson diagonalization with overlap
     ethr =  2.10E-06,  avg # of iterations =  6.0

     negative rho (up, down):  7.023E-05 0.000E+00

     total cpu time spent up to now is      258.8 secs

     total energy              =   -2246.30473910 Ry
     estimated scf accuracy    <       0.00480405 Ry

     iteration #  3     ecut=    80.00 Ry     beta= 0.70
     Davidson diagonalization with overlap
     ethr =  1.54E-06,  avg # of iterations =  5.0

     negative rho (up, down):  3.705E-05 0.000E+00

     total cpu time spent up to now is      272.0 secs

     total energy              =   -2246.30504171 Ry
     estimated scf accuracy    <       0.00041965 Ry

     iteration #  4     ecut=    80.00 Ry     beta= 0.70
     Davidson diagonalization with overlap
     ethr =  1.35E-07,  avg # of iterations =  5.0

     negative rho (up, down):  2.944E-05 0.000E+00

     total cpu time spent up to now is      284.8 secs

     total energy              =   -2246.30507838 Ry
     estimated scf accuracy    <       0.00005444 Ry

     iteration #  5     ecut=    80.00 Ry     beta= 0.70
     Davidson diagonalization with overlap
     ethr =  1.74E-08,  avg # of iterations =  5.0

     negative rho (up, down):  2.269E-05 0.000E+00

     total cpu time spent up to now is      295.8 secs

     total energy              =   -2246.30508375 Ry
     estimated scf accuracy    <       0.00001650 Ry

     iteration #  6     ecut=    80.00 Ry     beta= 0.70
     Davidson diagonalization with overlap
     ethr =  5.29E-09,  avg # of iterations =  3.0

     negative rho (up, down):  2.159E-05 0.000E+00

     total cpu time spent up to now is      305.0 secs

     total energy              =   -2246.30508541 Ry
     estimated scf accuracy    <       0.00000776 Ry

     iteration #  7     ecut=    80.00 Ry     beta= 0.70
     Davidson diagonalization with overlap
     ethr =  2.49E-09,  avg # of iterations =  6.0

     negative rho (up, down):  2.674E-05 0.000E+00

     total cpu time spent up to now is      315.1 secs

     total energy              =   -2246.30508748 Ry
     estimated scf accuracy    <       0.00000092 Ry

     iteration #  8     ecut=    80.00 Ry     beta= 0.70
     Davidson diagonalization with overlap
     ethr =  2.96E-10,  avg # of iterations =  5.0

     negative rho (up, down):  3.886E-05 0.000E+00

     total cpu time spent up to now is      324.5 secs

     total energy              =   -2246.30508840 Ry
     estimated scf accuracy    <       0.00000047 Ry

     iteration #  9     ecut=    80.00 Ry     beta= 0.70
     Davidson diagonalization with overlap
     ethr =  1.51E-10,  avg # of iterations =  3.0

     negative rho (up, down):  7.624E-05 0.000E+00

     total cpu time spent up to now is      336.8 secs

     total energy              =   -2246.30508886 Ry
     estimated scf accuracy    <       0.00000018 Ry

     iteration # 10     ecut=    80.00 Ry     beta= 0.70
     Davidson diagonalization with overlap
     ethr =  5.68E-11,  avg # of iterations =  5.0

     negative rho (up, down):  1.794E-04 0.000E+00

     total cpu time spent up to now is      340.2 secs

     End of self-consistent calculation

          k = 0.0000 0.0000 0.0000 (105382 PWs)   bands (ev):

   -63.0793 -62.9715 -62.9434 -62.9248 -62.9196 -62.9087 -62.9048 -62.8898
   -62.8764 -62.8610 -62.8149 -62.7928 -37.3674 -37.2931 -37.2637 -37.2263
   -37.2114 -37.2008 -37.1909 -37.1814 -37.1751 -37.1529 -37.1369 -37.1311
   -37.1217 -37.1111 -37.1065 -37.1017 -37.0888 -37.0825 -37.0778 -37.0743
   -37.0666 -37.0530 -37.0236 -37.0173 -37.0044 -36.9945 -36.9856 -36.9741
   -36.9602 -36.9485 -36.9362 -36.9219 -36.9131 -36.8833 -36.8448 -36.7807
   -20.6064 -16.0060 -15.2577 -15.1988 -15.0103 -14.9657 -14.8080 -14.5976
   -14.5294 -14.5112 -14.4805 -14.4438 -14.4097 -14.3573 -14.2851 -14.2589
   -14.1866 -14.1789 -14.1026 -14.0762 -13.9350 -13.9164 -13.9143 -13.8741
    -7.8337  -7.6968  -7.5557  -7.4620  -7.3638  -7.3026  -7.2858  -7.2644
    -7.1048  -6.9742  -6.8815  -6.8428  -6.7654  -6.7204  -6.6785  -6.5944
    -6.5788  -6.4745  -6.3620  -6.3434  -6.1271  -6.0675  -5.9802  -5.8995
    -5.8579  -5.8433  -5.7744  -5.7519  -5.7339  -5.7242  -5.6550  -5.5946
    -5.5834  -5.4919  -5.4649  -5.3442  -5.2698  -5.1811  -5.1323  -5.0949
    -5.0041  -4.9932  -4.9670  -4.8744  -4.7488  -4.6576  -4.4700  -4.3939
    -4.3126  -4.2893  -4.2521  -4.1862  -4.1134  -4.0696  -3.8988  -3.8146
    -3.7926  -3.7466  -3.6755  -3.6616  -3.6251  -3.5842  -3.5512  -3.4968
    -3.4825  -3.4575  -3.3563  -3.3119  -3.1823  -3.0629  -2.9422  -2.9132
    -2.8590  -2.8173  -2.7775  -2.7756  -2.7055  -2.6747  -2.6508  -2.3425
    -2.2284  -2.1129  -1.9909  -1.6224  -1.2036  -0.7993  -0.4699  -0.2457
    -0.2175  -0.1734  -0.0653  -0.0156   0.0789   0.0936   0.1532   0.1896
     0.2606   0.2905   0.3764   0.4182   0.4413   0.5013   0.5111   0.5582
     0.5992   0.6271   0.6673   0.6913   0.7025   0.7907   0.8395   0.8757
     0.9172   0.9716   1.1039

     the Fermi energy is    -1.4130 ev

!    total energy              =   -2246.30508892 Ry
     estimated scf accuracy    <       0.00000006 Ry
     smearing contrib. (-TS)   =      -0.00105579 Ry
     internal energy E=F+TS    =   -2246.30403313 Ry

     The total energy is F=E-TS. E is the sum of the following terms:
     one-electron contribution =  -18448.98782396 Ry
     hartree contribution      =    9212.61590719 Ry
     xc contribution           =    -391.90989898 Ry
     ewald contribution        =    7391.84860751 Ry
     one-center paw contrib.   =      -9.87082490 Ry

     convergence has been achieved in  10 iterations

     negative rho (up, down):  1.794E-04 0.000E+00

     Forces acting on atoms (cartesian axes, Ry/au):

     atom    1 type  1   force =    -0.00368425   -0.00569387   -0.00191068
     atom    2 type  2   force =    -0.00401800    0.00540008   -0.00311227
     atom    3 type  2   force =    -0.00876872    0.00141146   -0.01128257
     atom    4 type  1   force =     0.01004192   -0.00582171   -0.00024957
     atom    5 type  2   force =     0.00040275   -0.00553526   -0.00866110
     atom    6 type  2   force =     0.00135973    0.00428683    0.00390726
     atom    7 type  1   force =     0.00429463   -0.01144524    0.01552025
     atom    8 type  2   force =     0.03653045   -0.01868126   -0.00822030
     atom    9 type  2   force =     0.00445409    0.00303417    0.00370073
     atom   10 type  1   force =     0.00290407   -0.00601348    0.00304005
     atom   11 type  2   force =    -0.00936823   -0.02081351    0.05369938
     atom   12 type  2   force =    -0.00721851   -0.00968696    0.01264099
     atom   13 type  1   force =     0.00329045    0.00176153   -0.00009968
     atom   14 type  2   force =     0.00351628   -0.00246159    0.00458948
     atom   15 type  2   force =    -0.00573771    0.00067478   -0.00533917
     atom   16 type  1   force =    -0.00602341    0.00457255    0.00461091
     atom   17 type  2   force =     0.00329844    0.00166811    0.00308923
     atom   18 type  2   force =    -0.00161143   -0.00281812    0.00639697
     atom   19 type  1   force =    -0.00017583   -0.00637476   -0.00161233
     atom   20 type  2   force =     0.00962165   -0.00236578    0.00064435
     atom   21 type  1   force =    -0.00487371   -0.00765353    0.00587028
     atom   22 type  2   force =    -0.00612663   -0.00364491   -0.00405620
     atom   23 type  2   force =     0.00274933    0.00151037   -0.00078996
     atom   24 type  1   force =    -0.00260011   -0.00052551   -0.00132636
     atom   25 type  2   force =     0.00736663    0.01092594   -0.00345617
     atom   26 type  2   force =    -0.00437190   -0.00040662   -0.00347185
     atom   27 type  1   force =    -0.00023134   -0.00076999    0.00635603
     atom   28 type  2   force =     0.00010924   -0.00330614   -0.00484608
     atom   29 type  2   force =     0.00281045    0.00163746   -0.00458329
     atom   30 type  1   force =     0.00605553    0.00319402   -0.00028670
     atom   31 type  2   force =     0.00284566   -0.00128988    0.00918005
     atom   32 type  2   force =    -0.00676386    0.00169405    0.00105203
     atom   33 type  1   force =     0.00040121    0.00051286    0.00587132
     atom   34 type  2   force =     0.00353800   -0.02238832   -0.01366772
     atom   35 type  2   force =    -0.00585597    0.00680216    0.00183531
     atom   36 type  3   force =    -0.02816093    0.08861007   -0.06503264
     The non-local contrib.  to forces
     atom    1 type  1   force =    -0.00264799    0.04046667   -0.00879625
     atom    2 type  2   force =    -0.00294802   -0.00524840   -0.26932601
     atom    3 type  2   force =    -0.00915416   -0.01153710    0.26499407
     atom    4 type  1   force =     0.00293273    0.01399055    0.00388547
     atom    5 type  2   force =     0.00801590   -0.03645684   -0.25971675
     atom    6 type  2   force =    -0.00297285    0.00721488    0.26627361
     atom    7 type  1   force =    -0.03204443   -0.01643620   -0.02681856
     atom    8 type  2   force =     0.02600171   -0.02484821   -0.26327942
     atom    9 type  2   force =    -0.00536757   -0.00313550    0.27905860
     atom   10 type  1   force =     0.00141153   -0.00678735   -0.00102412
     atom   11 type  2   force =    -0.05245535   -0.49578450   -0.06977907
     atom   12 type  2   force =    -0.01168711   -0.03144436    0.27389866
     atom   13 type  1   force =     0.00006175    0.02433798   -0.00525379
     atom   14 type  2   force =     0.01124187   -0.00861325   -0.26761361
     atom   15 type  2   force =    -0.01048029   -0.01093823    0.26292100
     atom   16 type  1   force =     0.00521054    0.03398140   -0.02951021
     atom   17 type  2   force =     0.00282192   -0.02784918   -0.25351117
     atom   18 type  2   force =    -0.00120357   -0.00080643    0.27034631
     atom   19 type  1   force =     0.02175573   -0.00209717   -0.01123447
     atom   20 type  2   force =     0.00275476   -0.01726188    0.26526282
     atom   21 type  1   force =     0.00798069    0.02317314    0.00769187
     atom   22 type  2   force =    -0.00948840    0.00286741   -0.26807875
[...]
     atom   28 type  2   force =    -0.00641754   -0.01370924   -0.27511909
     atom   29 type  2   force =     0.00205543   -0.00743501    0.26242513
     atom   30 type  1   force =     0.01107645    0.00692707    0.01462235
     atom   31 type  2   force =    -0.00996946    0.00691274   -0.26642315
     atom   32 type  2   force =     0.00877350   -0.01209136    0.26704571
     atom   33 type  1   force =    -0.00468394    0.00739847    0.00448184
     atom   34 type  2   force =    -0.00529395   -0.00837537   -0.26938059
     atom   35 type  2   force =     0.00470185   -0.00835121    0.26339759
     atom   36 type  3   force =     0.57166287    1.55860074   -1.09210279
     The ionic contribution  to forces
     atom    1 type  1   force =     0.41338451    1.11656814    1.33005195
     atom    2 type  2   force =     0.33805181    0.93243229   38.70839601
     atom    3 type  2   force =     0.06897342   -0.28634795  -37.88542525
     atom    4 type  1   force =     0.28859875   -0.56108960   -1.51981097
     atom    5 type  2   force =    -0.67933236    0.57969386   37.92476125
     atom    6 type  2   force =     0.38897056   -0.44466742  -38.69870436
     atom    7 type  1   force =     0.17860217   -2.31898281   -0.19894808
     atom    8 type  2   force =     0.87442522   -0.98574224   37.12483975
     atom    9 type  2   force =     0.27222411    0.43538550  -38.13322154
     atom   10 type  1   force =     0.26279218   -0.12271630    3.46353805
     atom   11 type  2   force =     1.47546185    4.81026350   39.33273791
     atom   12 type  2   force =     0.57985733    0.31454169  -37.18516906
     atom   13 type  1   force =    -0.46283530    0.93265067   -0.25081954
     atom   14 type  2   force =    -0.38586295    1.03477672   38.58341368
     atom   15 type  2   force =     0.18102490   -0.20148252  -38.61852074
     atom   16 type  1   force =    -0.29219654    1.59981322   -1.45785615
     atom   17 type  2   force =     0.49779265    0.78645079   37.95020764
     atom   18 type  2   force =    -0.22171509   -0.38677276  -39.16018089
     atom   19 type  1   force =     0.49895300   -1.93456859   -1.32950581
     atom   20 type  2   force =     0.12988230    0.07103629  -39.92236300
     atom   21 type  1   force =    -0.15449334    0.74572646   -1.12021146
     atom   22 type  2   force =    -1.20077051   -0.85708954   37.76658551
     atom   23 type  2   force =    -0.23255495    0.37835650  -38.77979219
     atom   24 type  1   force =    -0.11760683    0.48891688    0.62951972
     atom   25 type  2   force =     0.11546753    0.39390592   38.49434572
     atom   26 type  2   force =    -0.17189009   -0.11142235  -38.36513392
     atom   27 type  1   force =    -0.39523697    0.00722108   -2.11785009
     atom   28 type  2   force =     0.27193507    0.28244128   37.91948609
     atom   29 type  2   force =    -0.05803018   -0.16331580  -38.50052267
     atom   30 type  1   force =     0.15797271   -0.70414922   -0.10133909
     atom   31 type  2   force =     0.84302547   -0.28547389   37.91632718
     atom   32 type  2   force =    -0.57807216    0.05654122  -38.87620429
     atom   33 type  1   force =    -0.15815676    0.03522151    0.74252328
     atom   34 type  2   force =     0.65483408   -0.26790884   38.76382761
     atom   35 type  2   force =    -0.34711996    0.20634119  -38.04591628
     atom   36 type  3   force =    -3.03635562   -5.57655486   43.61693404
     The local contribution  to forces
     atom    1 type  1   force =    -0.40839888   -1.14586286   -1.33058405
     atom    2 type  2   force =    -0.32913391   -0.91863382  -38.46515625
     atom    3 type  2   force =    -0.07160192    0.29633468   37.63488230
     atom    4 type  1   force =    -0.29990473    0.55591967    1.51670676
     atom    5 type  2   force =     0.67468582   -0.55702548  -37.69077194
     atom    6 type  2   force =    -0.38854421    0.45055174   38.45311567
     atom    7 type  1   force =    -0.17969960    2.33677372    0.28692166
     atom    8 type  2   force =    -0.91134902    0.99506901  -36.89118890
     atom    9 type  2   force =    -0.26706768   -0.41489855   37.87824184
     atom   10 type  1   force =    -0.25394461    0.13489986   -3.47148712
     atom   11 type  2   force =    -1.41579238   -4.35013955  -39.05208748
     atom   12 type  2   force =    -0.57073423   -0.30013666   36.93172603
     atom   13 type  1   force =     0.45972043   -0.96122185    0.25993351
     atom   14 type  2   force =     0.36673395   -1.02905333  -38.33888180
     atom   15 type  2   force =    -0.17211267    0.20770467   38.37585995
     atom   16 type  1   force =     0.29234078   -1.63382714    1.48255502
     atom   17 type  2   force =    -0.49322980   -0.76118258  -37.71834338
     atom   18 type  2   force =     0.22373327    0.38826192   38.91822475
     atom   19 type  1   force =    -0.51855719    1.93834141    1.35481918
     atom   20 type  2   force =    -0.12755943   -0.04702807   39.68034390
     atom   21 type  1   force =     0.13005753   -0.77157438    1.11063729
     atom   22 type  2   force =     1.21366246    0.86012962  -37.53371492
     atom   23 type  2   force =     0.23052661   -0.36671006   38.53668721
     atom   24 type  1   force =     0.11715868   -0.50623280   -0.62878333
     atom   25 type  2   force =    -0.11256908   -0.38178377  -38.25070641
     atom   26 type  2   force =     0.16757409    0.12138195   38.11910614
     atom   27 type  1   force =     0.39972590   -0.01552331    2.11096689
     atom   28 type  2   force =    -0.26682966   -0.26874077  -37.66620048
     atom   29 type  2   force =     0.05510273    0.17108347   38.25962444
     atom   30 type  1   force =    -0.16875711    0.69757241    0.08697107
     atom   31 type  2   force =    -0.83539025    0.27902521  -37.67079077
     atom   32 type  2   force =     0.56989267   -0.04556706   38.63043402
     atom   33 type  1   force =     0.16313214   -0.04270847   -0.74674338
     atom   34 type  2   force =    -0.65028224    0.27654864  -38.51479537
     atom   35 type  2   force =     0.34362407   -0.19963182   37.80361803
     atom   36 type  3   force =     2.47168501    4.03484639  -42.53589684
     The core correction contribution to forces
     atom    1 type  1   force =     0.00000000    0.00000000    0.00000000
     atom    2 type  2   force =     0.00065150    0.00101600    0.02060820
     atom    3 type  2   force =    -0.00016208    0.00014061   -0.02095614
     atom    4 type  1   force =     0.00000000    0.00000000    0.00000000
     atom    5 type  2   force =    -0.00046337    0.00128205    0.02031511
     atom    6 type  2   force =     0.00030167   -0.00015710   -0.02077200
     atom    7 type  1   force =     0.00000000    0.00000000    0.00000000
     atom    8 type  2   force =    -0.00227075    0.00107657    0.02067372
     atom    9 type  2   force =     0.00025262    0.00151157   -0.02098926
     atom   10 type  1   force =     0.00000000    0.00000000    0.00000000
     atom   11 type  2   force =     0.00410518    0.02700841    0.01916582
     atom   12 type  2   force =     0.00075352    0.00078658   -0.02127600
     atom   13 type  1   force =     0.00000000    0.00000000    0.00000000
     atom   14 type  2   force =    -0.00110353    0.00034997    0.02090797
     atom   15 type  2   force =     0.00054737    0.00023311   -0.02076445
     atom   16 type  1   force =     0.00000000    0.00000000    0.00000000
     atom   17 type  2   force =     0.00039393    0.00121911    0.02038933
     atom   18 type  2   force =    -0.00001937   -0.00037876   -0.02074709
     atom   19 type  1   force =     0.00000000    0.00000000    0.00000000
     atom   20 type  2   force =     0.00027597    0.00126303   -0.02134070
     atom   21 type  1   force =     0.00000000    0.00000000    0.00000000
     atom   22 type  2   force =     0.00045062   -0.00050343    0.02036865
     atom   23 type  2   force =    -0.00024022    0.00090269   -0.02070671
     atom   24 type  1   force =     0.00000000    0.00000000    0.00000000
     atom   25 type  2   force =     0.00031925    0.00060412    0.02071172
     atom   26 type  2   force =    -0.00027110    0.00039480   -0.02087571
     atom   27 type  1   force =     0.00000000    0.00000000    0.00000000
     atom   28 type  2   force =     0.00049196    0.00088750    0.02123613
     atom   29 type  2   force =    -0.00006234    0.00013355   -0.02062881
     atom   30 type  1   force =     0.00000000    0.00000000    0.00000000
     atom   31 type  2   force =     0.00054930   -0.00018620    0.02089571
     atom   32 type  2   force =    -0.00080691    0.00065886   -0.02089950
     atom   33 type  1   force =     0.00000000    0.00000000    0.00000000
     atom   34 type  2   force =     0.00045582    0.00023458    0.02106259
     atom   35 type  2   force =    -0.00052240    0.00068145   -0.02083655
     atom   36 type  3   force =    -0.00618097   -0.01696998    0.01202706
     The Hubbard contrib.    to forces
     atom    1 type  1   force =     0.00000000    0.00000000    0.00000000
     atom    2 type  2   force =     0.00000000    0.00000000    0.00000000
     atom    3 type  2   force =     0.00000000    0.00000000    0.00000000
     atom    4 type  1   force =     0.00000000    0.00000000    0.00000000
     atom    5 type  2   force =     0.00000000    0.00000000    0.00000000
     atom    6 type  2   force =     0.00000000    0.00000000    0.00000000
     atom    7 type  1   force =     0.00000000    0.00000000    0.00000000
     atom    8 type  2   force =     0.00000000    0.00000000    0.00000000
     atom    9 type  2   force =     0.00000000    0.00000000    0.00000000
     atom   10 type  1   force =     0.00000000    0.00000000    0.00000000
     atom   11 type  2   force =     0.00000000    0.00000000    0.00000000
     atom   12 type  2   force =     0.00000000    0.00000000    0.00000000
     atom   13 type  1   force =     0.00000000    0.00000000    0.00000000
     atom   14 type  2   force =     0.00000000    0.00000000    0.00000000
     atom   15 type  2   force =     0.00000000    0.00000000    0.00000000
     atom   16 type  1   force =     0.00000000    0.00000000    0.00000000
     atom   17 type  2   force =     0.00000000    0.00000000    0.00000000
     atom   18 type  2   force =     0.00000000    0.00000000    0.00000000
     atom   19 type  1   force =     0.00000000    0.00000000    0.00000000
     atom   20 type  2   force =     0.00000000    0.00000000    0.00000000
     atom   21 type  1   force =     0.00000000    0.00000000    0.00000000
     atom   22 type  2   force =     0.00000000    0.00000000    0.00000000
     atom   23 type  2   force =     0.00000000    0.00000000    0.00000000
     atom   24 type  1   force =     0.00000000    0.00000000    0.00000000
     atom   25 type  2   force =     0.00000000    0.00000000    0.00000000
     atom   26 type  2   force =     0.00000000    0.00000000    0.00000000
     atom   27 type  1   force =     0.00000000    0.00000000    0.00000000
     atom   28 type  2   force =     0.00000000    0.00000000    0.00000000
     atom   29 type  2   force =     0.00000000    0.00000000    0.00000000
     atom   30 type  1   force =     0.00000000    0.00000000    0.00000000
     atom   31 type  2   force =     0.00000000    0.00000000    0.00000000
     atom   32 type  2   force =     0.00000000    0.00000000    0.00000000
     atom   33 type  1   force =     0.00000000    0.00000000    0.00000000
     atom   34 type  2   force =     0.00000000    0.00000000    0.00000000
     atom   35 type  2   force =     0.00000000    0.00000000    0.00000000
     atom   36 type  3   force =     0.00000000    0.00000000    0.00000000
     The SCF correction term to forces
     atom    1 type  1   force =    -0.00000413   -0.00000946    0.00009521
     atom    2 type  2   force =    -0.00001402   -0.00000946    0.00003205
     atom    3 type  2   force =    -0.00000150   -0.00001314    0.00000925
     atom    4 type  1   force =    -0.00001933    0.00003014    0.00004415
     atom    5 type  2   force =    -0.00001187    0.00000641    0.00003567
     atom    6 type  2   force =    -0.00000424    0.00001618    0.00000907
     atom    7 type  1   force =    -0.00000770    0.00000887    0.00002704
     atom    8 type  2   force =    -0.00000270    0.00000161    0.00002380
     atom    9 type  2   force =     0.00001027    0.00001050   -0.00000495
     atom   10 type  1   force =    -0.00001558   -0.00002391    0.00005798
     atom   11 type  2   force =    -0.00000291    0.00002242    0.00001748
     atom   12 type  2   force =    -0.00000456   -0.00000267    0.00000163
     atom   13 type  1   force =     0.00001718   -0.00000165    0.00007533
     atom   14 type  2   force =     0.00000660   -0.00000722    0.00003141
     atom   15 type  2   force =    -0.00000258   -0.00001725    0.00001438
     atom   16 type  1   force =    -0.00000365    0.00002254    0.00006386
     atom   17 type  2   force =     0.00002141    0.00000143    0.00003058
     atom   18 type  2   force =     0.00000664    0.00001400    0.00000654
     atom   19 type  1   force =     0.00000496    0.00001264    0.00000998
     atom   20 type  2   force =    -0.00000955    0.00000407   -0.00000627
     atom   21 type  1   force =     0.00000160   -0.00002660    0.00005535
     atom   22 type  2   force =     0.00001868   -0.00000452    0.00001595
     atom   23 type  2   force =     0.00000753   -0.00001375    0.00000851
     atom   24 type  1   force =    -0.00001048   -0.00001246    0.00006139
     atom   25 type  2   force =     0.00000633   -0.00000230    0.00003250
     atom   26 type  2   force =     0.00000419   -0.00000687    0.00000161
     atom   27 type  1   force =     0.00002147    0.00002571    0.00002152
     atom   28 type  2   force =    -0.00000823   -0.00000276    0.00003301
     atom   29 type  2   force =    -0.00000339    0.00001339   -0.00000736
     atom   30 type  1   force =    -0.00001266    0.00001464    0.00000067
     atom   31 type  2   force =     0.00001062    0.00001198    0.00001510
     atom   32 type  2   force =    -0.00000041    0.00001712   -0.00001022
     atom   33 type  1   force =     0.00001424   -0.00003624    0.00003396
     atom   34 type  2   force =    -0.00000799   -0.00000274    0.00001054
     atom   35 type  2   force =    -0.00000216   -0.00002078    0.00000484
     atom   36 type  3   force =    -0.00003686   -0.00002895    0.00005401

     Total force =     0.006370     Total SCF correction =     0.000244
     Energy error            =      8.8E-05 Ry
     Gradient error          =      1.8E-03 Ry/Bohr

     bfgs converged in  21 scf cycles and  20 bfgs steps
     (criteria: energy <  1.0E-04 Ry, force <  1.0E-02 Ry/Bohr)

     End of BFGS Geometry Optimization

     Final energy             =   -2246.3973914651 Ry

     File ./MoS2-V-O.bfgs deleted, as requested
Begin final coordinates

ATOMIC_POSITIONS (angstrom)
Mo            6.5613077412        1.7380538538        2.7745421337
S             8.1446753650        0.8561922115        4.3985210848
S             8.1258766668        0.7838352268        1.2014235582
Mo            8.1625748852        4.4587559796        2.7190172768
S             6.5318659544        3.6625238213        4.3096943170
S             6.5787070689        3.5414237529        1.1185105003
Mo            6.4681655789        7.1088305190        2.7881986124
S             8.1948526985        6.2399307741        4.2919790242
S             8.1364679676        6.3075898261        1.1580262105
Mo            8.1338096750        9.9074843322        2.8469245127
S             6.4626921533        9.2436941120        4.6310162400
S             6.5665634645        8.9625119325        1.2618229492
Mo            3.4286509050        1.7455031225        2.7385788751
S             4.9652778085        0.8601715791        4.3714337902
S             5.0170458754        0.8325902218        1.1598290443
Mo            4.9984962104        4.5117857802        2.6449506285
S             3.4761036119        3.6528716106        4.2906370080
S             3.4441084266        3.5430957532        1.0861474129
Mo            3.4900728339        7.1720369757        2.6652731916
S             5.0410424307        6.3099693003        1.0611774313
Mo            4.9669619859        9.9456199076        2.7713283075
S             3.4381308112        8.9535304216        4.3221656970
S             3.4114802572        9.0378101965        1.1413167313
Mo            0.2690338880        1.7192465501        2.7665197051
S             1.8613884942        0.8412038211        4.3571387085
S             1.8364115714        0.8193672352        1.1658230944
Mo            1.8873410371        4.4765688204        2.6926731483
S             0.3055981425        3.5785834704        4.3133862924
S             0.2775734690        3.5293699233        1.1365265425
Mo            0.3077579250        7.2054651979        2.7539094987
S             1.9572665405        6.2723247615        4.3043114476
S             1.8708239126        6.3233832904        1.1093555604
Mo            1.8389302278        9.9239720756        2.7713897656
S             0.2888343440        8.9943865537        4.3935751628
S             0.2313365275        9.0380699962        1.2011088229
O             6.0996272231        7.6691268371        4.8080905333
End final coordinates



     Writing all to output data dir ./MoS2-V-O.save/
 
     init_run     :      4.61s CPU      4.91s WALL (       1 calls)
     electrons    :   1786.85s CPU   1971.55s WALL (      21 calls)
     update_pot   :     61.00s CPU     63.91s WALL (      20 calls)
     forces       :     57.34s CPU     61.84s WALL (      21 calls)

     Called by init_run:
     wfcinit      :      0.52s CPU      0.54s WALL (       1 calls)
     potinit      :      2.34s CPU      2.50s WALL (       1 calls)
     hinit0       :      0.45s CPU      0.47s WALL (       1 calls)

     Called by electrons:
     c_bands      :    273.91s CPU    278.72s WALL (     186 calls)
     sum_band     :    115.55s CPU    128.83s WALL (     186 calls)
     v_of_rho     :    173.77s CPU    199.18s WALL (     199 calls)
     newd         :     59.76s CPU     70.45s WALL (     199 calls)
     PAW_pot      :      7.94s CPU      7.96s WALL (     219 calls)
     mix_rho      :   1177.30s CPU   1306.97s WALL (     186 calls)

     Called by c_bands:
     init_us_2    :      4.47s CPU      4.61s WALL (     393 calls)
     init_us_2:cp :      4.46s CPU      4.61s WALL (     393 calls)
     regterg      :    260.42s CPU    265.03s WALL (     186 calls)

     Called by *egterg:
     rdiaghg      :     17.17s CPU     17.30s WALL (     974 calls)
     h_psi        :    172.13s CPU    173.51s WALL (    1003 calls)
     s_psi        :     15.56s CPU     15.61s WALL (    1003 calls)
     g_psi        :      0.84s CPU      0.85s WALL (     816 calls)

     Called by h_psi:
     h_psi:calbec :     17.21s CPU     17.28s WALL (    1003 calls)
     vloc_psi     :    137.45s CPU    138.68s WALL (    1003 calls)
     add_vuspsi   :     15.30s CPU     15.37s WALL (    1003 calls)

     General routines
     calbec       :     25.17s CPU     25.27s WALL (    1293 calls)
     fft          :    119.90s CPU    138.32s WALL (   13364 calls)
     ffts         :    522.54s CPU    647.86s WALL (  288022 calls)
     fftw         :     80.77s CPU     81.47s WALL (  114252 calls)
     interpolate  :      2.48s CPU      2.84s WALL (     199 calls)
 
     Parallel routines
 
     PWSCF        :  31m58.77s CPU  35m13.59s WALL

 
   This run was terminated on:  20: 9:37   1Nov2023            

=------------------------------------------------------------------------------=
   JOB DONE.
=------------------------------------------------------------------------------=
