
     Program PWSCF v.7.2 starts on  1Nov2023 at 21:31: 6 

     This program is part of the open-source Quantum ESPRESSO suite
     for quantum simulation of materials; please cite
         "P. Giannozzi et al., J. Phys.:Condens. Matter 21 395502 (2009);
         "P. Giannozzi et al., J. Phys.:Condens. Matter 29 465901 (2017);
         "P. Giannozzi et al., J. Chem. Phys. 152 154105 (2020);
          URL http://www.quantum-espresso.org", 
     in publications or presentations arising from this work. More details at
     http://www.quantum-espresso.org/quote

     Parallel version (MPI & OpenMP), running on      48 processor cores
     Number of MPI processes:                48
     Threads/MPI process:                     1

     MPI processes distributed on     1 nodes
     150230 MiB available memory on the printing compute node when the environment starts
 
     Waiting for input...
     Reading input from standard input
Warning: card &CELL ignored
Warning: card CELL_DYNAMICS = 'BFGS', ignored
Warning: card CELL_DOFREE = '2DXY' ignored
Warning: card / ignored

     Current dimensions of program PWSCF are:
     Max number of different atomic species (ntypx) = 10
     Max number of k-points (npk) =  40000
     Max angular momentum in pseudopotentials (lmaxx) =  4
     file O.pbe-n-kjpaw_psl.0.1.UPF: wavefunction(s)  2P renormalized

     IMPORTANT: XC functional enforced from input :
     Exchange-correlation= RVV10
                           (   1   4  13   4  26   0   0)
     Any further DFT definition will be discarded
     Please, verify this is what you really want


     gamma-point specific algorithms are used
     signal trapping enabled: kill the code with -SIGUSR1 to stop cleanly the simulation 
 
     R & G space division:  proc/nbgrp/npool/nimage =      48
     Subspace diagonalization in iterative solution of the eigenvalue problem:
     one sub-group per band group will be used
     scalapack distributed-memory algorithm (size of sub-group:  2*  2 procs)

 
     Parallelization info
     --------------------
     sticks:   dense  smooth     PW     G-vecs:    dense   smooth      PW
     Min         396     194     47               101632    35090    4376
     Max         398     196     50               101674    35128    4410
     Sum       19091    9389   2349              4879585  1685513  210763
 
     Using Slab Decomposition
 


     bravais-lattice index     =            0
     lattice parameter (alat)  =      17.8707  a.u.
     unit-cell volume          =   17436.2743 (a.u.)^3
     number of atoms/cell      =           36
     number of atomic types    =            3
     number of electrons       =       312.00
     number of Kohn-Sham states=          187
     kinetic-energy cutoff     =      80.0000  Ry
     charge density cutoff     =     650.0000  Ry
     scf convergence threshold =      1.0E-06
     mixing beta               =       0.7000
     number of iterations used =            8  local-TF  mixing
     energy convergence thresh.=      1.0E-04
     force convergence thresh. =      1.0E-02
     Exchange-correlation= RVV10
                           (   1   4  13   4  26   0   0)
     nstep                     =          200


     celldm(1)=  17.870686  celldm(2)=   0.000000  celldm(3)=   0.000000
     celldm(4)=   0.000000  celldm(5)=   0.000000  celldm(6)=   0.000000

     crystal axes: (cart. coord. in units of alat)
               a(1) = (   1.000000   0.000000   0.000000 )  
               a(2) = (   0.000000   1.155671   0.000000 )  
               a(3) = (   0.000000   0.000000   2.643601 )  

     reciprocal axes: (cart. coord. in units 2 pi/alat)
               b(1) = (  1.000000  0.000000  0.000000 )  
               b(2) = (  0.000000  0.865298  0.000000 )  
               b(3) = (  0.000000  0.000000  0.378272 )  


     PseudoPot. # 1 for Mo read from file:
     ../pseudo/Mo_ONCV_PBE-1.0.oncvpsp.upf
     MD5 check sum: 1b5d28e075c9ccadda658a603575cd1f
     Pseudo is Norm-conserving, Zval = 14.0
     Generated using ONCVPSP code by D. R. Hamann
     Using radial grid of 1526 points,  6 beta functions with: 
                l(1) =   0
                l(2) =   0
                l(3) =   1
                l(4) =   1
                l(5) =   2
                l(6) =   2

     PseudoPot. # 2 for S  read from file:
     ../pseudo/s_pbe_v1.4.uspp.F.UPF
     MD5 check sum: 88d86576ff6df21479756cfb9bdac1df
     Pseudo is Ultrasoft + core correction, Zval =  6.0
     Generated by new atomic code, or converted to UPF format
     Using radial grid of  907 points,  6 beta functions with: 
                l(1) =   0
                l(2) =   0
                l(3) =   1
                l(4) =   1
                l(5) =   2
                l(6) =   2
     Q(r) pseudized with  8 coefficients,  rinner =    1.300   1.300   1.300
                                                       1.300   1.300

     PseudoPot. # 3 for O  read from file:
     ../pseudo/O.pbe-n-kjpaw_psl.0.1.UPF
     MD5 check sum: 0234752ac141de4415c5fc33072bef88
     Pseudo is Projector augmented-wave + core cor, Zval =  6.0
     Generated using "atomic" code by A. Dal Corso  v.5.0.99 svn rev. 10869
     Shape of augmentation charge: BESSEL
     Using radial grid of 1095 points,  4 beta functions with: 
                l(1) =   0
                l(2) =   0
                l(3) =   1
                l(4) =   1
     Q(r) pseudized with 0 coefficients 


     atomic species   valence    mass     pseudopotential
        Mo            14.00    95.94000     Mo( 1.00)
        S              6.00    32.06500     S ( 1.00)
        O              6.00    15.99940     O ( 1.00)

     No symmetry found



   Cartesian axes

     site n.     atom                  positions (alat units)
         1           Mo  tau(   1) = (   0.6952221   0.1890506   0.2985846  )
         2           S   tau(   2) = (   0.8646417   0.0856217   0.4689279  )
         3           S   tau(   3) = (   0.8663890   0.0857843   0.1351291  )
         4           Mo  tau(   4) = (   0.8560186   0.4753274   0.2873942  )
         5           S   tau(   5) = (   0.6873294   0.3936244   0.4596353  )
         6           S   tau(   6) = (   0.6929804   0.3713468   0.1185692  )
         7           Mo  tau(   7) = (   0.6862796   0.7633098   0.2825370  )
         8           S   tau(   8) = (   0.8545980   0.6708292   0.4486168  )
         9           S   tau(   9) = (   0.8545123   0.6666874   0.1146125  )
        10           Mo  tau(  10) = (   0.8629403   1.0471007   0.3006803  )
        11           S   tau(  11) = (   0.6868280   0.9456650   0.4634891  )
        12           S   tau(  12) = (   0.6998113   0.9568511   0.1205389  )
        13           Mo  tau(  13) = (   0.3618216   0.1847309   0.2935964  )
        14           S   tau(  14) = (   0.5260962   0.0863870   0.4600448  )
        15           S   tau(  15) = (   0.5348379   0.0894875   0.1297123  )
        16           Mo  tau(  16) = (   0.5265817   0.4772436   0.2784130  )
        17           S   tau(  17) = (   0.3624753   0.3882513   0.4525556  )
        18           S   tau(  18) = (   0.3635411   0.3752055   0.1119148  )
        19           Mo  tau(  19) = (   0.3652268   0.7630864   0.2781795  )
        20           S   tau(  20) = (   0.5269494   0.6690381   0.1096838  )
        21           Mo  tau(  21) = (   0.5300192   1.0470394   0.2900995  )
        22           S   tau(  22) = (   0.3670346   0.9457522   0.4574073  )
        23           S   tau(  23) = (   0.3604225   0.9585725   0.1159032  )
        24           Mo  tau(  24) = (   0.0313099   0.1847895   0.3013130  )
        25           S   tau(  25) = (   0.1956761   0.0838230   0.4650863  )
        26           S   tau(  26) = (   0.1967693   0.0903508   0.1278874  )
        27           Mo  tau(  27) = (   0.1967578   0.4753919   0.2813011  )
        28           S   tau(  28) = (   0.0287851   0.3864324   0.4586755  )
        29           S   tau(  29) = (   0.0244514   0.3729871   0.1239344  )
        30           Mo  tau(  30) = (   0.0286728   0.7631204   0.2856894  )
        31           S   tau(  31) = (   0.2011512   0.6675435   0.4465001  )
        32           S   tau(  32) = (   0.1969214   0.6672839   0.1104564  )
        33           Mo  tau(  33) = (   0.1950294   1.0511147   0.2932237  )
        34           S   tau(  34) = (   0.0312912   0.9612169   0.4667423  )
        35           S   tau(  35) = (   0.0292670   0.9563028   0.1216485  )
        36           O   tau(  36) = (   0.1111111   1.0272628   0.5792558  )

     number of k points=     1  Gaussian smearing, width (Ry)=  0.0100
                       cart. coord. in units 2pi/alat
        k(    1) = (   0.0000000   0.0000000   0.0000000), wk =   2.0000000

     Dense  grid:  2439793 G-vectors     FFT dimensions: ( 150, 180, 384)

     Smooth grid:   842757 G-vectors     FFT dimensions: ( 108, 120, 270)

     Estimated max dynamical RAM per process >     269.22 MB

     Estimated total dynamical RAM >      12.62 GB

     Initial potential from superposition of free atoms

     starting charge     311.9873, renormalised to     312.0000

     negative rho (up, down):  2.763E-04 0.000E+00


---------------------------------------------------------------------------------
Carrying out rVV10 run using the following parameters:
Nqs =      20    Nr_points =    1024   r_max =   100.000
b_value =  6.30000    beta =  0.00901
     q_mesh =  0.00010000  0.00030000  0.00058939  0.00100810
               0.00161396  0.00249058  0.00375900  0.00559430
               0.00824984  0.01209221  0.01765183  0.02569619
               0.03733578  0.05417739  0.07854596  0.11380545
               0.16482331  0.23864234  0.34545298  0.50000000

Gradients computed in Reciprocal space

---------------------------------------------------------------------------------


     Starting wfcs are  216 randomized atomic wfcs
     Checking if some PAW data can be deallocated... 

     total cpu time spent up to now is        5.1 secs

     Self-consistent Calculation

     iteration #  1     ecut=    80.00 Ry     beta= 0.70
     Davidson diagonalization with overlap
     ethr =  1.00E-02,  avg # of iterations =  2.0

     Threshold (ethr) on eigenvalues was too large:
     Diagonalizing with lowered threshold

     Davidson diagonalization with overlap
     ethr =  4.44E-04,  avg # of iterations =  4.0

     negative rho (up, down):  4.035E-08 0.000E+00

     total cpu time spent up to now is       22.4 secs

     total energy              =   -2246.27824456 Ry
     estimated scf accuracy    <       1.63257197 Ry

     iteration #  2     ecut=    80.00 Ry     beta= 0.70
     Davidson diagonalization with overlap
     ethr =  5.23E-04,  avg # of iterations =  3.0

     total cpu time spent up to now is       27.1 secs

     total energy              =   -2246.27616240 Ry
     estimated scf accuracy    <       0.56367378 Ry

     iteration #  3     ecut=    80.00 Ry     beta= 0.70
     Davidson diagonalization with overlap
     ethr =  1.81E-04,  avg # of iterations =  2.0

     total cpu time spent up to now is       30.9 secs

     total energy              =   -2246.28186773 Ry
     estimated scf accuracy    <       0.13225299 Ry

     iteration #  4     ecut=    80.00 Ry     beta= 0.70
     Davidson diagonalization with overlap
     ethr =  4.24E-05,  avg # of iterations = 19.0

     total cpu time spent up to now is       35.7 secs

     total energy              =   -2246.30462127 Ry
     estimated scf accuracy    <       0.02396991 Ry

     iteration #  5     ecut=    80.00 Ry     beta= 0.70
     Davidson diagonalization with overlap
     ethr =  7.68E-06,  avg # of iterations =  2.0

     total cpu time spent up to now is       39.3 secs

     total energy              =   -2246.30412627 Ry
     estimated scf accuracy    <       0.01492818 Ry

     iteration #  6     ecut=    80.00 Ry     beta= 0.70
     Davidson diagonalization with overlap
     ethr =  4.78E-06,  avg # of iterations =  2.0

     total cpu time spent up to now is       42.8 secs

     total energy              =   -2246.30322941 Ry
     estimated scf accuracy    <       0.00930668 Ry

     iteration #  7     ecut=    80.00 Ry     beta= 0.70
     Davidson diagonalization with overlap
     ethr =  2.98E-06,  avg # of iterations = 18.0

     negative rho (up, down):  5.599E-05 0.000E+00

     total cpu time spent up to now is       50.3 secs

     total energy              =   -2246.30221877 Ry
     estimated scf accuracy    <       0.00553429 Ry

     iteration #  8     ecut=    80.00 Ry     beta= 0.70
     Davidson diagonalization with overlap
     ethr =  1.77E-06,  avg # of iterations =  8.0

     negative rho (up, down):  1.775E-02 0.000E+00

     total cpu time spent up to now is       56.6 secs

     total energy              =   -2246.30171631 Ry
     estimated scf accuracy    <       0.00303244 Ry

     iteration #  9     ecut=    80.00 Ry     beta= 0.70
     Davidson diagonalization with overlap
     ethr =  9.72E-07,  avg # of iterations =  2.0

     negative rho (up, down):  2.687E-02 0.000E+00

     total cpu time spent up to now is       62.0 secs

     total energy              =   -2246.30155897 Ry
     estimated scf accuracy    <       0.00156231 Ry

     iteration # 10     ecut=    80.00 Ry     beta= 0.70
     Davidson diagonalization with overlap
     ethr =  5.01E-07,  avg # of iterations =  2.0

     negative rho (up, down):  2.182E-02 0.000E+00

     total cpu time spent up to now is       69.6 secs

     total energy              =   -2246.30160473 Ry
     estimated scf accuracy    <       0.00049776 Ry

     iteration # 11     ecut=    80.00 Ry     beta= 0.70
     Davidson diagonalization with overlap
     ethr =  1.60E-07,  avg # of iterations =  2.0

     negative rho (up, down):  8.854E-03 0.000E+00

     total cpu time spent up to now is       77.1 secs

     total energy              =   -2246.30157411 Ry
     estimated scf accuracy    <       0.00006661 Ry

     iteration # 12     ecut=    80.00 Ry     beta= 0.70
     Davidson diagonalization with overlap
     ethr =  2.13E-08,  avg # of iterations =  6.0

     negative rho (up, down):  1.947E-03 0.000E+00

     total cpu time spent up to now is       87.3 secs

     total energy              =   -2246.30162335 Ry
     estimated scf accuracy    <       0.00001980 Ry

     iteration # 13     ecut=    80.00 Ry     beta= 0.70
     Davidson diagonalization with overlap
     ethr =  6.35E-09,  avg # of iterations =  2.0

     negative rho (up, down):  6.411E-04 0.000E+00

     total cpu time spent up to now is       96.9 secs

     total energy              =   -2246.30162801 Ry
     estimated scf accuracy    <       0.00000394 Ry

     iteration # 14     ecut=    80.00 Ry     beta= 0.70
     Davidson diagonalization with overlap
     ethr =  1.26E-09,  avg # of iterations =  4.0

     negative rho (up, down):  2.765E-04 0.000E+00

     total cpu time spent up to now is      103.9 secs

     total energy              =   -2246.30162946 Ry
     estimated scf accuracy    <       0.00000134 Ry

     iteration # 15     ecut=    80.00 Ry     beta= 0.70
     Davidson diagonalization with overlap
     ethr =  4.29E-10,  avg # of iterations =  2.0

     negative rho (up, down):  2.107E-04 0.000E+00

     total cpu time spent up to now is      107.2 secs

     End of self-consistent calculation

          k = 0.0000 0.0000 0.0000 (105382 PWs)   bands (ev):

   -62.9667 -62.9539 -62.9332 -62.9197 -62.9088 -62.8998 -62.8966 -62.8912
   -62.8799 -62.8743 -62.8279 -62.6805 -37.3123 -37.2566 -37.2362 -37.2277
   -37.1979 -37.1768 -37.1578 -37.1458 -37.1358 -37.1247 -37.1232 -37.1179
   -37.1047 -37.1013 -37.0883 -37.0856 -37.0812 -37.0758 -37.0656 -37.0589
   -37.0508 -37.0376 -37.0325 -37.0195 -37.0091 -36.9944 -36.9794 -36.9731
   -36.9598 -36.9413 -36.8863 -36.8649 -36.8517 -36.8471 -36.8114 -36.7719
   -23.4757 -15.9889 -15.2134 -15.2037 -15.0271 -14.9165 -14.8230 -14.5612
   -14.5355 -14.5074 -14.4608 -14.4350 -14.3919 -14.3372 -14.3045 -14.1996
   -14.1842 -14.1614 -14.0827 -14.0490 -13.9191 -13.8822 -13.8597 -13.5656
    -8.3807  -8.1323  -7.8601  -7.5574  -7.4922  -7.3303  -7.2618  -7.2474
    -7.1747  -7.0851  -6.9705  -6.8655  -6.8247  -6.7749  -6.7404  -6.6011
    -6.5549  -6.4817  -6.3770  -6.3115  -6.1865  -6.0733  -5.9906  -5.9009
    -5.8940  -5.8132  -5.7955  -5.7699  -5.7237  -5.6946  -5.6553  -5.5922
    -5.5890  -5.5189  -5.4745  -5.3609  -5.3140  -5.2666  -5.1852  -5.1090
    -5.0290  -4.9897  -4.9199  -4.8550  -4.7109  -4.5692  -4.5270  -4.4472
    -4.3800  -4.3085  -4.2141  -4.1835  -4.1219  -4.0007  -3.8657  -3.8499
    -3.7987  -3.7672  -3.7147  -3.6586  -3.5927  -3.5606  -3.5321  -3.5028
    -3.4511  -3.4395  -3.4022  -3.2984  -3.0977  -3.0582  -2.9504  -2.9076
    -2.8314  -2.8189  -2.7618  -2.7300  -2.7082  -2.6825  -2.5807  -2.3391
    -2.2033  -2.0753  -1.9585  -1.8135  -0.9305  -0.8078  -0.7408  -0.2462
    -0.1874  -0.1081  -0.0572   0.0536   0.0989   0.1349   0.1831   0.2043
     0.2936   0.3402   0.3529   0.4092   0.4867   0.4985   0.5340   0.5609
     0.6149   0.6847   0.7094   0.7251   0.7700   0.8111   0.8452   0.9446
     1.0073   1.0314   1.2539

     the Fermi energy is    -1.3720 ev

!    total energy              =   -2246.30163072 Ry
     estimated scf accuracy    <       0.00000050 Ry
     smearing contrib. (-TS)   =      -0.00000030 Ry
     internal energy E=F+TS    =   -2246.30163042 Ry

     The total energy is F=E-TS. E is the sum of the following terms:
     one-electron contribution =  -18443.78018975 Ry
     hartree contribution      =    9209.92974246 Ry
     xc contribution           =    -392.21640088 Ry
     ewald contribution        =    7389.61925996 Ry
     one-center paw contrib.   =      -9.85404221 Ry

     convergence has been achieved in  15 iterations

     negative rho (up, down):  2.107E-04 0.000E+00

     Forces acting on atoms (cartesian axes, Ry/au):

     atom    1 type  1   force =     0.01299848   -0.02555128    0.00553469
     atom    2 type  2   force =    -0.01642381    0.01729601    0.00243410
     atom    3 type  2   force =    -0.01099419    0.00826907   -0.00652322
     atom    4 type  1   force =     0.00433363    0.00435458    0.00073517
     atom    5 type  2   force =    -0.00185214   -0.00632859   -0.00883652
     atom    6 type  2   force =     0.00178977    0.01034165    0.00054425
     atom    7 type  1   force =     0.00417015   -0.01625032   -0.00260953
     atom    8 type  2   force =    -0.00308764   -0.00807555    0.01398843
     atom    9 type  2   force =     0.01209241    0.00562874    0.00902757
     atom   10 type  1   force =    -0.00512460    0.02938087   -0.00496058
     atom   11 type  2   force =     0.00084291   -0.00467662   -0.00921419
     atom   12 type  2   force =    -0.00548377   -0.00241522    0.00353570
     atom   13 type  1   force =     0.00250107    0.01078025   -0.01272210
     atom   14 type  2   force =     0.00798705   -0.00012940    0.01447813
     atom   15 type  2   force =    -0.01150092    0.00230394   -0.00960253
     atom   16 type  1   force =     0.00122502    0.01274301    0.00489325
     atom   17 type  2   force =     0.00587865   -0.00010525    0.00193670
     atom   18 type  2   force =    -0.00277327   -0.00688046    0.01376065
     atom   19 type  1   force =     0.00305754   -0.00716823   -0.00654824
     atom   20 type  2   force =     0.00362980   -0.00395947    0.00166216
     atom   21 type  1   force =    -0.00516936    0.00150423   -0.00423614
     atom   22 type  2   force =     0.00713334   -0.00551798   -0.00913238
     atom   23 type  2   force =     0.00058216    0.00359708    0.01251708
     atom   24 type  1   force =    -0.00663005   -0.00899474   -0.02051382
     atom   25 type  2   force =     0.02835579    0.03954600   -0.00679172
     atom   26 type  2   force =    -0.01117384    0.00006191   -0.00270759
     atom   27 type  1   force =    -0.00360101    0.00060102    0.00809747
     atom   28 type  2   force =     0.00114526   -0.00123178   -0.00438500
     atom   29 type  2   force =     0.00198086    0.00073776   -0.00318461
     atom   30 type  1   force =     0.01619035   -0.00678162    0.00981164
     atom   31 type  2   force =     0.00432056   -0.00317432    0.01725103
     atom   32 type  2   force =    -0.01177852    0.00690337    0.00481942
     atom   33 type  1   force =     0.02072163   -0.00513815   -0.08601180
     atom   34 type  2   force =    -0.04675130   -0.06124847   -0.15912779
     atom   35 type  2   force =    -0.00794980    0.00768955    0.01647345
     atom   36 type  3   force =     0.00935779    0.01188839    0.21560686
     The non-local contrib.  to forces
     atom    1 type  1   force =    -0.00427020    0.03453782   -0.01141577
     atom    2 type  2   force =    -0.01303483   -0.00318536   -0.27497801
     atom    3 type  2   force =    -0.01635338   -0.00262022    0.26725981
     atom    4 type  1   force =    -0.00030525    0.00035896    0.00659203
     atom    5 type  2   force =     0.00577835   -0.03386293   -0.25562945
     atom    6 type  2   force =    -0.00254571    0.01238169    0.26072802
     atom    7 type  1   force =    -0.02969657   -0.00137745   -0.02258848
     atom    8 type  2   force =     0.00338629   -0.00479850   -0.25441892
     atom    9 type  2   force =     0.00865043   -0.00973730    0.27870020
     atom   10 type  1   force =     0.01240867   -0.02130713    0.00900207
     atom   11 type  2   force =     0.01633102    0.00390040   -0.26135977
     atom   12 type  2   force =    -0.01577566   -0.01787147    0.26100449
     atom   13 type  1   force =    -0.00367629    0.01141366   -0.00204424
     atom   14 type  2   force =     0.01225191   -0.00987183   -0.26279498
     atom   15 type  2   force =    -0.01062610   -0.00909672    0.26081454
     atom   16 type  1   force =     0.00308725    0.02511745   -0.02911194
     atom   17 type  2   force =     0.00078989   -0.02735689   -0.25079896
     atom   18 type  2   force =    -0.00392912   -0.00140227    0.27301802
     atom   19 type  1   force =     0.01124374    0.00182132   -0.01564061
     atom   20 type  2   force =     0.00031291   -0.02086080    0.26774008
     atom   21 type  1   force =    -0.00172301    0.02899308    0.01186888
     atom   22 type  2   force =     0.02853137   -0.00445574   -0.26457133
     atom   23 type  2   force =     0.00738422   -0.02048895    0.26722883
     atom   24 type  1   force =     0.01338165    0.01620294   -0.01101680
     atom   25 type  2   force =     0.00715042    0.03907925   -0.25653422
     atom   26 type  2   force =    -0.00523925   -0.01007973    0.26229721
     atom   27 type  1   force =     0.00054929    0.00388343    0.00962657
     atom   28 type  2   force =    -0.00503150   -0.02125346   -0.27582231
     atom   29 type  2   force =     0.00719559    0.00136962    0.26502723
     atom   30 type  1   force =    -0.01055116    0.02904804   -0.00015894
     atom   31 type  2   force =    -0.01133048    0.00358805   -0.25360104
     atom   32 type  2   force =    -0.01029028   -0.00973740    0.27693827
     atom   33 type  1   force =    -0.02563162   -0.00390781    0.03598011
     atom   34 type  2   force =     0.15365099    0.09655482    0.11883955
     atom   35 type  2   force =    -0.00584816   -0.01251066    0.27188017
     atom   36 type  3   force =    -1.33626090   -1.03398626   -1.47997192
     The ionic contribution  to forces
     atom    1 type  1   force =     0.08513028    0.86156781    4.49778266
     atom    2 type  2   force =    -1.77911181    1.48603970   38.61282105
     atom    3 type  2   force =    -0.34369678    0.22746061  -36.85836011
     atom    4 type  1   force =    -0.18455887    0.47210826   -0.38414575
     atom    5 type  2   force =    -1.04792355    1.59823618   38.54769782
     atom    6 type  2   force =     0.31351388   -0.44661113  -38.50305597
     atom    7 type  1   force =    -2.93033937   -3.39433260    1.24039465
     atom    8 type  2   force =    -1.39860655   -0.60323293   36.99992486
     atom    9 type  2   force =     0.24419207   -0.20050835  -38.59991863
     atom   10 type  1   force =    -3.05327576   -0.13050984    2.54495909
     atom   11 type  2   force =    -1.03844160   -1.82652851   38.72221861
     atom   12 type  2   force =     0.34073060    0.63546952  -38.54224038
     atom   13 type  1   force =     1.18040059    2.01628290    1.23956171
     atom   14 type  2   force =     0.41150827    0.42056829   38.16520220
     atom   15 type  2   force =     0.22898354    0.07621005  -37.42159600
     atom   16 type  1   force =     0.10866426    3.86897387   -0.47611859
     atom   17 type  2   force =     1.00122466    1.67601025   37.68129521
     atom   18 type  2   force =    -0.09645903   -0.58086998  -39.08116757
     atom   19 type  1   force =     3.53174687   -3.47617315   -1.18799011
     atom   20 type  2   force =     0.27511149   -0.31903880  -39.01001782
     atom   21 type  1   force =     0.65914963    0.13281103   -0.55324526
     atom   22 type  2   force =     2.41919988   -2.40111661   37.29321984
     atom   23 type  2   force =     0.12506366    0.58491996  -39.15752580
     atom   24 type  1   force =    -0.97219460    2.82016053    3.65848218
     atom   25 type  2   force =     1.72531885    3.02127623   37.67662948
     atom   26 type  2   force =    -0.19240475    0.34164375  -38.24934392
     atom   27 type  1   force =     0.16976277    0.25890481   -3.44759123
     atom   28 type  2   force =    -0.05192534    1.27678298   37.92161503
     atom   29 type  2   force =    -0.30214146   -0.33837853  -37.82636111
     atom   30 type  1   force =    -0.86767073   -2.66387487   -2.66986468
     atom   31 type  2   force =     1.50003851   -1.11782633   36.76425711
     atom   32 type  2   force =    -0.42874020   -0.21680502  -39.30850618
     atom   33 type  1   force =     2.27254654   -0.41170889   -3.79120830
     atom   34 type  2   force =    -4.70949801   -5.56439446   32.22316717
     atom   35 type  2   force =    -0.42517191    0.35440240  -38.93765182
     atom   36 type  3   force =     3.22987399    1.56208089   50.21668054
     The local contribution  to forces
     atom    1 type  1   force =    -0.06783299   -0.92180066   -4.48161927
     atom    2 type  2   force =     1.77535260   -1.46586416  -38.35655421
     atom    3 type  2   force =     0.34831484   -0.21667158   36.60482541
     atom    4 type  1   force =     0.18928991   -0.46808577    0.37738723
     atom    5 type  2   force =     1.04085979   -1.57258949  -38.32160791
     atom    6 type  2   force =    -0.30954458    0.44572430   38.26316073
     atom    7 type  1   force =     2.96425360    3.37958457   -1.22123171
     atom    8 type  2   force =     1.39233507    0.59954966  -36.75206802
     atom    9 type  2   force =    -0.24050923    0.21536027   38.35083737
     atom   10 type  1   force =     3.03571933    0.18124701   -2.55966486
     atom   11 type  2   force =     1.02387063    1.81843585  -38.49092864
     atom   12 type  2   force =    -0.33172823   -0.62141311   38.30505431
     atom   13 type  1   force =    -1.17422107   -2.01698855   -1.25102942
     atom   14 type  2   force =    -0.41512525   -0.41092314  -37.90873606
     atom   15 type  2   force =    -0.23040907   -0.06537760   37.17123869
     atom   16 type  1   force =    -0.11058881   -3.88137223    0.50924694
     atom   17 type  2   force =    -0.99617216   -1.65016770  -37.44905354
     atom   18 type  2   force =     0.09758127    0.57604084   38.84244812
     atom   19 type  1   force =    -3.54006491    3.46725595    1.19626847
     atom   20 type  2   force =    -0.27193325    0.33509668   38.76468799
     atom   21 type  1   force =    -0.66258320   -0.16023458    0.53632423
     atom   22 type  2   force =    -2.43890911    2.39999602  -37.05898319
     atom   23 type  2   force =    -0.13122263   -0.56242087   38.92314895
     atom   24 type  1   force =     0.95216694   -2.84549886   -3.66872397
     atom   25 type  2   force =    -1.70393738   -3.01820382  -37.44799775
     atom   26 type  2   force =     0.18649373   -0.33197634   38.00462194
     atom   27 type  1   force =    -0.17392778   -0.26209897    3.44514724
     atom   28 type  2   force =     0.05778776   -1.25840094  -37.67137934
     atom   29 type  2   force =     0.29751778    0.33836998   37.57829863
     atom   30 type  1   force =     0.89446987    2.62808304    2.67897859
     atom   31 type  2   force =    -1.48512047    1.11126071  -36.51406870
     atom   32 type  2   force =     0.42700302    0.23289049   39.05707845
     atom   33 type  1   force =    -2.22617283    0.41047941    3.66843746
     atom   34 type  2   force =     4.51713302    5.41250819  -32.50174476
     atom   35 type  2   force =     0.42295134   -0.33524145   38.70293176
     atom   36 type  3   force =    -1.89832088   -0.52707497  -48.53553136
     The core correction contribution to forces
     atom    1 type  1   force =     0.00000000    0.00000000    0.00000000
     atom    2 type  2   force =     0.00038746    0.00024109    0.02100998
     atom    3 type  2   force =     0.00073818    0.00004471   -0.02072490
     atom    4 type  1   force =     0.00000000    0.00000000    0.00000000
     atom    5 type  2   force =    -0.00059293    0.00185745    0.02052557
     atom    6 type  2   force =     0.00033117   -0.00116715   -0.02078631
     atom    7 type  1   force =     0.00000000    0.00000000    0.00000000
     atom    8 type  2   force =    -0.00015906    0.00046620    0.02041071
     atom    9 type  2   force =    -0.00020047    0.00053145   -0.02110418
     atom   10 type  1   force =     0.00000000    0.00000000    0.00000000
     atom   11 type  2   force =    -0.00088706   -0.00042244    0.02072960
     atom   12 type  2   force =     0.00129734    0.00145189   -0.02078073
     atom   13 type  1   force =     0.00000000    0.00000000    0.00000000
     atom   14 type  2   force =    -0.00065908    0.00002802    0.02066128
     atom   15 type  2   force =     0.00055475    0.00052932   -0.02056043
     atom   16 type  1   force =     0.00000000    0.00000000    0.00000000
     atom   17 type  2   force =     0.00003995    0.00139306    0.02031032
     atom   18 type  2   force =     0.00004727   -0.00064854   -0.02101867
     atom   19 type  1   force =     0.00000000    0.00000000    0.00000000
     atom   20 type  2   force =     0.00011999    0.00082777   -0.02128513
     atom   21 type  1   force =     0.00000000    0.00000000    0.00000000
     atom   22 type  2   force =    -0.00172174    0.00009524    0.02108539
     atom   23 type  2   force =    -0.00065916    0.00161578   -0.02082857
     atom   24 type  1   force =     0.00000000    0.00000000    0.00000000
     atom   25 type  2   force =    -0.00017882   -0.00265612    0.02099643
     atom   26 type  2   force =    -0.00002587    0.00043460   -0.02077936
     atom   27 type  1   force =     0.00000000    0.00000000    0.00000000
     atom   28 type  2   force =     0.00032865    0.00161953    0.02104685
     atom   29 type  2   force =    -0.00058126   -0.00062151   -0.02065216
     atom   30 type  1   force =     0.00000000    0.00000000    0.00000000
     atom   31 type  2   force =     0.00072563   -0.00013951    0.02052007
     atom   32 type  2   force =     0.00023281    0.00056678   -0.02117208
     atom   33 type  1   force =     0.00000000    0.00000000    0.00000000
     atom   34 type  2   force =    -0.00807563   -0.00593482    0.00054590
     atom   35 type  2   force =     0.00011947    0.00105806   -0.02119321
     atom   36 type  3   force =     0.01402304    0.01083523    0.01429828
     The Hubbard contrib.    to forces
     atom    1 type  1   force =     0.00000000    0.00000000    0.00000000
     atom    2 type  2   force =     0.00000000    0.00000000    0.00000000
     atom    3 type  2   force =     0.00000000    0.00000000    0.00000000
     atom    4 type  1   force =     0.00000000    0.00000000    0.00000000
     atom    5 type  2   force =     0.00000000    0.00000000    0.00000000
     atom    6 type  2   force =     0.00000000    0.00000000    0.00000000
     atom    7 type  1   force =     0.00000000    0.00000000    0.00000000
     atom    8 type  2   force =     0.00000000    0.00000000    0.00000000
     atom    9 type  2   force =     0.00000000    0.00000000    0.00000000
     atom   10 type  1   force =     0.00000000    0.00000000    0.00000000
     atom   11 type  2   force =     0.00000000    0.00000000    0.00000000
     atom   12 type  2   force =     0.00000000    0.00000000    0.00000000
     atom   13 type  1   force =     0.00000000    0.00000000    0.00000000
     atom   14 type  2   force =     0.00000000    0.00000000    0.00000000
     atom   15 type  2   force =     0.00000000    0.00000000    0.00000000
     atom   16 type  1   force =     0.00000000    0.00000000    0.00000000
     atom   17 type  2   force =     0.00000000    0.00000000    0.00000000
     atom   18 type  2   force =     0.00000000    0.00000000    0.00000000
     atom   19 type  1   force =     0.00000000    0.00000000    0.00000000
     atom   20 type  2   force =     0.00000000    0.00000000    0.00000000
     atom   21 type  1   force =     0.00000000    0.00000000    0.00000000
     atom   22 type  2   force =     0.00000000    0.00000000    0.00000000
     atom   23 type  2   force =     0.00000000    0.00000000    0.00000000
     atom   24 type  1   force =     0.00000000    0.00000000    0.00000000
     atom   25 type  2   force =     0.00000000    0.00000000    0.00000000
     atom   26 type  2   force =     0.00000000    0.00000000    0.00000000
     atom   27 type  1   force =     0.00000000    0.00000000    0.00000000
     atom   28 type  2   force =     0.00000000    0.00000000    0.00000000
     atom   29 type  2   force =     0.00000000    0.00000000    0.00000000
     atom   30 type  1   force =     0.00000000    0.00000000    0.00000000
     atom   31 type  2   force =     0.00000000    0.00000000    0.00000000
     atom   32 type  2   force =     0.00000000    0.00000000    0.00000000
     atom   33 type  1   force =     0.00000000    0.00000000    0.00000000
     atom   34 type  2   force =     0.00000000    0.00000000    0.00000000
     atom   35 type  2   force =     0.00000000    0.00000000    0.00000000
     atom   36 type  3   force =     0.00000000    0.00000000    0.00000000
     The SCF correction term to forces
     atom    1 type  1   force =    -0.00003026    0.00014336    0.00076652
     atom    2 type  2   force =    -0.00001889    0.00006434    0.00011474
     atom    3 type  2   force =     0.00000130    0.00005516    0.00045601
     atom    4 type  1   force =    -0.00009383   -0.00002727    0.00088111
     atom    5 type  2   force =     0.00002454    0.00002981    0.00015691
     atom    6 type  2   force =     0.00003335    0.00001355    0.00047723
     atom    7 type  1   force =    -0.00004917   -0.00012524    0.00079546
     atom    8 type  2   force =    -0.00004505   -0.00006037    0.00011926
     atom    9 type  2   force =    -0.00004205   -0.00001771    0.00049227
     atom   10 type  1   force =     0.00002150   -0.00004956    0.00072257
     atom   11 type  2   force =    -0.00003175   -0.00006231    0.00010547
     atom   12 type  2   force =    -0.00000948   -0.00005243    0.00047747
     atom   13 type  1   force =    -0.00000382    0.00007186    0.00076931
     atom   14 type  2   force =     0.00000955    0.00006887    0.00012513
     atom   15 type  2   force =    -0.00000570    0.00003850    0.00048012
     atom   16 type  1   force =     0.00006065    0.00002354    0.00085630
     atom   17 type  2   force =    -0.00000535    0.00001564    0.00016312
     atom   18 type  2   force =    -0.00001533   -0.00000090    0.00046020
     atom   19 type  1   force =     0.00013019   -0.00007274    0.00079347
     atom   20 type  2   force =     0.00001701    0.00001529    0.00051650
     atom   21 type  1   force =    -0.00001443   -0.00006568    0.00079546
     atom   22 type  2   force =     0.00003128   -0.00003729    0.00009638
     atom   23 type  2   force =     0.00001441   -0.00002922    0.00047312
     atom   24 type  1   force =     0.00001431    0.00014027    0.00072423
     atom   25 type  2   force =     0.00000107    0.00005007    0.00009379
     atom   26 type  2   force =     0.00000064    0.00003924    0.00047598
     atom   27 type  1   force =     0.00001305   -0.00008865    0.00089433
     atom   28 type  2   force =    -0.00001597    0.00001972    0.00013423
     atom   29 type  2   force =    -0.00001146   -0.00000220    0.00048225
     atom   30 type  1   force =    -0.00005929   -0.00003822    0.00083612
     atom   31 type  2   force =     0.00000570   -0.00005763    0.00012305
     atom   32 type  2   force =     0.00001447   -0.00001186    0.00046041
     atom   33 type  1   force =    -0.00002211   -0.00000124    0.00075839
     atom   34 type  2   force =     0.00003666    0.00001741    0.00004380
     atom   35 type  2   force =    -0.00000220   -0.00001918    0.00048601
     atom   36 type  3   force =     0.00004088    0.00003311    0.00011078

     Total force =     0.309777     Total SCF correction =     0.003285

     BFGS Geometry Optimization
     Energy error            =      0.0E+00 Ry
     Gradient error          =      2.2E-01 Ry/Bohr

     number of scf cycles    =   1
     number of bfgs steps    =   0

     energy             new  =   -2246.3016307194 Ry

     new trust radius        =       0.2161370391 bohr
     new conv_thr            =       0.0000010000 Ry


ATOMIC_POSITIONS (angstrom)
Mo            6.5814269091        1.7742850721        2.8265718618
S             8.1680182305        0.8188566776        4.4358264232
S             8.1874152136        0.8156175474        1.2744314851
Mo            8.0974558206        4.4973612877        2.7182074275
S             6.4989291478        3.7190625440        4.3419845623
S             6.5542969051        3.5172101207        1.1215682347
Mo            6.4921884436        7.2098379842        2.6705035827
S             8.0800938216        6.3395975966        4.2498639197
S             8.0873166742        6.3076809196        1.0886401810
Mo            8.1579072271        9.9177281000        2.8408367369
S             6.4956136424        8.9404520540        4.3782295949
S             6.6150453112        9.0474331359        1.1417783145
Mo            3.4229831745        1.7526605128        2.7697389192
S             4.9793920574        0.8168727338        4.3581945903
S             5.0517477276        0.8474813034        1.2215770222
Mo            4.9804049319        4.5199213113        2.6354739459
S             3.4309525082        3.6715439917        4.2807344374
S             3.4364530292        3.5445877127        1.0656335027
Mo            3.4554797230        7.2125312729        2.6272116846
S             4.9851550023        6.3248370230        1.0381333109
Mo            5.0095284105        9.9023960550        2.7411592893
S             3.4747329159        8.9408312782        4.3207586673
S             3.4087372324        9.0668934789        1.1026920525
Mo            0.2925820168        1.7427497220        2.8385892648
S             1.8654674523        0.8136208509        4.3946154172
S             1.8548870908        0.8544586810        1.2079680588
Mo            1.8587857379        4.4959848051        2.6644823746
S             0.2728198954        3.6537469962        4.3352636568
S             0.2322794325        3.5276396302        1.1703326629
Mo            0.2797197156        7.2130574174        2.7068885225
S             1.9045245870        6.3111190597        4.2315729726
S             1.8560052881        6.3139969201        1.0471096082
Mo            1.8553120789        9.9374201631        2.7274307685
S             0.2711731766        9.0575865339        4.3296626671
S             0.2725645489        9.0475948507        1.1591181541
O             1.0557030425        9.7208688447        5.5919776623



     Writing config-only to output data dir ./MoS2-V-O.save/
     NEW-OLD atomic charge density approx. for the potential

     negative rho (up, down):  1.831E-04 0.000E+00

     total cpu time spent up to now is      114.1 secs

     Self-consistent Calculation

     iteration #  1     ecut=    80.00 Ry     beta= 0.70
     Davidson diagonalization with overlap
     ethr =  1.00E-06,  avg # of iterations = 20.0

     negative rho (up, down):  1.940E-03 0.000E+00

     total cpu time spent up to now is      129.7 secs

     total energy              =   -2246.33440725 Ry
     estimated scf accuracy    <       0.01784955 Ry

     iteration #  2     ecut=    80.00 Ry     beta= 0.70
     Davidson diagonalization with overlap
     ethr =  5.72E-06,  avg # of iterations =  4.0

     negative rho (up, down):  3.633E-03 0.000E+00

     total cpu time spent up to now is      145.0 secs

     total energy              =   -2246.33415242 Ry
     estimated scf accuracy    <       0.00685785 Ry

     iteration #  3     ecut=    80.00 Ry     beta= 0.70
     Davidson diagonalization with overlap
     ethr =  2.20E-06,  avg # of iterations =  3.0

     negative rho (up, down):  5.546E-03 0.000E+00

     total cpu time spent up to now is      157.3 secs

     total energy              =   -2246.33433833 Ry
     estimated scf accuracy    <       0.00169169 Ry

     iteration #  4     ecut=    80.00 Ry     beta= 0.70
     Davidson diagonalization with overlap
     ethr =  5.42E-07,  avg # of iterations =  3.0

     negative rho (up, down):  5.970E-03 0.000E+00

     total cpu time spent up to now is      167.9 secs

     total energy              =   -2246.33435492 Ry
     estimated scf accuracy    <       0.00068544 Ry

     iteration #  5     ecut=    80.00 Ry     beta= 0.70
     Davidson diagonalization with overlap
     ethr =  2.20E-07,  avg # of iterations =  4.0

     negative rho (up, down):  5.584E-03 0.000E+00

     total cpu time spent up to now is      178.5 secs

     total energy              =   -2246.33437726 Ry
     estimated scf accuracy    <       0.00012812 Ry

     iteration #  6     ecut=    80.00 Ry     beta= 0.70
     Davidson diagonalization with overlap
     ethr =  4.11E-08,  avg # of iterations =  6.0

     negative rho (up, down):  4.416E-03 0.000E+00

     total cpu time spent up to now is      187.8 secs

     total energy              =   -2246.33437971 Ry
     estimated scf accuracy    <       0.00006053 Ry

     iteration #  7     ecut=    80.00 Ry     beta= 0.70
     Davidson diagonalization with overlap
     ethr =  1.94E-08,  avg # of iterations =  5.0

     negative rho (up, down):  2.903E-03 0.000E+00

     total cpu time spent up to now is      197.9 secs

     total energy              =   -2246.33437499 Ry
     estimated scf accuracy    <       0.00001183 Ry

     iteration #  8     ecut=    80.00 Ry     beta= 0.70
     Davidson diagonalization with overlap
     ethr =  3.79E-09,  avg # of iterations =  3.0

     negative rho (up, down):  1.846E-03 0.000E+00

     total cpu time spent up to now is      208.2 secs

     total energy              =   -2246.33436651 Ry
     estimated scf accuracy    <       0.00000800 Ry

     iteration #  9     ecut=    80.00 Ry     beta= 0.70
     Davidson diagonalization with overlap
     ethr =  2.56E-09,  avg # of iterations =  3.0

     negative rho (up, down):  8.041E-04 0.000E+00

     total cpu time spent up to now is      219.2 secs

     total energy              =   -2246.33436068 Ry
     estimated scf accuracy    <       0.00000136 Ry

     iteration # 10     ecut=    80.00 Ry     beta= 0.70
     Davidson diagonalization with overlap
     ethr =  4.34E-10,  avg # of iterations =  5.0

     negative rho (up, down):  7.540E-04 0.000E+00

     total cpu time spent up to now is      229.7 secs

     total energy              =   -2246.33436047 Ry
     estimated scf accuracy    <       0.00000133 Ry

     iteration # 11     ecut=    80.00 Ry     beta= 0.70
     Davidson diagonalization with overlap
     ethr =  4.26E-10,  avg # of iterations =  3.0

     negative rho (up, down):  1.981E-04 0.000E+00

     total cpu time spent up to now is      232.9 secs

     End of self-consistent calculation

          k = 0.0000 0.0000 0.0000 (105382 PWs)   bands (ev):

   -63.0293 -63.0179 -62.9957 -62.9899 -62.9687 -62.9667 -62.9552 -62.9499
   -62.9403 -62.9319 -62.8795 -62.7809 -37.3763 -37.3216 -37.3006 -37.2963
   -37.2588 -37.2402 -37.2293 -37.2166 -37.2036 -37.1900 -37.1875 -37.1822
   -37.1716 -37.1621 -37.1533 -37.1505 -37.1426 -37.1336 -37.1259 -37.1245
   -37.1136 -37.0992 -37.0893 -37.0815 -37.0636 -37.0554 -37.0430 -37.0343
   -37.0225 -37.0138 -36.9584 -36.9400 -36.9306 -36.9169 -36.8885 -36.8592
   -21.0400 -16.0573 -15.2914 -15.2652 -15.0894 -14.9896 -14.8755 -14.6199
   -14.5898 -14.5717 -14.5313 -14.5173 -14.4567 -14.4023 -14.3497 -14.2642
   -14.2470 -14.2249 -14.1437 -14.0842 -13.9967 -13.9813 -13.9594 -13.8832
    -7.9541  -7.7471  -7.6584  -7.5864  -7.4329  -7.3537  -7.3272  -7.3099
    -7.2528  -6.9928  -6.9573  -6.9092  -6.8664  -6.8068  -6.7698  -6.6600
    -6.6203  -6.5355  -6.4176  -6.3661  -6.1752  -6.0948  -6.0469  -5.9594
    -5.9418  -5.8841  -5.8567  -5.8176  -5.7928  -5.7524  -5.7217  -5.6472
    -5.5914  -5.5660  -5.5210  -5.3807  -5.3390  -5.2669  -5.2365  -5.1434
    -5.0867  -5.0547  -4.9713  -4.8721  -4.7718  -4.6275  -4.4810  -4.4607
    -4.4456  -4.3460  -4.2784  -4.2012  -4.1484  -4.0051  -3.9158  -3.8866
    -3.8503  -3.8214  -3.7486  -3.7236  -3.6455  -3.6381  -3.6150  -3.5725
    -3.5037  -3.4978  -3.4442  -3.3214  -3.0957  -3.0811  -3.0063  -2.9533
    -2.8988  -2.8854  -2.8268  -2.8072  -2.7643  -2.7565  -2.5833  -2.3895
    -2.2349  -2.1376  -2.0458  -1.8908  -0.9654  -0.8762  -0.7374  -0.3111
    -0.2678  -0.1675  -0.1094  -0.0039   0.0364   0.0806   0.1222   0.1644
     0.2373   0.2802   0.2967   0.3455   0.4130   0.4477   0.4676   0.5077
     0.5661   0.6181   0.6543   0.6641   0.7056   0.7488   0.7927   0.8859
     0.9314   0.9612   1.2174

     the Fermi energy is    -1.4281 ev

!    total energy              =   -2246.33435886 Ry
     estimated scf accuracy    <       0.00000044 Ry
     smearing contrib. (-TS)   =      -0.00000011 Ry
     internal energy E=F+TS    =   -2246.33435875 Ry

     The total energy is F=E-TS. E is the sum of the following terms:
     one-electron contribution =  -18432.20544879 Ry
     hartree contribution      =    9203.65762987 Ry
     xc contribution           =    -392.05384233 Ry
     ewald contribution        =    7384.13206585 Ry
     one-center paw contrib.   =      -9.86476335 Ry

     convergence has been achieved in  11 iterations

     negative rho (up, down):  1.981E-04 0.000E+00

     Forces acting on atoms (cartesian axes, Ry/au):

     atom    1 type  1   force =     0.00431306   -0.01257323   -0.00100621
     atom    2 type  2   force =    -0.00915487    0.01324896    0.00335349
     atom    3 type  2   force =    -0.00987817    0.00821059   -0.01094031
     atom    4 type  1   force =     0.00446235    0.00249762    0.00053133
     atom    5 type  2   force =    -0.00037435   -0.00695478   -0.00734424
     atom    6 type  2   force =     0.00131554    0.00711894    0.00303850
     atom    7 type  1   force =     0.00351819   -0.00988417   -0.00040398
     atom    8 type  2   force =    -0.00146952   -0.00791349    0.01284158
     atom    9 type  2   force =     0.01199804    0.00457743    0.00720527
     atom   10 type  1   force =    -0.02023478    0.02214373   -0.01821964
     atom   11 type  2   force =     0.00093703   -0.00335309   -0.00907124
     atom   12 type  2   force =    -0.00355650   -0.00217064    0.00318957
     atom   13 type  1   force =     0.00474292    0.00908471   -0.00705334
     atom   14 type  2   force =     0.00435327   -0.00093726    0.00924699
     atom   15 type  2   force =    -0.00763984    0.00161981   -0.00849399
     atom   16 type  1   force =     0.00076954    0.00784197    0.00349600
     atom   17 type  2   force =     0.00498166    0.00065948    0.00186110
     atom   18 type  2   force =    -0.00201828   -0.00298096    0.01072764
     atom   19 type  1   force =     0.00357163   -0.00631058   -0.00132778
     atom   20 type  2   force =     0.00346933   -0.00381372   -0.00178984
     atom   21 type  1   force =    -0.00227632    0.00043087    0.00014202
     atom   22 type  2   force =    -0.00180878   -0.00106388   -0.01240172
     atom   23 type  2   force =     0.00598054   -0.00115126   -0.00103131
     atom   24 type  1   force =    -0.00499126   -0.00291989   -0.00912993
     atom   25 type  2   force =     0.01654019    0.01285671   -0.01053715
     atom   26 type  2   force =    -0.00739049    0.00519421   -0.01249939
     atom   27 type  1   force =    -0.00077227    0.00099290    0.00631156
     atom   28 type  2   force =     0.00019701   -0.00349047   -0.00454996
     atom   29 type  2   force =     0.00152422    0.00173351   -0.00355645
     atom   30 type  1   force =     0.00280021   -0.01148969    0.00142405
     atom   31 type  2   force =     0.00601384   -0.00326367    0.01523587
     atom   32 type  2   force =    -0.00807688    0.00441098    0.00337630
     atom   33 type  1   force =     0.01728258    0.00381764   -0.02163914
     atom   34 type  2   force =     0.09011496    0.04847421    0.06789831
     atom   35 type  2   force =    -0.01088562    0.00423356    0.00327096
     atom   36 type  3   force =    -0.09835819   -0.07887706   -0.01215490
     The non-local contrib.  to forces
     atom    1 type  1   force =    -0.00181020    0.03092924   -0.01050671
     atom    2 type  2   force =    -0.00940726   -0.00277232   -0.27454919
     atom    3 type  2   force =    -0.01372855   -0.00358831    0.26175742
     atom    4 type  1   force =     0.00022305    0.00045052    0.00649131
     atom    5 type  2   force =     0.00703810   -0.03436103   -0.25661597
     atom    6 type  2   force =    -0.00256172    0.00934995    0.26407666
     atom    7 type  1   force =    -0.02978948   -0.00210140   -0.02437144
     atom    8 type  2   force =     0.00646455   -0.00342128   -0.25836728
     atom    9 type  2   force =     0.00705925   -0.01056571    0.27768964
     atom   10 type  1   force =     0.00918872   -0.01364940    0.00584548
     atom   11 type  2   force =     0.01487686    0.00463998   -0.26608992
     atom   12 type  2   force =    -0.01339130   -0.01833075    0.26194563
     atom   13 type  1   force =    -0.00473939    0.01286440   -0.00176945
     atom   14 type  2   force =     0.01046258   -0.00980427   -0.26698868
     atom   15 type  2   force =    -0.00840373   -0.01056169    0.26114146
     atom   16 type  1   force =     0.00170747    0.02632793   -0.03003336
     atom   17 type  2   force =     0.00031243   -0.02589922   -0.25243546
     atom   18 type  2   force =    -0.00339095    0.00211514    0.27184200
     atom   19 type  1   force =     0.01213631    0.00278061   -0.01609369
     atom   20 type  2   force =     0.00042634   -0.01938341    0.26553644
     atom   21 type  1   force =    -0.00478932    0.02842127    0.01117660
     atom   22 type  2   force =     0.02044475   -0.00266328   -0.26829920
     atom   23 type  2   force =     0.00959245   -0.02123037    0.26041416
     atom   24 type  1   force =     0.01263486    0.01513739   -0.01023164
     atom   25 type  2   force =    -0.00289026    0.01272487   -0.26224943
     atom   26 type  2   force =    -0.00184324   -0.00954491    0.25819739
     atom   27 type  1   force =     0.00017929    0.00308771    0.00831310
     atom   28 type  2   force =    -0.00549737   -0.02255564   -0.27822290
     atom   29 type  2   force =     0.00629525    0.00105329    0.26611190
     atom   30 type  1   force =    -0.00598102    0.02613120   -0.00201603
     atom   31 type  2   force =    -0.00896364    0.00255684   -0.25696458
     atom   32 type  2   force =    -0.00581689   -0.01110735    0.27470372
     atom   33 type  1   force =    -0.01260248    0.00086949    0.03226306
     atom   34 type  2   force =     0.23107571    0.15334566    0.27923673
     atom   35 type  2   force =    -0.00545397   -0.01427823    0.26766982
     atom   36 type  3   force =    -1.02810615   -0.81684563   -1.37740814
     The ionic contribution  to forces
     atom    1 type  1   force =    -0.21088246    1.19300331    4.61546260
     atom    2 type  2   force =    -1.49664322    1.36869075   38.79643907
     atom    3 type  2   force =    -0.36128055    0.24473831  -37.00068258
     atom    4 type  1   force =    -0.23736487    0.35136696   -0.31180353
     atom    5 type  2   force =    -1.04586265    1.55313701   38.46421280
     atom    6 type  2   force =     0.27152924   -0.49794804  -38.39882930
     atom    7 type  1   force =    -2.84927731   -3.11978711    1.28091492
     atom    8 type  2   force =    -1.39401374   -0.53434450   37.12939035
     atom    9 type  2   force =     0.25416200   -0.16870873  -38.55377366
     atom   10 type  1   force =    -3.04404918   -0.23586021    2.69128846
     atom   11 type  2   force =    -1.00377122   -1.83385662   38.65771772
     atom   12 type  2   force =     0.36683359    0.57254571  -38.45071371
     atom   13 type  1   force =     1.23012665    1.87677524    1.15964555
     atom   14 type  2   force =     0.27396941    0.39987726   38.24115266
     atom   15 type  2   force =     0.27653735    0.13031457  -37.43710800
     atom   16 type  1   force =     0.13886311    3.65038171   -0.28751528
     atom   17 type  2   force =     1.00539721    1.62874411   37.71144326
     atom   18 type  2   force =    -0.06653948   -0.50020323  -39.00314603
     atom   19 type  1   force =     3.50570003   -3.41497781   -1.14356010
     atom   20 type  2   force =     0.27309543   -0.31504893  -39.05769915
     atom   21 type  1   force =     0.69745631    0.12232577   -0.38052922
     atom   22 type  2   force =     2.08451630   -2.24642886   37.28275939
     atom   23 type  2   force =     0.31161534    0.44428043  -39.19266103
     atom   24 type  1   force =    -0.78269247    2.68012732    3.54362854
     atom   25 type  2   force =     1.51353889    2.45608791   37.58556343
     atom   26 type  2   force =    -0.16182448    0.51038484  -38.25587269
     atom   27 type  1   force =     0.21061380    0.21651672   -3.17389019
     atom   28 type  2   force =    -0.05758114    1.15989796   37.91539361
     atom   29 type  2   force =    -0.29731099   -0.29177355  -37.82878195
     atom   30 type  1   force =    -0.97193603   -2.73348743   -2.31334850
     atom   31 type  2   force =     1.55049810   -1.02122627   36.95245389
     atom   32 type  2   force =    -0.40349585   -0.27877024  -39.31022003
     atom   33 type  1   force =     1.98481117   -0.14683648   -4.57052994
     atom   34 type  2   force =    -3.03311841   -4.18709585   32.74846792
     atom   35 type  2   force =    -0.62362106    0.22034279  -38.85600463
     atom   36 type  3   force =     2.09200115    0.74681520   48.75073537
     The local contribution  to forces
     atom    1 type  1   force =     0.21709485   -1.23634953   -4.60675615
     atom    2 type  2   force =     1.49649414   -1.35277131  -38.53991061
     atom    3 type  2   force =     0.36452975   -0.23300695   36.74827424
     atom    4 type  1   force =     0.24158954   -0.34939588    0.30504070
     atom    5 type  2   force =     1.03910298   -1.52754493  -38.23559824
     atom    6 type  2   force =    -0.26794790    0.49682615   38.15828477
     atom    7 type  1   force =     2.88252730    3.11171847   -1.25778288
     atom    8 type  2   force =     1.38636999    0.52935504  -36.87892544
     atom    9 type  2   force =    -0.24914930    0.18318680   38.30402374
     atom   10 type  1   force =     3.01471970    0.27177498   -2.71607263
     atom   11 type  2   force =     0.99064683    1.82630276  -38.42174655
     atom   12 type  2   force =    -0.35819114   -0.55783349   38.21234321
     atom   13 type  1   force =    -1.22066531   -1.88035005   -1.16578081
     atom   14 type  2   force =    -0.27941606   -0.39096212  -37.98585143
     atom   15 type  2   force =    -0.27627540   -0.11870290   37.18765521
     atom   16 type  1   force =    -0.13979234   -3.66886515    0.32023526
     atom   17 type  2   force =    -1.00079082   -1.60346811  -37.47767109
     atom   18 type  2   force =     0.06788236    0.49587020   38.76270088
     atom   19 type  1   force =    -3.51424759    3.40570769    1.15748189
     atom   20 type  2   force =    -0.27015168    0.32979110   38.81126448
     atom   21 type  1   force =    -0.69499996   -0.15024343    0.36859728
     atom   22 type  2   force =    -2.10515359    2.24788974  -37.04841095
     atom   23 type  2   force =    -0.31471280   -0.42569268   38.95156322
     atom   24 type  1   force =     0.76500248   -2.69805231   -3.54332618
     atom   25 type  2   force =    -1.49429822   -2.45414143  -37.35527380
     atom   26 type  2   force =     0.15644810   -0.49623259   38.00549864
     atom   27 type  1   force =    -0.21156244   -0.21869440    3.17108849
     atom   28 type  2   force =     0.06292174   -1.14240874  -37.66303449
     atom   29 type  2   force =     0.29305295    0.29303749   37.57947226
     atom   30 type  1   force =     0.98075603    2.69576670    2.31605616
     atom   31 type  2   force =    -1.53620800    1.01539509  -36.70115144
     atom   32 type  2   force =     0.40121325    0.29364982   39.05965781
     atom   33 type  1   force =    -1.95495082    0.14978691    4.51580925
     atom   34 type  2   force =     2.90507049    4.09193280  -32.95109315
     atom   35 type  2   force =     0.61833008   -0.20283893   38.61228009
     atom   36 type  3   force =    -1.17413667   -0.01830014  -47.40040805
     The core correction contribution to forces
     atom    1 type  1   force =     0.00000000    0.00000000    0.00000000
     atom    2 type  2   force =     0.00042277    0.00014806    0.02123753
     atom    3 type  2   force =     0.00059693    0.00012745   -0.02062983
     atom    4 type  1   force =     0.00000000    0.00000000    0.00000000
     atom    5 type  2   force =    -0.00065555    0.00183006    0.02054611
     atom    6 type  2   force =     0.00029658   -0.00108714   -0.02084780
     atom    7 type  1   force =     0.00000000    0.00000000    0.00000000
     atom    8 type  2   force =    -0.00028710    0.00042813    0.02061526
     atom    9 type  2   force =    -0.00008735    0.00058845   -0.02110089
     atom   10 type  1   force =     0.00000000    0.00000000    0.00000000
     atom   11 type  2   force =    -0.00078210   -0.00046394    0.02094357
     atom   12 type  2   force =     0.00118782    0.00143697   -0.02078212
     atom   13 type  1   force =     0.00000000    0.00000000    0.00000000
     atom   14 type  2   force =    -0.00066423    0.00004400    0.02082472
     atom   15 type  2   force =     0.00049184    0.00063419   -0.02056528
     atom   16 type  1   force =     0.00000000    0.00000000    0.00000000
     atom   17 type  2   force =     0.00006984    0.00129639    0.02039686
     atom   18 type  2   force =     0.00003396   -0.00074837   -0.02100863
     atom   19 type  1   force =     0.00000000    0.00000000    0.00000000
     atom   20 type  2   force =     0.00010690    0.00076001   -0.02124618
     atom   21 type  1   force =     0.00000000    0.00000000    0.00000000
     atom   22 type  2   force =    -0.00166363    0.00010210    0.02139405
     atom   23 type  2   force =    -0.00053346    0.00149524   -0.02070899
     atom   24 type  1   force =     0.00000000    0.00000000    0.00000000
     atom   25 type  2   force =     0.00016227   -0.00176309    0.02125618
     atom   26 type  2   force =    -0.00016213    0.00062972   -0.02067268
     atom   27 type  1   force =     0.00000000    0.00000000    0.00000000
     atom   28 type  2   force =     0.00034180    0.00158406    0.02118228
     atom   29 type  2   force =    -0.00052342   -0.00057046   -0.02069833
     atom   30 type  1   force =     0.00000000    0.00000000    0.00000000
     atom   31 type  2   force =     0.00067561   -0.00003634    0.02075968
     atom   32 type  2   force =     0.00002572    0.00058037   -0.02112183
     atom   33 type  1   force =     0.00000000    0.00000000    0.00000000
     atom   34 type  2   force =    -0.01289027   -0.00970111   -0.00877406
     atom   35 type  2   force =    -0.00012696    0.00099986   -0.02103035
     atom   36 type  3   force =     0.01160446    0.00923342    0.01479034
     The Hubbard contrib.    to forces
     atom    1 type  1   force =     0.00000000    0.00000000    0.00000000
     atom    2 type  2   force =     0.00000000    0.00000000    0.00000000
     atom    3 type  2   force =     0.00000000    0.00000000    0.00000000
     atom    4 type  1   force =     0.00000000    0.00000000    0.00000000
     atom    5 type  2   force =     0.00000000    0.00000000    0.00000000
     atom    6 type  2   force =     0.00000000    0.00000000    0.00000000
     atom    7 type  1   force =     0.00000000    0.00000000    0.00000000
     atom    8 type  2   force =     0.00000000    0.00000000    0.00000000
     atom    9 type  2   force =     0.00000000    0.00000000    0.00000000
     atom   10 type  1   force =     0.00000000    0.00000000    0.00000000
     atom   11 type  2   force =     0.00000000    0.00000000    0.00000000
     atom   12 type  2   force =     0.00000000    0.00000000    0.00000000
     atom   13 type  1   force =     0.00000000    0.00000000    0.00000000
     atom   14 type  2   force =     0.00000000    0.00000000    0.00000000
     atom   15 type  2   force =     0.00000000    0.00000000    0.00000000
     atom   16 type  1   force =     0.00000000    0.00000000    0.00000000
     atom   17 type  2   force =     0.00000000    0.00000000    0.00000000
     atom   18 type  2   force =     0.00000000    0.00000000    0.00000000
     atom   19 type  1   force =     0.00000000    0.00000000    0.00000000
     atom   20 type  2   force =     0.00000000    0.00000000    0.00000000
     atom   21 type  1   force =     0.00000000    0.00000000    0.00000000
     atom   22 type  2   force =     0.00000000    0.00000000    0.00000000
     atom   23 type  2   force =     0.00000000    0.00000000    0.00000000
     atom   24 type  1   force =     0.00000000    0.00000000    0.00000000
     atom   25 type  2   force =     0.00000000    0.00000000    0.00000000
     atom   26 type  2   force =     0.00000000    0.00000000    0.00000000
     atom   27 type  1   force =     0.00000000    0.00000000    0.00000000
     atom   28 type  2   force =     0.00000000    0.00000000    0.00000000
     atom   29 type  2   force =     0.00000000    0.00000000    0.00000000
     atom   30 type  1   force =     0.00000000    0.00000000    0.00000000
     atom   31 type  2   force =     0.00000000    0.00000000    0.00000000
     atom   32 type  2   force =     0.00000000    0.00000000    0.00000000
     atom   33 type  1   force =     0.00000000    0.00000000    0.00000000
     atom   34 type  2   force =     0.00000000    0.00000000    0.00000000
     atom   35 type  2   force =     0.00000000    0.00000000    0.00000000
     atom   36 type  3   force =     0.00000000    0.00000000    0.00000000
     The SCF correction term to forces
     atom    1 type  1   force =    -0.00009197   -0.00015771    0.00077513
     atom    2 type  2   force =    -0.00002414   -0.00004769    0.00011778
     atom    3 type  2   force =     0.00000141   -0.00006138    0.00032153
     atom    4 type  1   force =     0.00001180    0.00007455    0.00078394
     atom    5 type  2   force =    -0.00000006   -0.00001737    0.00009214
     atom    6 type  2   force =    -0.00000351   -0.00002345    0.00033525
     atom    7 type  1   force =     0.00005483    0.00028439    0.00081651
     atom    8 type  2   force =    -0.00000606    0.00006766    0.00010979
     atom    9 type  2   force =     0.00001060    0.00007514    0.00034753
     atom   10 type  1   force =    -0.00009685   -0.00012312    0.00070014
     atom   11 type  2   force =    -0.00003618    0.00002325    0.00008503
     atom   12 type  2   force =     0.00000168    0.00000945    0.00037764
     atom   13 type  1   force =     0.00001812   -0.00020635    0.00083244
     atom   14 type  2   force =    -0.00000128   -0.00009362    0.00009081
     atom   15 type  2   force =     0.00000726   -0.00006583    0.00036370
     atom   16 type  1   force =    -0.00001154   -0.00000399    0.00079047
     atom   17 type  2   force =    -0.00000985   -0.00001516    0.00010861
     atom   18 type  2   force =    -0.00000701   -0.00001618    0.00032050
     atom   19 type  1   force =    -0.00001996    0.00017745    0.00082519
     atom   20 type  2   force =    -0.00001050    0.00006604    0.00033566
     atom   21 type  1   force =     0.00005381   -0.00007421    0.00087844
     atom   22 type  2   force =     0.00004453    0.00003494    0.00013609
     atom   23 type  2   force =     0.00001618   -0.00000536    0.00034242
     atom   24 type  1   force =     0.00006102   -0.00013377    0.00078044
     atom   25 type  2   force =     0.00002467   -0.00005302    0.00014754
     atom   26 type  2   force =    -0.00001158   -0.00004432    0.00033104
     atom   27 type  1   force =    -0.00000576    0.00008140    0.00078124
     atom   28 type  2   force =     0.00000913   -0.00000958    0.00011262
     atom   29 type  2   force =     0.00000759   -0.00001474    0.00032076
     atom   30 type  1   force =    -0.00004161    0.00009836    0.00071351
     atom   31 type  2   force =     0.00000892    0.00004553    0.00011940
     atom   32 type  2   force =    -0.00000595    0.00005691    0.00033771
     atom   33 type  1   force =     0.00002188   -0.00000376    0.00079957
     atom   34 type  2   force =    -0.00002542   -0.00000877    0.00004195
     atom   35 type  2   force =    -0.00001655    0.00000659    0.00033712
     atom   36 type  3   force =     0.00027618    0.00021861    0.00011667

     Total force =     0.193160     Total SCF correction =     0.003080
     Energy error            =      3.3E-02 Ry
     Gradient error          =      9.8E-02 Ry/Bohr

     number of scf cycles    =   2
     number of bfgs steps    =   1

     energy             old  =   -2246.3016307194 Ry
     energy             new  =   -2246.3343588582 Ry

     CASE: energy            _new < energy            _old

     new trust radius        =       0.1168883118 bohr
     new conv_thr            =       0.0000000984 Ry


ATOMIC_POSITIONS (angstrom)
Mo            6.5853383818        1.7647065558        2.8269255485
S             8.1613661856        0.8275269064        4.4377336914
S             8.1812318775        0.8206285896        1.2684188109
Mo            8.1001555360        4.4991574462        2.7185612737
S             6.4984826583        3.7149178135        4.3372894401
S             6.5551685029        3.5220237270        1.1230508304
Mo            6.4944282981        7.2028750327        2.6699314793
S             8.0789593441        6.3347522610        4.2578573013
S             8.0946405695        6.3106251552        1.0932994092
Mo            8.1478122087        9.9322890598        2.8316958710
S             6.4961706274        8.9382135319        4.3726817095
S             6.6125936246        9.0460745009        1.1437727526
Mo            3.4255415128        1.7584460745        2.7646037582
S             4.9825814042        0.8164210978        4.3646015787
S             5.0465224036        0.8485693046        1.2162381207
Mo            4.9809411009        4.5254234873        2.6378104355
S             3.4341202141        3.6718327645        4.2818795058
S             3.4351117827        3.5421951898        1.0726177148
Mo            3.4575798008        7.2085597173        2.6256311446
S             4.9872924515        6.3224919294        1.0375530288
Mo            5.0077139510        9.9028172100        2.7405987331
S             3.4749525213        8.9395247870        4.3136859800
S             3.4115830767        9.0668938549        1.1040661418
Mo            0.2892988256        1.7400728935        2.8313442330
S             1.8772910770        0.8253985760        4.3887491021
S             1.8498251751        0.8568647723        1.2017998712
Mo            1.8578971411        4.4965318228        2.6685917175
S             0.2730800745        3.6519542171        4.3325159211
S             0.2332755722        3.5285486217        1.1682208110
Mo            0.2834048143        7.2067530336        2.7089958090
S             1.9079383255        6.3091438365        4.2411534418
S             1.8505372588        6.3170527334        1.0493799496
Mo            1.8663499798        9.9384224551        2.7047327144
S             0.3058481950        9.0709032085        4.3374764825
S             0.2663662661        9.0506849846        1.1630623257
O             1.0116973839        9.6862270358        5.6182348981



     Writing config-only to output data dir ./MoS2-V-O.save/
     NEW-OLD atomic charge density approx. for the potential

     negative rho (up, down):  1.568E-04 0.000E+00

     total cpu time spent up to now is      239.8 secs

     Self-consistent Calculation

     iteration #  1     ecut=    80.00 Ry     beta= 0.70
     Davidson diagonalization with overlap
     ethr =  1.00E-06,  avg # of iterations =  8.0

     negative rho (up, down):  1.347E-04 0.000E+00

     total cpu time spent up to now is      251.4 secs

     total energy              =   -2246.35870419 Ry
     estimated scf accuracy    <       0.00323436 Ry

     iteration #  2     ecut=    80.00 Ry     beta= 0.70
     Davidson diagonalization with overlap
     ethr =  1.04E-06,  avg # of iterations =  5.0

     negative rho (up, down):  1.459E-04 0.000E+00

     total cpu time spent up to now is      269.0 secs

     total energy              =   -2246.35922539 Ry
     estimated scf accuracy    <       0.00161995 Ry

     iteration #  3     ecut=    80.00 Ry     beta= 0.70
     Davidson diagonalization with overlap
     ethr =  5.19E-07,  avg # of iterations =  3.0

     negative rho (up, down):  1.283E-04 0.000E+00

     total cpu time spent up to now is      285.2 secs

     total energy              =   -2246.35927570 Ry
     estimated scf accuracy    <       0.00025500 Ry

     iteration #  4     ecut=    80.00 Ry     beta= 0.70
     Davidson diagonalization with overlap
     ethr =  8.17E-08,  avg # of iterations =  5.0

     negative rho (up, down):  1.308E-04 0.000E+00

     total cpu time spent up to now is      296.2 secs

     total energy              =   -2246.35931381 Ry
     estimated scf accuracy    <       0.00002282 Ry

     iteration #  5     ecut=    80.00 Ry     beta= 0.70
     Davidson diagonalization with overlap
     ethr =  7.31E-09,  avg # of iterations =  5.0

     negative rho (up, down):  1.382E-04 0.000E+00

     total cpu time spent up to now is      311.9 secs

     total energy              =   -2246.35931880 Ry
     estimated scf accuracy    <       0.00000289 Ry

     iteration #  6     ecut=    80.00 Ry     beta= 0.70
     Davidson diagonalization with overlap
     ethr =  9.26E-10,  avg # of iterations =  5.0

     negative rho (up, down):  1.485E-04 0.000E+00

     total cpu time spent up to now is      323.3 secs

     total energy              =   -2246.35931929 Ry
     estimated scf accuracy    <       0.00000127 Ry

     iteration #  7     ecut=    80.00 Ry     beta= 0.70
     Davidson diagonalization with overlap
     ethr =  4.08E-10,  avg # of iterations =  2.0

     negative rho (up, down):  1.558E-04 0.000E+00

     total cpu time spent up to now is      336.8 secs

     total energy              =   -2246.35931940 Ry
     estimated scf accuracy    <       0.00000021 Ry

     iteration #  8     ecut=    80.00 Ry     beta= 0.70
     Davidson diagonalization with overlap
     ethr =  6.85E-11,  avg # of iterations =  5.0

     negative rho (up, down):  1.968E-04 0.000E+00

     total cpu time spent up to now is      340.3 secs

     End of self-consistent calculation

          k = 0.0000 0.0000 0.0000 (105382 PWs)   bands (ev):

   -63.0309 -63.0198 -62.9990 -62.9834 -62.9687 -62.9638 -62.9501 -62.9488
   -62.9404 -62.9324 -62.8936 -62.7729 -37.3767 -37.3203 -37.2973 -37.2956
   -37.2591 -37.2390 -37.2235 -37.2158 -37.2007 -37.1895 -37.1872 -37.1854
   -37.1655 -37.1614 -37.1510 -37.1475 -37.1411 -37.1302 -37.1251 -37.1246
   -37.1144 -37.0999 -37.0881 -37.0838 -37.0746 -37.0545 -37.0430 -37.0378
   -37.0251 -37.0125 -36.9551 -36.9344 -36.9336 -36.9183 -36.8899 -36.8598
   -21.4639 -16.0604 -15.2929 -15.2618 -15.0903 -14.9885 -14.8765 -14.6185
   -14.5906 -14.5551 -14.5369 -14.5151 -14.4556 -14.4104 -14.3526 -14.2591
   -14.2404 -14.2319 -14.1425 -14.0823 -14.0018 -13.9703 -13.9167 -13.8628
    -7.9612  -7.7510  -7.6511  -7.5919  -7.4450  -7.3653  -7.3308  -7.3263
    -7.2603  -7.0125  -6.9627  -6.9199  -6.8774  -6.8073  -6.7895  -6.6603
    -6.6232  -6.5320  -6.4289  -6.3720  -6.1898  -6.1047  -6.0403  -5.9640
    -5.9414  -5.8815  -5.8649  -5.8198  -5.7991  -5.7539  -5.7299  -5.6459
    -5.5918  -5.5678  -5.5166  -5.3829  -5.3392  -5.2733  -5.2353  -5.1396
    -5.0931  -5.0671  -4.9801  -4.8667  -4.7728  -4.6255  -4.4842  -4.4704
    -4.4554  -4.3565  -4.2877  -4.2168  -4.1731  -4.0192  -3.9277  -3.8925
    -3.8449  -3.8105  -3.7527  -3.7340  -3.6572  -3.6338  -3.6170  -3.5728
    -3.5065  -3.4957  -3.4507  -3.3335  -3.1138  -3.0643  -3.0044  -2.9531
    -2.9049  -2.8700  -2.8340  -2.8111  -2.7697  -2.7539  -2.6054  -2.3997
    -2.2979  -2.1380  -2.0694  -1.9795  -0.9531  -0.8855  -0.6699  -0.3119
    -0.2694  -0.1656  -0.1141  -0.0089   0.0305   0.1028   0.1289   0.1780
     0.2420   0.2776   0.3079   0.3441   0.4077   0.4497   0.4704   0.5159
     0.5669   0.6109   0.6484   0.6676   0.7067   0.7591   0.7980   0.8811
     0.9243   0.9431   1.2469

     the Fermi energy is    -1.4664 ev

!    total energy              =   -2246.35931936 Ry
     estimated scf accuracy    <       0.00000004 Ry
     smearing contrib. (-TS)   =      -0.00000001 Ry
     internal energy E=F+TS    =   -2246.35931935 Ry

     The total energy is F=E-TS. E is the sum of the following terms:
     one-electron contribution =  -18426.92176907 Ry
     hartree contribution      =    9201.00936369 Ry
     xc contribution           =    -392.07423984 Ry
     ewald contribution        =    7381.49004629 Ry
     one-center paw contrib.   =      -9.86272042 Ry

     convergence has been achieved in   8 iterations

     negative rho (up, down):  1.968E-04 0.000E+00

     Forces acting on atoms (cartesian axes, Ry/au):

     atom    1 type  1   force =    -0.00135817   -0.00361602   -0.00445206
     atom    2 type  2   force =    -0.00527864    0.00963409    0.00233238
     atom    3 type  2   force =    -0.00895607    0.00795371   -0.01318800
     atom    4 type  1   force =     0.00367697    0.00064354    0.00075311
     atom    5 type  2   force =     0.00066490   -0.00667556   -0.00596188
     atom    6 type  2   force =     0.00079547    0.00490283    0.00408627
     atom    7 type  1   force =     0.00432349   -0.00546994    0.00137616
     atom    8 type  2   force =     0.00036338   -0.00569947    0.01045635
     atom    9 type  2   force =     0.01058433    0.00335043    0.00508448
     atom   10 type  1   force =    -0.00608615    0.00875361   -0.00335600
     atom   11 type  2   force =     0.00249002   -0.00193912   -0.00890640
     atom   12 type  2   force =    -0.00346455   -0.00232356    0.00096162
     atom   13 type  1   force =     0.00509004    0.00355031   -0.00292420
     atom   14 type  2   force =     0.00201196   -0.00099852    0.00466098
     atom   15 type  2   force =    -0.00511221    0.00109476   -0.00674818
     atom   16 type  1   force =     0.00022975    0.00427653    0.00276597
     atom   17 type  2   force =     0.00465564    0.00130029    0.00182605
     atom   18 type  2   force =    -0.00122295    0.00084297    0.00780283
     atom   19 type  1   force =     0.00182806   -0.00614058    0.00049735
     atom   20 type  2   force =     0.00316082   -0.00327789   -0.00363711
     atom   21 type  1   force =    -0.00162339    0.00087117    0.00161458
     atom   22 type  2   force =    -0.00399213    0.00048858   -0.01164647
     atom   23 type  2   force =     0.00976837   -0.00509794   -0.00859700
     atom   24 type  1   force =    -0.00462691    0.00048203   -0.00408194
     atom   25 type  2   force =     0.01194330    0.00695444   -0.01281966
     atom   26 type  2   force =    -0.00423615    0.00803267   -0.01547703
     atom   27 type  1   force =     0.00104634    0.00111465    0.00503313
     atom   28 type  2   force =    -0.00039743   -0.00454661   -0.00408470
     atom   29 type  2   force =     0.00144166    0.00224160   -0.00313263
     atom   30 type  1   force =    -0.00133179   -0.00378563    0.00827311
     atom   31 type  2   force =     0.00619156   -0.00309808    0.01179997
     atom   32 type  2   force =    -0.00534185    0.00231824    0.00295845
     atom   33 type  1   force =     0.00979358    0.00670431    0.00340691
     atom   34 type  2   force =     0.06571855    0.04357581    0.03603698
     atom   35 type  2   force =    -0.01087509    0.00178759    0.00170439
     atom   36 type  3   force =    -0.08187471   -0.06820526   -0.00441780
     The non-local contrib.  to forces
     atom    1 type  1   force =    -0.00063112    0.02757813   -0.01070095
     atom    2 type  2   force =    -0.00653458   -0.00402571   -0.27298188
     atom    3 type  2   force =    -0.01198278   -0.00428190    0.25900137
     atom    4 type  1   force =     0.00071245    0.00148904    0.00605333
     atom    5 type  2   force =     0.00772621   -0.03442608   -0.25658479
     atom    6 type  2   force =    -0.00266502    0.00712169    0.26586854
     atom    7 type  1   force =    -0.02788114   -0.00187669   -0.02478855
     atom    8 type  2   force =     0.00869472   -0.00085159   -0.25958798
     atom    9 type  2   force =     0.00541597   -0.01168454    0.27631035
     atom   10 type  1   force =     0.00789391   -0.01048357    0.00722609
     atom   11 type  2   force =     0.01490210    0.00548728   -0.26649473
     atom   12 type  2   force =    -0.01319599   -0.01884455    0.26131282
     atom   13 type  1   force =    -0.00310819    0.01608123   -0.00278924
     atom   14 type  2   force =     0.00822141   -0.01003032   -0.26994558
     atom   15 type  2   force =    -0.00713526   -0.01126435    0.26201371
     atom   16 type  1   force =     0.00089209    0.02775036   -0.03159259
     atom   17 type  2   force =    -0.00002548   -0.02495005   -0.25293753
     atom   18 type  2   force =    -0.00260209    0.00481870    0.27013874
     atom   19 type  1   force =     0.01207141    0.00372622   -0.01663549
     atom   20 type  2   force =     0.00017718   -0.01802800    0.26390098
     atom   21 type  1   force =    -0.00477416    0.02914471    0.01058018
     atom   22 type  2   force =     0.01714151   -0.00044685   -0.26869139
     atom   23 type  2   force =     0.01232470   -0.02361688    0.25559968
     atom   24 type  1   force =     0.01027319    0.01310137   -0.00945632
     atom   25 type  2   force =    -0.00178062    0.01249024   -0.27030021
     atom   26 type  2   force =     0.00132554   -0.00753883    0.25681060
     atom   27 type  1   force =    -0.00038300    0.00273330    0.00753195
[...]
     atom   28 type  2   force =    -0.00128391   -0.01152076   -0.27750411
     atom   29 type  2   force =     0.00088337   -0.00993333    0.27017243
     atom   30 type  1   force =     0.00029598    0.03007304    0.01709680
     atom   31 type  2   force =    -0.00961537    0.00406769   -0.27090743
     atom   32 type  2   force =     0.00603443   -0.01340068    0.26842800
     atom   33 type  1   force =    -0.01094543   -0.00163889    0.02107758
     atom   34 type  2   force =     0.00183274   -0.00469131    0.29467288
     atom   35 type  2   force =     0.00059534   -0.01174855    0.27622201
     atom   36 type  3   force =    -0.01077773    0.00573622   -2.31949959
     The ionic contribution  to forces
     atom    1 type  1   force =    -0.54036756    1.26635622    0.99441898
     atom    2 type  2   force =    -0.72981978    1.12473095   38.18848547
     atom    3 type  2   force =     0.05389994    0.14460609  -38.39587058
     atom    4 type  1   force =    -0.38770464   -0.19351955    0.46702062
     atom    5 type  2   force =    -0.96512194    1.06638798   38.24419028
     atom    6 type  2   force =     0.18309670   -0.25433389  -38.39098049
     atom    7 type  1   force =    -3.29881128   -2.51735090    1.92720387
     atom    8 type  2   force =    -1.79204009   -0.80635107   37.84966981
     atom    9 type  2   force =     0.21300084   -0.10711394  -38.50692966
     atom   10 type  1   force =    -1.38373583    0.18466026   -1.39674789
     atom   11 type  2   force =    -1.45478687   -1.42168193   37.83846943
     atom   12 type  2   force =     0.15762764    0.15233830  -38.70773853
     atom   13 type  1   force =     0.53821462    1.22538627    0.70255297
     atom   14 type  2   force =    -0.02737952    0.28651623   38.11604708
     atom   15 type  2   force =     0.01602385    0.03255765  -38.16512159
     atom   16 type  1   force =     0.00915282    3.30628740    1.49616598
     atom   17 type  2   force =     0.94888591    1.04803033   38.15976815
     atom   18 type  2   force =    -0.13879588   -0.25403657  -38.48448345
     atom   19 type  1   force =     3.28189039   -2.49820319    1.44910328
     atom   20 type  2   force =     0.04055385   -0.14096827  -38.87110651
     atom   21 type  1   force =    -0.01619198    0.00503413   -0.75620266
     atom   22 type  2   force =     1.41920436   -1.42597373   37.78878877
     atom   23 type  2   force =    -0.13031084    0.19903059  -38.82394717
     atom   24 type  1   force =     0.00366582    1.39944833    0.83253332
     atom   25 type  2   force =     0.74879672    1.10420718   38.13078789
     atom   26 type  2   force =    -0.06503058    0.14208474  -38.45895728
     atom   27 type  1   force =     0.34447284   -0.18662476   -0.22228774
     atom   28 type  2   force =     0.02412788    0.40896761   37.92241759
     atom   29 type  2   force =    -0.03192136   -0.03471712  -37.90791963
     atom   30 type  1   force =    -0.01527415   -1.82272803   -1.44626177
     atom   31 type  2   force =     1.81857236   -0.80684094   37.75281008
     atom   32 type  2   force =    -0.24868406   -0.11050481  -38.64181686
     atom   33 type  1   force =     1.42762795    0.21624087   -1.67822283
     atom   34 type  2   force =    -0.01320389   -0.42718534   28.67342286
     atom   35 type  2   force =    -0.03418452    0.04804355  -38.14596227
     atom   36 type  3   force =     0.04455027   -0.35278062   50.46670050
     The local contribution  to forces
     atom    1 type  1   force =     0.54357190   -1.28984181   -0.99033156
     atom    2 type  2   force =     0.72979371   -1.11379549  -37.93808852
     atom    3 type  2   force =    -0.05084515   -0.13459530   38.15155247
     atom    4 type  1   force =     0.38636962    0.18993135   -0.46960635
     atom    5 type  2   force =     0.96025631   -1.04553568  -38.00856861
     atom    6 type  2   force =    -0.18251160    0.25856389   38.14628960
     atom    7 type  1   force =     3.31341298    2.51250157   -1.90463273
     atom    8 type  2   force =     1.78352425    0.80242142  -37.59996153
     atom    9 type  2   force =    -0.20758021    0.11936485   38.25878005
     atom   10 type  1   force =     1.37303547   -0.18386271    1.37651610
     atom   11 type  2   force =     1.45028062    1.41993279  -37.59507916
     atom   12 type  2   force =    -0.14957471   -0.14058200   38.46578629
     atom   13 type  1   force =    -0.54127453   -1.24870986   -0.69858632
     atom   14 type  2   force =     0.02683174   -0.27617799  -37.86395413
     atom   15 type  2   force =    -0.01582492   -0.02092639   37.92174984
     atom   16 type  1   force =    -0.00853157   -3.34026838   -1.46053704
     atom   17 type  2   force =    -0.94453047   -1.02664177  -37.92404998
     atom   18 type  2   force =     0.13900088    0.25812759   38.23977465
     atom   19 type  1   force =    -3.29704155    2.49277308   -1.42707693
     atom   20 type  2   force =    -0.03991364    0.15206876   38.62698945
     atom   21 type  1   force =     0.01653516   -0.03664803    0.74437987
     atom   22 type  2   force =    -1.41594745    1.42400648  -37.54616439
     atom   23 type  2   force =     0.12268364   -0.18699115   38.58336385
     atom   24 type  1   force =    -0.00368637   -1.41277460   -0.83131956
     atom   25 type  2   force =    -0.74832810   -1.09346033  -37.88055260
     atom   26 type  2   force =     0.06216097   -0.13224726   38.21513604
     atom   27 type  1   force =    -0.34313964    0.18284226    0.21995930
     atom   28 type  2   force =    -0.02347008   -0.39834440  -37.66622433
     atom   29 type  2   force =     0.03121607    0.04404586   37.65818062
     atom   30 type  1   force =     0.01464930    1.79320914    1.42867034
     atom   31 type  2   force =    -1.80961999    0.80294688  -37.50326743
     atom   32 type  2   force =     0.24261275    0.12274981   38.39437764
     atom   33 type  1   force =    -1.41598658   -0.21380309    1.65816617
     atom   34 type  2   force =     0.01239589    0.43056483  -28.96040071
     atom   35 type  2   force =     0.03375462   -0.03557284   37.88962026
     atom   36 type  3   force =    -0.03417765    0.34755095  -48.17114402
     The core correction contribution to forces
     atom    1 type  1   force =     0.00000000    0.00000000    0.00000000
     atom    2 type  2   force =    -0.00003279    0.00047807    0.02121892
     atom    3 type  2   force =     0.00022217    0.00046721   -0.02082913
     atom    4 type  1   force =     0.00000000    0.00000000    0.00000000
     atom    5 type  2   force =    -0.00048796    0.00086331    0.02051281
     atom    6 type  2   force =     0.00019159   -0.00010561   -0.02088367
     atom    7 type  1   force =     0.00000000    0.00000000    0.00000000
     atom    8 type  2   force =    -0.00039933    0.00018000    0.02129953
     atom    9 type  2   force =     0.00052770    0.00064789   -0.02096603
     atom   10 type  1   force =     0.00000000    0.00000000    0.00000000
     atom   11 type  2   force =     0.00001770   -0.00020495    0.02101660
     atom   12 type  2   force =     0.00067649    0.00079442   -0.02073727
     atom   13 type  1   force =     0.00000000    0.00000000    0.00000000
     atom   14 type  2   force =    -0.00000981    0.00022073    0.02113002
     atom   15 type  2   force =     0.00004099    0.00053535   -0.02076199
     atom   16 type  1   force =     0.00000000    0.00000000    0.00000000
     atom   17 type  2   force =     0.00038986    0.00090218    0.02050619
     atom   18 type  2   force =    -0.00012895   -0.00018840   -0.02089376
     atom   19 type  1   force =     0.00000000    0.00000000    0.00000000
     atom   20 type  2   force =     0.00007532    0.00055233   -0.02126748
     atom   21 type  1   force =     0.00000000    0.00000000    0.00000000
     atom   22 type  2   force =    -0.00001190   -0.00027125    0.02102142
     atom   23 type  2   force =    -0.00066010    0.00077117   -0.02076808
     atom   24 type  1   force =     0.00000000    0.00000000    0.00000000
     atom   25 type  2   force =     0.00005418    0.00049989    0.02123728
     atom   26 type  2   force =    -0.00032254    0.00048818   -0.02085738
     atom   27 type  1   force =     0.00000000    0.00000000    0.00000000
     atom   28 type  2   force =     0.00010475    0.00075197    0.02127401
     atom   29 type  2   force =    -0.00007572    0.00035085   -0.02087449
     atom   30 type  1   force =     0.00000000    0.00000000    0.00000000
     atom   31 type  2   force =     0.00051963    0.00009697    0.02127811
     atom   32 type  2   force =    -0.00055852    0.00073046   -0.02097348
     atom   33 type  1   force =     0.00000000    0.00000000    0.00000000
     atom   34 type  2   force =    -0.00008917    0.00020473   -0.00960620
     atom   35 type  2   force =    -0.00005245    0.00060688   -0.02130714
     atom   36 type  3   force =     0.00011583   -0.00007813    0.02458511
     The Hubbard contrib.    to forces
     atom    1 type  1   force =     0.00000000    0.00000000    0.00000000
     atom    2 type  2   force =     0.00000000    0.00000000    0.00000000
     atom    3 type  2   force =     0.00000000    0.00000000    0.00000000
     atom    4 type  1   force =     0.00000000    0.00000000    0.00000000
     atom    5 type  2   force =     0.00000000    0.00000000    0.00000000
     atom    6 type  2   force =     0.00000000    0.00000000    0.00000000
     atom    7 type  1   force =     0.00000000    0.00000000    0.00000000
     atom    8 type  2   force =     0.00000000    0.00000000    0.00000000
     atom    9 type  2   force =     0.00000000    0.00000000    0.00000000
     atom   10 type  1   force =     0.00000000    0.00000000    0.00000000
     atom   11 type  2   force =     0.00000000    0.00000000    0.00000000
     atom   12 type  2   force =     0.00000000    0.00000000    0.00000000
     atom   13 type  1   force =     0.00000000    0.00000000    0.00000000
     atom   14 type  2   force =     0.00000000    0.00000000    0.00000000
     atom   15 type  2   force =     0.00000000    0.00000000    0.00000000
     atom   16 type  1   force =     0.00000000    0.00000000    0.00000000
     atom   17 type  2   force =     0.00000000    0.00000000    0.00000000
     atom   18 type  2   force =     0.00000000    0.00000000    0.00000000
     atom   19 type  1   force =     0.00000000    0.00000000    0.00000000
     atom   20 type  2   force =     0.00000000    0.00000000    0.00000000
     atom   21 type  1   force =     0.00000000    0.00000000    0.00000000
     atom   22 type  2   force =     0.00000000    0.00000000    0.00000000
     atom   23 type  2   force =     0.00000000    0.00000000    0.00000000
     atom   24 type  1   force =     0.00000000    0.00000000    0.00000000
     atom   25 type  2   force =     0.00000000    0.00000000    0.00000000
     atom   26 type  2   force =     0.00000000    0.00000000    0.00000000
     atom   27 type  1   force =     0.00000000    0.00000000    0.00000000
     atom   28 type  2   force =     0.00000000    0.00000000    0.00000000
     atom   29 type  2   force =     0.00000000    0.00000000    0.00000000
     atom   30 type  1   force =     0.00000000    0.00000000    0.00000000
     atom   31 type  2   force =     0.00000000    0.00000000    0.00000000
     atom   32 type  2   force =     0.00000000    0.00000000    0.00000000
     atom   33 type  1   force =     0.00000000    0.00000000    0.00000000
     atom   34 type  2   force =     0.00000000    0.00000000    0.00000000
     atom   35 type  2   force =     0.00000000    0.00000000    0.00000000
     atom   36 type  3   force =     0.00000000    0.00000000    0.00000000
     The SCF correction term to forces
     atom    1 type  1   force =     0.00002438    0.00005125   -0.00007322
     atom    2 type  2   force =    -0.00000788    0.00001441   -0.00001657
     atom    3 type  2   force =    -0.00000590    0.00001778   -0.00002704
     atom    4 type  1   force =    -0.00000317    0.00001035    0.00000272
     atom    5 type  2   force =     0.00000415    0.00003345   -0.00001336
     atom    6 type  2   force =    -0.00000432   -0.00000135    0.00000316
     atom    7 type  1   force =    -0.00001365   -0.00004428    0.00000088
     atom    8 type  2   force =    -0.00001306   -0.00001238   -0.00000080
     atom    9 type  2   force =    -0.00001548   -0.00001316    0.00001532
     atom   10 type  1   force =    -0.00000620   -0.00005211   -0.00003870
     atom   11 type  2   force =     0.00002000   -0.00004191   -0.00001473
     atom   12 type  2   force =     0.00000066   -0.00001380   -0.00000774
     atom   13 type  1   force =     0.00001482    0.00003957   -0.00008699
     atom   14 type  2   force =     0.00001196    0.00000973   -0.00001898
     atom   15 type  2   force =     0.00000135    0.00000913   -0.00003712
     atom   16 type  1   force =     0.00002548    0.00001381   -0.00000089
     atom   17 type  2   force =     0.00000335    0.00003686   -0.00001800
     atom   18 type  2   force =    -0.00000665    0.00001137   -0.00001310
     atom   19 type  1   force =     0.00000336   -0.00005071   -0.00002473
     atom   20 type  2   force =     0.00000016   -0.00000804    0.00000935
     atom   21 type  1   force =    -0.00000122   -0.00001851   -0.00006211
     atom   22 type  2   force =     0.00001770   -0.00003729   -0.00002482
     atom   23 type  2   force =     0.00000661   -0.00000947   -0.00002961
     atom   24 type  1   force =    -0.00000772    0.00005314   -0.00005177
     atom   25 type  2   force =    -0.00000688    0.00002383   -0.00002825
     atom   26 type  2   force =     0.00000294    0.00001025   -0.00003609
     atom   27 type  1   force =     0.00001375    0.00001435   -0.00003500
     atom   28 type  2   force =    -0.00001875    0.00003413   -0.00001773
     atom   29 type  2   force =     0.00000044    0.00000226    0.00000026
     atom   30 type  1   force =    -0.00001971   -0.00002057    0.00002194
     atom   31 type  2   force =    -0.00000751   -0.00001949   -0.00001992
     atom   32 type  2   force =     0.00002032   -0.00001080    0.00000112
     atom   33 type  1   force =    -0.00004121   -0.00003068   -0.00010320
     atom   34 type  2   force =    -0.00003286   -0.00004198   -0.00003697
     atom   35 type  2   force =    -0.00000231    0.00000253   -0.00000362
     atom   36 type  3   force =    -0.00004678   -0.00005747   -0.00002248

     Total force =     0.006585     Total SCF correction =     0.000291
     Energy error            =      9.9E-05 Ry
     Gradient error          =      2.0E-03 Ry/Bohr

     bfgs converged in  20 scf cycles and  19 bfgs steps
     (criteria: energy <  1.0E-04 Ry, force <  1.0E-02 Ry/Bohr)

     End of BFGS Geometry Optimization

     Final energy             =   -2246.4497665384 Ry

     File ./MoS2-V-O.bfgs deleted, as requested
Begin final coordinates

ATOMIC_POSITIONS (angstrom)
Mo            6.5853740174        1.7782006463        2.7514424583
S             8.1505281907        0.8704891083        4.3677386740
S             8.1624349908        0.8783851873        1.1612080203
Mo            8.1380617076        4.5182791427        2.7344545978
S             6.5374249520        3.6748069619        4.3196235515
S             6.5752557431        3.5937517102        1.1207605648
Mo            6.5442556239        7.2066780817        2.6870761424
S             8.1095943677        6.3278414469        4.3290470324
S             8.1502356249        6.3312879455        1.1238712907
Mo            8.1383673946        9.9761883748        2.7534242015
S             6.5508527209        8.9867415990        4.3233550492
S             6.6052388487        9.0384565264        1.1224288552
Mo            3.4449955924        1.7756839893        2.7455523729
S             5.0153959357        0.8342211824        4.3326564242
S             5.0181927621        0.8597014993        1.1553931115
Mo            5.0149345736        4.5549014855        2.6695256401
S             3.4876830359        3.6723394756        4.3121148524
S             3.4585246310        3.5887852460        1.1135001338
Mo            3.4930287224        7.2078430037        2.6776596924
S             5.0215566553        6.3345935449        1.0643995532
Mo            5.0168947337        9.9222183078        2.7214902956
S             3.4876057544        8.9816525215        4.3195324488
S             3.4310360324        9.0378728943        1.1115274008
Mo            0.2871405492        1.7633878839        2.7679230432
S             1.8824633043        0.8693026712        4.3641102617
S             1.8618109798        0.8784727693        1.1547633134
Mo            1.8954641883        4.5185276279        2.7220013827
S             0.2934025158        3.6246797268        4.3263265872
S             0.2838029498        3.5907473346        1.1627273792
Mo            0.2914261720        7.2018172394        2.7397467533
S             1.9352837236        6.3232781134        4.3198859796
S             1.8855619453        6.3363294952        1.1125781494
Mo            1.8957219801        9.9737805633        2.7473436274
S             0.2904812376        9.0521878417        4.2665603134
S             0.2861670744        9.0575440886        1.1882005641
O             0.2968988916        9.0545489518        5.7648118182
End final coordinates



     Writing all to output data dir ./MoS2-V-O.save/
 
     init_run     :      4.62s CPU      4.91s WALL (       1 calls)
     electrons    :   1913.08s CPU   2103.48s WALL (      20 calls)
     update_pot   :     57.87s CPU     60.47s WALL (      19 calls)
     forces       :     54.32s CPU     58.53s WALL (      20 calls)

     Called by init_run:
     wfcinit      :      0.51s CPU      0.55s WALL (       1 calls)
     potinit      :      2.34s CPU      2.50s WALL (       1 calls)
     hinit0       :      0.45s CPU      0.47s WALL (       1 calls)

     Called by electrons:
     c_bands      :    274.37s CPU    279.22s WALL (     185 calls)
     sum_band     :    114.22s CPU    127.28s WALL (     185 calls)
     v_of_rho     :    173.00s CPU    198.38s WALL (     199 calls)
     newd         :     59.51s CPU     70.39s WALL (     199 calls)
     PAW_pot      :      7.87s CPU      7.90s WALL (     218 calls)
     mix_rho      :   1304.30s CPU   1439.54s WALL (     185 calls)

     Called by c_bands:
     init_us_2    :      4.39s CPU      4.55s WALL (     390 calls)
     init_us_2:cp :      4.39s CPU      4.54s WALL (     390 calls)
     regterg      :    261.01s CPU    265.70s WALL (     185 calls)

     Called by *egterg:
     rdiaghg      :     17.52s CPU     17.67s WALL (     999 calls)
     h_psi        :    172.51s CPU    173.86s WALL (    1025 calls)
     s_psi        :     15.49s CPU     15.54s WALL (    1025 calls)
     g_psi        :      0.82s CPU      0.83s WALL (     839 calls)

     Called by h_psi:
     h_psi:calbec :     17.14s CPU     17.21s WALL (    1025 calls)
     vloc_psi     :    138.03s CPU    139.22s WALL (    1025 calls)
     add_vuspsi   :     15.21s CPU     15.28s WALL (    1025 calls)

     General routines
     calbec       :     24.94s CPU     25.04s WALL (    1309 calls)
     fft          :    118.21s CPU    136.56s WALL (   13304 calls)
     ffts         :    577.82s CPU    708.06s WALL (  313491 calls)
     fftw         :     92.14s CPU     92.81s WALL (  113132 calls)
     interpolate  :      2.44s CPU      2.82s WALL (     199 calls)
 
     Parallel routines
 
     PWSCF        :  33m58.42s CPU  37m18.39s WALL

 
   This run was terminated on:  22: 8:24   1Nov2023            

=------------------------------------------------------------------------------=
   JOB DONE.
=------------------------------------------------------------------------------=
