
     Program PWSCF v.7.2 starts on  1Nov2023 at 15:10:27 

     This program is part of the open-source Quantum ESPRESSO suite
     for quantum simulation of materials; please cite
         "P. Giannozzi et al., J. Phys.:Condens. Matter 21 395502 (2009);
         "P. Giannozzi et al., J. Phys.:Condens. Matter 29 465901 (2017);
         "P. Giannozzi et al., J. Chem. Phys. 152 154105 (2020);
          URL http://www.quantum-espresso.org", 
     in publications or presentations arising from this work. More details at
     http://www.quantum-espresso.org/quote

     Parallel version (MPI & OpenMP), running on      48 processor cores
     Number of MPI processes:                48
     Threads/MPI process:                     1

     MPI processes distributed on     1 nodes
     78214 MiB available memory on the printing compute node when the environment starts
 
     Waiting for input...
     Reading input from standard input
Warning: card &CELL ignored
Warning: card CELL_DYNAMICS = 'BFGS', ignored
Warning: card CELL_DOFREE = '2DXY' ignored
Warning: card / ignored

     Current dimensions of program PWSCF are:
     Max number of different atomic species (ntypx) = 10
     Max number of k-points (npk) =  40000
     Max angular momentum in pseudopotentials (lmaxx) =  4
     file O.pbe-n-kjpaw_psl.0.1.UPF: wavefunction(s)  2P renormalized

     IMPORTANT: XC functional enforced from input :
     Exchange-correlation= RVV10
                           (   1   4  13   4  26   0   0)
     Any further DFT definition will be discarded
     Please, verify this is what you really want


     gamma-point specific algorithms are used
     signal trapping enabled: kill the code with -SIGUSR1 to stop cleanly the simulation 
 
     R & G space division:  proc/nbgrp/npool/nimage =      48
     Subspace diagonalization in iterative solution of the eigenvalue problem:
     one sub-group per band group will be used
     scalapack distributed-memory algorithm (size of sub-group:  2*  2 procs)

 
     Parallelization info
     --------------------
     sticks:   dense  smooth     PW     G-vecs:    dense   smooth      PW
     Min         396     194     47               101632    35090    4376
     Max         398     196     50               101674    35128    4410
     Sum       19091    9389   2349              4879585  1685513  210763
 
     Using Slab Decomposition
 


     bravais-lattice index     =            0
     lattice parameter (alat)  =      17.8707  a.u.
     unit-cell volume          =   17436.2743 (a.u.)^3
     number of atoms/cell      =           36
     number of atomic types    =            3
     number of electrons       =       312.00
     number of Kohn-Sham states=          187
     kinetic-energy cutoff     =      80.0000  Ry
     charge density cutoff     =     650.0000  Ry
     scf convergence threshold =      1.0E-06
     mixing beta               =       0.7000
     number of iterations used =            8  local-TF  mixing
     energy convergence thresh.=      1.0E-04
     force convergence thresh. =      1.0E-02
     Exchange-correlation= RVV10
                           (   1   4  13   4  26   0   0)
     nstep                     =          200


     celldm(1)=  17.870686  celldm(2)=   0.000000  celldm(3)=   0.000000
     celldm(4)=   0.000000  celldm(5)=   0.000000  celldm(6)=   0.000000

     crystal axes: (cart. coord. in units of alat)
               a(1) = (   1.000000   0.000000   0.000000 )  
               a(2) = (   0.000000   1.155671   0.000000 )  
               a(3) = (   0.000000   0.000000   2.643601 )  

     reciprocal axes: (cart. coord. in units 2 pi/alat)
               b(1) = (  1.000000  0.000000  0.000000 )  
               b(2) = (  0.000000  0.865298  0.000000 )  
               b(3) = (  0.000000  0.000000  0.378272 )  


     PseudoPot. # 1 for Mo read from file:
     ../pseudo/Mo_ONCV_PBE-1.0.oncvpsp.upf
     MD5 check sum: 1b5d28e075c9ccadda658a603575cd1f
     Pseudo is Norm-conserving, Zval = 14.0
     Generated using ONCVPSP code by D. R. Hamann
     Using radial grid of 1526 points,  6 beta functions with: 
                l(1) =   0
                l(2) =   0
                l(3) =   1
                l(4) =   1
                l(5) =   2
                l(6) =   2

     PseudoPot. # 2 for S  read from file:
     ../pseudo/s_pbe_v1.4.uspp.F.UPF
     MD5 check sum: 88d86576ff6df21479756cfb9bdac1df
     Pseudo is Ultrasoft + core correction, Zval =  6.0
     Generated by new atomic code, or converted to UPF format
     Using radial grid of  907 points,  6 beta functions with: 
                l(1) =   0
                l(2) =   0
                l(3) =   1
                l(4) =   1
                l(5) =   2
                l(6) =   2
     Q(r) pseudized with  8 coefficients,  rinner =    1.300   1.300   1.300
                                                       1.300   1.300

     PseudoPot. # 3 for O  read from file:
     ../pseudo/O.pbe-n-kjpaw_psl.0.1.UPF
     MD5 check sum: 0234752ac141de4415c5fc33072bef88
     Pseudo is Projector augmented-wave + core cor, Zval =  6.0
     Generated using "atomic" code by A. Dal Corso  v.5.0.99 svn rev. 10869
     Shape of augmentation charge: BESSEL
     Using radial grid of 1095 points,  4 beta functions with: 
                l(1) =   0
                l(2) =   0
                l(3) =   1
                l(4) =   1
     Q(r) pseudized with 0 coefficients 


     atomic species   valence    mass     pseudopotential
        Mo            14.00    95.94000     Mo( 1.00)
        S              6.00    32.06500     S ( 1.00)
        O              6.00    15.99940     O ( 1.00)

     No symmetry found



   Cartesian axes

     site n.     atom                  positions (alat units)
         1           Mo  tau(   1) = (   0.6952221   0.1890506   0.2985846  )
         2           S   tau(   2) = (   0.8646417   0.0856217   0.4689279  )
         3           S   tau(   3) = (   0.8663890   0.0857843   0.1351291  )
         4           Mo  tau(   4) = (   0.8560186   0.4753274   0.2873942  )
         5           S   tau(   5) = (   0.6873294   0.3936244   0.4596353  )
         6           S   tau(   6) = (   0.6929804   0.3713468   0.1185692  )
         7           Mo  tau(   7) = (   0.6862796   0.7633098   0.2825370  )
         8           S   tau(   8) = (   0.8545980   0.6708292   0.4486168  )
         9           S   tau(   9) = (   0.8545123   0.6666874   0.1146125  )
        10           Mo  tau(  10) = (   0.8629403   1.0471007   0.3006803  )
        11           S   tau(  11) = (   0.6868280   0.9456650   0.4634891  )
        12           S   tau(  12) = (   0.6998113   0.9568511   0.1205389  )
        13           Mo  tau(  13) = (   0.3618216   0.1847309   0.2935964  )
        14           S   tau(  14) = (   0.5260962   0.0863870   0.4600448  )
        15           S   tau(  15) = (   0.5348379   0.0894875   0.1297123  )
        16           Mo  tau(  16) = (   0.5265817   0.4772436   0.2784130  )
        17           S   tau(  17) = (   0.3624753   0.3882513   0.4525556  )
        18           S   tau(  18) = (   0.3635411   0.3752055   0.1119148  )
        19           Mo  tau(  19) = (   0.3652268   0.7630864   0.2781795  )
        20           S   tau(  20) = (   0.5269494   0.6690381   0.1096838  )
        21           Mo  tau(  21) = (   0.5300192   1.0470394   0.2900995  )
        22           S   tau(  22) = (   0.3670346   0.9457522   0.4574073  )
        23           S   tau(  23) = (   0.3604225   0.9585725   0.1159032  )
        24           Mo  tau(  24) = (   0.0313099   0.1847895   0.3013130  )
        25           S   tau(  25) = (   0.1956761   0.0838230   0.4650863  )
        26           S   tau(  26) = (   0.1967693   0.0903508   0.1278874  )
        27           Mo  tau(  27) = (   0.1967578   0.4753919   0.2813011  )
        28           S   tau(  28) = (   0.0287851   0.3864324   0.4586755  )
        29           S   tau(  29) = (   0.0244514   0.3729871   0.1239344  )
        30           Mo  tau(  30) = (   0.0286728   0.7631204   0.2856894  )
        31           S   tau(  31) = (   0.2011512   0.6675435   0.4465001  )
        32           S   tau(  32) = (   0.1969214   0.6672839   0.1104564  )
        33           Mo  tau(  33) = (   0.1950294   1.0511147   0.2932237  )
        34           S   tau(  34) = (   0.0312912   0.9612169   0.4667423  )
        35           S   tau(  35) = (   0.0292670   0.9563028   0.1216485  )
        36           O   tau(  36) = (   0.2222222   0.3852236   0.5650415  )

     number of k points=     1  Gaussian smearing, width (Ry)=  0.0100
                       cart. coord. in units 2pi/alat
        k(    1) = (   0.0000000   0.0000000   0.0000000), wk =   2.0000000

     Dense  grid:  2439793 G-vectors     FFT dimensions: ( 150, 180, 384)

     Smooth grid:   842757 G-vectors     FFT dimensions: ( 108, 120, 270)

     Estimated max dynamical RAM per process >     269.22 MB

     Estimated total dynamical RAM >      12.62 GB

     Initial potential from superposition of free atoms

     starting charge     311.9873, renormalised to     312.0000

     negative rho (up, down):  2.745E-04 0.000E+00


---------------------------------------------------------------------------------
Carrying out rVV10 run using the following parameters:
Nqs =      20    Nr_points =    1024   r_max =   100.000
b_value =  6.30000    beta =  0.00901
     q_mesh =  0.00010000  0.00030000  0.00058939  0.00100810
               0.00161396  0.00249058  0.00375900  0.00559430
               0.00824984  0.01209221  0.01765183  0.02569619
               0.03733578  0.05417739  0.07854596  0.11380545
               0.16482331  0.23864234  0.34545298  0.50000000

Gradients computed in Reciprocal space

---------------------------------------------------------------------------------


     Starting wfcs are  216 randomized atomic wfcs
     Checking if some PAW data can be deallocated... 

     total cpu time spent up to now is        5.2 secs

     Self-consistent Calculation

     iteration #  1     ecut=    80.00 Ry     beta= 0.70
     Davidson diagonalization with overlap
     ethr =  1.00E-02,  avg # of iterations =  2.0

     Threshold (ethr) on eigenvalues was too large:
     Diagonalizing with lowered threshold

     Davidson diagonalization with overlap
     ethr =  4.30E-04,  avg # of iterations =  4.0

     negative rho (up, down):  3.611E-08 0.000E+00

     total cpu time spent up to now is       25.1 secs

     total energy              =   -2246.22877346 Ry
     estimated scf accuracy    <       1.58763881 Ry

     iteration #  2     ecut=    80.00 Ry     beta= 0.70
     Davidson diagonalization with overlap
     ethr =  5.09E-04,  avg # of iterations =  4.0

     total cpu time spent up to now is       30.0 secs

     total energy              =   -2246.22408602 Ry
     estimated scf accuracy    <       0.67630521 Ry

     iteration #  3     ecut=    80.00 Ry     beta= 0.70
     Davidson diagonalization with overlap
     ethr =  2.17E-04,  avg # of iterations =  4.0

     total cpu time spent up to now is       33.9 secs

     total energy              =   -2246.21018592 Ry
     estimated scf accuracy    <       0.23249618 Ry

     iteration #  4     ecut=    80.00 Ry     beta= 0.70
     Davidson diagonalization with overlap
     ethr =  7.45E-05,  avg # of iterations =  9.0

     total cpu time spent up to now is       38.2 secs

     total energy              =   -2246.24904336 Ry
     estimated scf accuracy    <       0.03185631 Ry

     iteration #  5     ecut=    80.00 Ry     beta= 0.70
     Davidson diagonalization with overlap
     c_bands:  1 eigenvalues not converged
     ethr =  1.02E-05,  avg # of iterations = 20.0

     total cpu time spent up to now is       43.3 secs

     total energy              =   -2246.25059564 Ry
     estimated scf accuracy    <       0.01753138 Ry

     iteration #  6     ecut=    80.00 Ry     beta= 0.70
     Davidson diagonalization with overlap
     ethr =  5.62E-06,  avg # of iterations =  2.0

     total cpu time spent up to now is       47.0 secs

     total energy              =   -2246.25024141 Ry
     estimated scf accuracy    <       0.01207764 Ry

     iteration #  7     ecut=    80.00 Ry     beta= 0.70
     Davidson diagonalization with overlap
     ethr =  3.87E-06,  avg # of iterations =  1.0

     total cpu time spent up to now is       50.6 secs

     total energy              =   -2246.24934418 Ry
     estimated scf accuracy    <       0.00796270 Ry

     iteration #  8     ecut=    80.00 Ry     beta= 0.70
     Davidson diagonalization with overlap
     ethr =  2.55E-06,  avg # of iterations =  1.0

     negative rho (up, down):  1.457E-03 0.000E+00

     total cpu time spent up to now is       56.8 secs

     total energy              =   -2246.24800806 Ry
     estimated scf accuracy    <       0.00479687 Ry

     iteration #  9     ecut=    80.00 Ry     beta= 0.70
     Davidson diagonalization with overlap
     ethr =  1.54E-06,  avg # of iterations =  2.0

     negative rho (up, down):  1.272E-02 0.000E+00

     total cpu time spent up to now is       63.5 secs

     total energy              =   -2246.24787303 Ry
     estimated scf accuracy    <       0.00245009 Ry

     iteration # 10     ecut=    80.00 Ry     beta= 0.70
     Davidson diagonalization with overlap
     ethr =  7.85E-07,  avg # of iterations =  2.0

     negative rho (up, down):  2.003E-02 0.000E+00

     total cpu time spent up to now is       69.9 secs

     total energy              =   -2246.24778350 Ry
     estimated scf accuracy    <       0.00131084 Ry

     iteration # 11     ecut=    80.00 Ry     beta= 0.70
     Davidson diagonalization with overlap
     ethr =  4.20E-07,  avg # of iterations =  2.0

     negative rho (up, down):  2.115E-02 0.000E+00

     total cpu time spent up to now is       76.6 secs

     total energy              =   -2246.24788829 Ry
     estimated scf accuracy    <       0.00048407 Ry

     iteration # 12     ecut=    80.00 Ry     beta= 0.70
     Davidson diagonalization with overlap
     ethr =  1.55E-07,  avg # of iterations =  2.0

     negative rho (up, down):  8.890E-03 0.000E+00

     total cpu time spent up to now is       84.2 secs

     total energy              =   -2246.24785755 Ry
     estimated scf accuracy    <       0.00010503 Ry

     iteration # 13     ecut=    80.00 Ry     beta= 0.70
     Davidson diagonalization with overlap
     ethr =  3.37E-08,  avg # of iterations =  5.0

     negative rho (up, down):  2.144E-03 0.000E+00

     total cpu time spent up to now is       92.0 secs

     total energy              =   -2246.24791732 Ry
     estimated scf accuracy    <       0.00002142 Ry

     iteration # 14     ecut=    80.00 Ry     beta= 0.70
     Davidson diagonalization with overlap
     ethr =  6.86E-09,  avg # of iterations =  9.0

     negative rho (up, down):  9.565E-04 0.000E+00

     total cpu time spent up to now is      101.9 secs

     total energy              =   -2246.24792329 Ry
     estimated scf accuracy    <       0.00000632 Ry

     iteration # 15     ecut=    80.00 Ry     beta= 0.70
     Davidson diagonalization with overlap
     ethr =  2.02E-09,  avg # of iterations =  2.0

     negative rho (up, down):  4.093E-04 0.000E+00

     total cpu time spent up to now is      109.3 secs

     total energy              =   -2246.24792606 Ry
     estimated scf accuracy    <       0.00000239 Ry

     iteration # 16     ecut=    80.00 Ry     beta= 0.70
     Davidson diagonalization with overlap
     ethr =  7.67E-10,  avg # of iterations =  2.0

     negative rho (up, down):  1.993E-04 0.000E+00

     total cpu time spent up to now is      112.9 secs

     End of self-consistent calculation

          k = 0.0000 0.0000 0.0000 (105382 PWs)   bands (ev):

   -62.9830 -62.9662 -62.9462 -62.9363 -62.9316 -62.9144 -62.9122 -62.9115
   -62.8953 -62.8902 -62.8764 -62.8656 -37.3351 -37.2982 -37.2377 -37.2325
   -37.2254 -37.2073 -37.1784 -37.1765 -37.1692 -37.1624 -37.1422 -37.1281
   -37.1249 -37.1191 -37.1119 -37.1061 -37.1028 -37.1008 -37.0915 -37.0829
   -37.0813 -37.0659 -37.0480 -37.0438 -37.0312 -37.0273 -37.0129 -37.0027
   -36.9911 -36.9673 -36.9621 -36.9420 -36.9273 -36.9161 -36.8871 -36.8568
   -20.8503 -16.0153 -15.2276 -15.2208 -15.1284 -15.0053 -14.8529 -14.7743
   -14.5489 -14.5225 -14.5028 -14.4672 -14.4374 -14.4120 -14.3721 -14.2910
   -14.2136 -14.1774 -14.1305 -14.0368 -13.9540 -13.9310 -13.9024 -13.7499
    -8.1343  -7.8483  -7.6053  -7.4606  -7.4246  -7.3555  -7.2954  -7.2846
    -7.2793  -7.0684  -6.9139  -6.8763  -6.8345  -6.7526  -6.7001  -6.6043
    -6.5545  -6.5130  -6.4025  -6.3203  -6.1737  -6.0841  -6.0680  -5.9768
    -5.8639  -5.8519  -5.8275  -5.7944  -5.7794  -5.7341  -5.6680  -5.6428
    -5.5911  -5.5128  -5.4760  -5.2826  -5.2404  -5.1921  -5.1433  -5.1208
    -5.0899  -5.0653  -4.9441  -4.8482  -4.6836  -4.6200  -4.4169  -4.4033
    -4.3437  -4.3146  -4.1494  -4.1370  -4.0315  -4.0092  -3.9665  -3.8737
    -3.8575  -3.7568  -3.6979  -3.6636  -3.6551  -3.6114  -3.5713  -3.5315
    -3.4943  -3.4519  -3.3767  -3.2474  -3.1187  -3.0324  -2.9629  -2.9333
    -2.8699  -2.8321  -2.8161  -2.7728  -2.7395  -2.7031  -2.6131  -2.3936
    -2.1684  -2.0874  -2.0007  -1.5956  -1.2465  -0.9254  -0.6314  -0.2419
    -0.2005  -0.1540  -0.1394  -0.0168   0.0526   0.1073   0.1313   0.1542
     0.2143   0.2350   0.3560   0.4274   0.4464   0.4715   0.5130   0.5697
     0.6203   0.6322   0.6669   0.6774   0.7160   0.7949   0.8123   0.8327
     0.9064   0.9847   1.1593

     the Fermi energy is    -1.4211 ev

!    total energy              =   -2246.24792611 Ry
     estimated scf accuracy    <       0.00000086 Ry
     smearing contrib. (-TS)   =      -0.00217650 Ry
     internal energy E=F+TS    =   -2246.24574960 Ry

     The total energy is F=E-TS. E is the sum of the following terms:
     one-electron contribution =  -18454.97094714 Ry
     hartree contribution      =    9215.42144856 Ry
     xc contribution           =    -392.00864866 Ry
     ewald contribution        =    7395.18077388 Ry
     one-center paw contrib.   =      -9.86837624 Ry

     convergence has been achieved in  16 iterations

     negative rho (up, down):  1.993E-04 0.000E+00

     Forces acting on atoms (cartesian axes, Ry/au):

     atom    1 type  1   force =     0.01256644   -0.02543031    0.00998943
     atom    2 type  2   force =    -0.01538907    0.01686584    0.00142236
     atom    3 type  2   force =    -0.01340836    0.00825299   -0.00595244
     atom    4 type  1   force =    -0.00344824    0.00590938   -0.01308693
     atom    5 type  2   force =     0.00552311   -0.01131574   -0.00760217
     atom    6 type  2   force =     0.00020298    0.01073582   -0.00318696
     atom    7 type  1   force =     0.01133030   -0.00999889   -0.01100268
     atom    8 type  2   force =     0.00448047   -0.00275351    0.02033807
     atom    9 type  2   force =     0.00847501    0.00738515    0.00858492
     atom   10 type  1   force =    -0.01129429    0.00940767   -0.02624985
     atom   11 type  2   force =     0.00471786   -0.00279422   -0.00823212
     atom   12 type  2   force =    -0.00074327    0.00154859    0.00723053
     atom   13 type  1   force =    -0.00502509    0.00177870   -0.00402147
     atom   14 type  2   force =     0.01018409   -0.00206956    0.01295126
     atom   15 type  2   force =    -0.00824978    0.00226096   -0.01060057
     atom   16 type  1   force =    -0.00384666    0.03827044    0.00659463
     atom   17 type  2   force =    -0.07506964   -0.03852359    0.04451088
     atom   18 type  2   force =    -0.00141446   -0.00761775    0.01449571
     atom   19 type  1   force =     0.00241321   -0.01942373   -0.00924661
     atom   20 type  2   force =     0.00598283   -0.00641104   -0.00004976
     atom   21 type  1   force =    -0.00501875    0.00665043    0.00107484
     atom   22 type  2   force =    -0.00460535   -0.00218756   -0.00246856
     atom   23 type  2   force =    -0.00136418    0.00365886    0.00968842
     atom   24 type  1   force =    -0.00622318   -0.00024557   -0.01858981
     atom   25 type  2   force =     0.01576304    0.01694745    0.00551947
     atom   26 type  2   force =    -0.01008266    0.00009035   -0.00396572
     atom   27 type  1   force =    -0.01182166    0.03107620   -0.05845776
     atom   28 type  2   force =    -0.01490882   -0.00366236   -0.02533552
     atom   29 type  2   force =     0.00096065   -0.00053030   -0.00097713
     atom   30 type  1   force =    -0.00117236    0.01006170   -0.00275699
     atom   31 type  2   force =     0.00064057    0.00240527    0.01732523
     atom   32 type  2   force =    -0.01123259    0.00429184    0.00932887
     atom   33 type  1   force =     0.01478851   -0.00663908   -0.00858471
     atom   34 type  2   force =     0.00341870   -0.04329951   -0.00976051
     atom   35 type  2   force =    -0.00859518    0.00843047    0.01390145
     atom   36 type  3   force =     0.11146581   -0.00312538    0.04717219
     The non-local contrib.  to forces
     atom    1 type  1   force =     0.00531109    0.02733406   -0.01208485
     atom    2 type  2   force =    -0.01445831    0.00223459   -0.27395207
     atom    3 type  2   force =    -0.01583586   -0.00175322    0.27045665
     atom    4 type  1   force =     0.01390609   -0.00455155    0.01996270
     atom    5 type  2   force =     0.01715936   -0.03410481   -0.25282542
     atom    6 type  2   force =    -0.00231237    0.01277445    0.26083068
     atom    7 type  1   force =    -0.00803409    0.00490695   -0.01764407
     atom    8 type  2   force =     0.00264832   -0.00047205   -0.25403385
     atom    9 type  2   force =     0.00675583   -0.00565301    0.27626623
     atom   10 type  1   force =     0.00548826    0.00312520   -0.00043574
     atom   11 type  2   force =     0.01280368    0.00545941   -0.25827033
     atom   12 type  2   force =    -0.01354399   -0.01777963    0.26384881
     atom   13 type  1   force =     0.00917784    0.02631399   -0.00545043
     atom   14 type  2   force =     0.01220740   -0.00855191   -0.26512771
     atom   15 type  2   force =    -0.01149890   -0.00808936    0.25908411
     atom   16 type  1   force =     0.00317861    0.02668147    0.00053054
     atom   17 type  2   force =    -0.37499384    0.01246612    0.14674891
     atom   18 type  2   force =    -0.00208260   -0.00504453    0.27537036
     atom   19 type  1   force =     0.00384107    0.00180260   -0.00968942
     atom   20 type  2   force =     0.00123537   -0.02582563    0.26917311
     atom   21 type  1   force =     0.00187280    0.02725103    0.00556482
     atom   22 type  2   force =    -0.00827488    0.00390885   -0.25911613
     atom   23 type  2   force =     0.00636130   -0.01714010    0.26884018
     atom   24 type  1   force =     0.00088182    0.01430064   -0.00932325
     atom   25 type  2   force =     0.00652874   -0.00637308   -0.26358008
     atom   26 type  2   force =    -0.00003609   -0.01306600    0.26121430
     atom   27 type  1   force =    -0.00719661    0.00369493    0.02787925
     atom   28 type  2   force =     0.09316521   -0.02225642   -0.20169316
     atom   29 type  2   force =     0.00496148   -0.00132384    0.26003180
     atom   30 type  1   force =     0.00307139    0.01274304    0.01151728
     atom   31 type  2   force =    -0.00435567    0.01838470   -0.26013046
     atom   32 type  2   force =    -0.00133441   -0.01086841    0.27640505
     atom   33 type  1   force =    -0.01030475    0.00732044    0.00269421
     atom   34 type  2   force =     0.00072271   -0.03605317   -0.27490971
     atom   35 type  2   force =    -0.00143773   -0.01164360    0.27072021
     atom   36 type  3   force =     1.05360198   -0.00322753   -0.99109520
     The ionic contribution  to forces
     atom    1 type  1   force =     0.55409887   -0.36715936    4.35203326
     atom    2 type  2   force =    -1.07285703   -0.12719503   39.01279020
     atom    3 type  2   force =    -0.27282667   -0.16283984  -36.68449331
     atom    4 type  1   force =    -0.91637038    1.01553433   -1.20033016
     atom    5 type  2   force =    -0.73087883    1.51807771   38.38718012
     atom    6 type  2   force =     0.38396193   -0.51233111  -38.70328389
     atom    7 type  1   force =    -2.51394111   -2.26692112    1.51230319
     atom    8 type  2   force =    -1.38015919    0.53601959   37.06480172
     atom    9 type  2   force =     0.24524235    0.12567454  -38.60450926
     atom   10 type  1   force =    -1.35070029   -0.61283199    4.72595517
     atom   11 type  2   force =    -0.52548287   -1.57369841   38.97903449
     atom   12 type  2   force =     0.45160595    0.69814223  -38.31450823
     atom   13 type  1   force =     1.72665924   -0.94001555   -0.33385572
     atom   14 type  2   force =     0.59916282   -0.67611643   38.17364712
     atom   15 type  2   force =     0.28653517   -0.25600308  -37.43392336
     atom   16 type  1   force =     1.34472304    4.50822961   -1.81081420
     atom   17 type  2   force =     6.10113012    1.61559038   33.52960207
     atom   18 type  2   force =     0.04268531   -0.66316834  -39.65816722
     atom   19 type  1   force =     3.15182123   -1.34435280   -0.93441558
     atom   20 type  2   force =     0.35168075   -0.01730529  -39.11497980
     atom   21 type  1   force =     0.33975275   -0.27569751    0.15888419
     atom   22 type  2   force =     0.60645130   -1.64692143   38.20280000
     atom   23 type  2   force =    -0.03581478    0.67184831  -38.82290285
     atom   24 type  1   force =    -1.97840655   -0.52679435    3.08757363
     atom   25 type  2   force =     0.49212845   -1.60493124   38.53051877
     atom   26 type  2   force =    -0.31418979   -0.24495734  -38.15540214
     atom   27 type  1   force =    -0.42730518    2.07415640   -8.07050576
     atom   28 type  2   force =    -3.78927766    1.03108323   35.93360267
     atom   29 type  2   force =    -0.52334754   -0.44787584  -38.29476149
     atom   30 type  1   force =    -0.85694412    0.10683071   -1.50509258
     atom   31 type  2   force =     1.07840326    1.95379383   36.35314329
     atom   32 type  2   force =    -0.50454919    0.27752703  -39.45458924
     atom   33 type  1   force =     0.73129313   -1.43841276    0.81811233
     atom   34 type  2   force =     0.06570592   -1.43357317   39.15529343
     atom   35 type  2   force =    -0.36381849    0.48623838  -38.33444419
     atom   36 type  3   force =    -0.99617192    0.52035573   47.45370334
     The local contribution  to forces
     atom    1 type  1   force =    -0.54682264    0.31441652   -4.33090710
     atom    2 type  2   force =     1.07142996    0.14198145  -38.75852535
     atom    3 type  2   force =     0.27450595    0.17285409   36.42830861
     atom    4 type  1   force =     0.89915013   -1.00514622    1.16632268
     atom    5 type  2   force =     0.72012595   -1.49719204  -38.16247408
     atom    6 type  2   force =    -0.38182214    0.51141294   38.45936078
     atom    7 type  1   force =     2.53315934    2.25186546   -1.50659047
     atom    8 type  2   force =     1.38201331   -0.53866148  -36.81100076
     atom    9 type  2   force =    -0.24341317   -0.11293001   38.35712939
     atom   10 type  1   force =     1.33384849    0.61913612   -4.75281408
     atom   11 type  2   force =     0.51795976    1.56593831  -38.74978752
     atom   12 type  2   force =    -0.44001129   -0.68021639   38.07811653
     atom   13 type  1   force =    -1.74082391    0.91569143    0.33434987
     atom   14 type  2   force =    -0.60057651    0.68269258  -37.91651447
     atom   15 type  2   force =    -0.28393134    0.26588554   37.18407830
     atom   16 type  1   force =    -1.35193433   -4.49659755    1.81610012
     atom   17 type  2   force =    -5.82278142   -1.66611101  -33.63037338
     atom   18 type  2   force =    -0.04195031    0.66099017   39.41784710
     atom   19 type  1   force =    -3.15313399    1.32301928    0.93394267
     atom   20 type  2   force =    -0.34703634    0.03565062   38.86647266
     atom   21 type  1   force =    -0.34670729    0.25519447   -0.16446238
     atom   22 type  2   force =    -0.60301247    1.64126314  -37.96693312
     atom   23 type  2   force =     0.02862892   -0.65243088   38.58402788
     atom   24 type  1   force =     1.97132820    0.51234861   -3.09779471
     atom   25 type  2   force =    -0.48290866    1.62787677  -38.28267703
     atom   26 type  2   force =     0.30445679    0.25745456   37.91031590
     atom   27 type  1   force =     0.42275131   -2.04690635    7.98327443
     atom   28 type  2   force =     3.68504625   -1.01422864  -35.77521304
     atom   29 type  2   force =     0.51979045    0.44911826   38.05353888
     atom   30 type  1   force =     0.85275447   -0.10960792    1.48980298
     atom   31 type  2   force =    -1.07357217   -1.96885644  -36.09687606
     atom   32 type  2   force =     0.49487591   -0.26294746   39.20799947
     atom   33 type  1   force =    -0.70611787    1.42448431   -0.83039330
     atom   34 type  2   force =    -0.06328317    1.42517813  -38.91153681
     atom   35 type  2   force =     0.35678035   -0.46712749   38.09801349
     atom   36 type  3   force =     0.06631998   -0.52031434  -46.42616373
     The core correction contribution to forces
     atom    1 type  1   force =     0.00000000    0.00000000    0.00000000
     atom    2 type  2   force =     0.00049035   -0.00011829    0.02094783
     atom    3 type  2   force =     0.00074119   -0.00000721   -0.02089438
     atom    4 type  1   force =     0.00000000    0.00000000    0.00000000
     atom    5 type  2   force =    -0.00095038    0.00190352    0.02041129
     atom    6 type  2   force =     0.00037878   -0.00115131   -0.02077877
     atom    7 type  1   force =     0.00000000    0.00000000    0.00000000
     atom    8 type  2   force =    -0.00002147    0.00034332    0.02040639
     atom    9 type  2   force =    -0.00008629    0.00029374   -0.02096207
     atom   10 type  1   force =     0.00000000    0.00000000    0.00000000
     atom   11 type  2   force =    -0.00056264   -0.00050979    0.02062037
     atom   12 type  2   force =     0.00121602    0.00143423   -0.02090423
     atom   13 type  1   force =     0.00000000    0.00000000    0.00000000
     atom   14 type  2   force =    -0.00063353   -0.00005879    0.02079203
     atom   15 type  2   force =     0.00063001    0.00046620   -0.02050496
     atom   16 type  1   force =     0.00000000    0.00000000    0.00000000
     atom   17 type  2   force =     0.02166825   -0.00045089   -0.00168138
     atom   18 type  2   force =    -0.00007534   -0.00042814   -0.02118338
     atom   19 type  1   force =     0.00000000    0.00000000    0.00000000
     atom   20 type  2   force =     0.00007985    0.00106849   -0.02135730
     atom   21 type  1   force =     0.00000000    0.00000000    0.00000000
     atom   22 type  2   force =     0.00019896   -0.00047546    0.02062090
     atom   23 type  2   force =    -0.00053593    0.00139682   -0.02093185
     atom   24 type  1   force =     0.00000000    0.00000000    0.00000000
     atom   25 type  2   force =     0.00003591    0.00037262    0.02110407
     atom   26 type  2   force =    -0.00031183    0.00066329   -0.02075946
     atom   27 type  1   force =     0.00000000    0.00000000    0.00000000
     atom   28 type  2   force =    -0.00384648    0.00176349    0.01778604
     atom   29 type  2   force =    -0.00044430   -0.00046409   -0.02043314
     atom   30 type  1   force =     0.00000000    0.00000000    0.00000000
     atom   31 type  2   force =     0.00020463   -0.00092455    0.02104685
     atom   32 type  2   force =    -0.00022888    0.00058748   -0.02113393
     atom   33 type  1   force =     0.00000000    0.00000000    0.00000000
     atom   34 type  2   force =     0.00031238    0.00112528    0.02124907
     atom   35 type  2   force =    -0.00011752    0.00097678   -0.02107748
     atom   36 type  3   force =    -0.01209378    0.00011895    0.01031611
     The Hubbard contrib.    to forces
     atom    1 type  1   force =     0.00000000    0.00000000    0.00000000
     atom    2 type  2   force =     0.00000000    0.00000000    0.00000000
     atom    3 type  2   force =     0.00000000    0.00000000    0.00000000
     atom    4 type  1   force =     0.00000000    0.00000000    0.00000000
     atom    5 type  2   force =     0.00000000    0.00000000    0.00000000
     atom    6 type  2   force =     0.00000000    0.00000000    0.00000000
     atom    7 type  1   force =     0.00000000    0.00000000    0.00000000
     atom    8 type  2   force =     0.00000000    0.00000000    0.00000000
     atom    9 type  2   force =     0.00000000    0.00000000    0.00000000
     atom   10 type  1   force =     0.00000000    0.00000000    0.00000000
     atom   11 type  2   force =     0.00000000    0.00000000    0.00000000
     atom   12 type  2   force =     0.00000000    0.00000000    0.00000000
     atom   13 type  1   force =     0.00000000    0.00000000    0.00000000
     atom   14 type  2   force =     0.00000000    0.00000000    0.00000000
     atom   15 type  2   force =     0.00000000    0.00000000    0.00000000
     atom   16 type  1   force =     0.00000000    0.00000000    0.00000000
     atom   17 type  2   force =     0.00000000    0.00000000    0.00000000
     atom   18 type  2   force =     0.00000000    0.00000000    0.00000000
     atom   19 type  1   force =     0.00000000    0.00000000    0.00000000
     atom   20 type  2   force =     0.00000000    0.00000000    0.00000000
     atom   21 type  1   force =     0.00000000    0.00000000    0.00000000
     atom   22 type  2   force =     0.00000000    0.00000000    0.00000000
     atom   23 type  2   force =     0.00000000    0.00000000    0.00000000
     atom   24 type  1   force =     0.00000000    0.00000000    0.00000000
     atom   25 type  2   force =     0.00000000    0.00000000    0.00000000
     atom   26 type  2   force =     0.00000000    0.00000000    0.00000000
     atom   27 type  1   force =     0.00000000    0.00000000    0.00000000
     atom   28 type  2   force =     0.00000000    0.00000000    0.00000000
     atom   29 type  2   force =     0.00000000    0.00000000    0.00000000
     atom   30 type  1   force =     0.00000000    0.00000000    0.00000000
     atom   31 type  2   force =     0.00000000    0.00000000    0.00000000
     atom   32 type  2   force =     0.00000000    0.00000000    0.00000000
     atom   33 type  1   force =     0.00000000    0.00000000    0.00000000
     atom   34 type  2   force =     0.00000000    0.00000000    0.00000000
     atom   35 type  2   force =     0.00000000    0.00000000    0.00000000
     atom   36 type  3   force =     0.00000000    0.00000000    0.00000000
     The SCF correction term to forces
     atom    1 type  1   force =    -0.00002137   -0.00002093    0.00092115
     atom    2 type  2   force =     0.00000549   -0.00003626    0.00013478
     atom    3 type  2   force =     0.00000656   -0.00000022    0.00064302
     atom    4 type  1   force =    -0.00013456    0.00007344    0.00093089
     atom    5 type  2   force =     0.00006653    0.00000050    0.00007896
     atom    6 type  2   force =    -0.00000370    0.00003145    0.00065728
     atom    7 type  1   force =     0.00014568    0.00015043    0.00090172
     atom    8 type  2   force =    -0.00000097    0.00001771    0.00013760
     atom    9 type  2   force =    -0.00002419    0.00000050    0.00063366
     atom   10 type  1   force =     0.00006876   -0.00002105    0.00101784
     atom   11 type  2   force =    -0.00000055    0.00001686    0.00014390
     atom   12 type  2   force =    -0.00001044   -0.00003125    0.00065068
     atom   13 type  1   force =    -0.00003875   -0.00021056    0.00090784
     atom   14 type  2   force =     0.00002343   -0.00003440    0.00012733
     atom   15 type  2   force =     0.00001480    0.00000226    0.00063838
     atom   16 type  1   force =     0.00018555   -0.00004249    0.00075121
     atom   17 type  2   force =    -0.00009323   -0.00001758    0.00018769
     atom   18 type  2   force =     0.00000800    0.00003371    0.00060189
     atom   19 type  1   force =    -0.00011558    0.00010780    0.00088876
     atom   20 type  2   force =     0.00002272    0.00000138    0.00061461
     atom   21 type  1   force =     0.00006252   -0.00009695    0.00106124
     atom   22 type  2   force =     0.00003126    0.00003794    0.00013283
     atom   23 type  2   force =    -0.00000417   -0.00001467    0.00062810
     atom   24 type  1   force =    -0.00002712   -0.00009985    0.00092756
     atom   25 type  2   force =    -0.00002188    0.00000298    0.00012677
     atom   26 type  2   force =    -0.00000222   -0.00000356    0.00063872
     atom   27 type  1   force =    -0.00007166    0.00013183    0.00086735
     atom   28 type  2   force =     0.00000339   -0.00002341    0.00015500
     atom   29 type  2   force =     0.00000008    0.00001582    0.00061985
     atom   30 type  1   force =    -0.00005458    0.00009648    0.00098837
     atom   31 type  2   force =    -0.00003997    0.00000833    0.00011465
     atom   32 type  2   force =     0.00000350   -0.00000619    0.00062056
     atom   33 type  1   force =    -0.00008248   -0.00003048    0.00097508
     atom   34 type  2   force =    -0.00003962    0.00002402    0.00011655
     atom   35 type  2   force =    -0.00000228   -0.00001299    0.00066245
     atom   36 type  3   force =    -0.00019094   -0.00005759    0.00038471

     Total force =     0.202266     Total SCF correction =     0.003988

     BFGS Geometry Optimization
     Energy error            =      0.0E+00 Ry
     Gradient error          =      1.1E-01 Ry/Bohr

     number of scf cycles    =   1
     number of bfgs steps    =   0

     energy             new  =   -2246.2479261065 Ry

     new trust radius        =       0.1210768777 bohr
     new conv_thr            =       0.0000010000 Ry


ATOMIC_POSITIONS (angstrom)
Mo            6.5811982802        1.7743490878        2.8289292129
S             8.1685657932        0.8186290446        4.4352910311
S             8.1861376895        0.8156090371        1.2747335300
Mo            8.0933378373        4.4981840546        2.7108930907
S             6.5028319620        3.7164234566        4.3426377542
S             6.5534572107        3.5174187042        1.1195937619
Mo            6.4959774341        7.2131460976        2.6660621188
S             8.0840986931        6.3424138978        4.2532240068
S             8.0854024301        6.3086103707        1.0884059412
Mo            8.1546423652        9.9071587380        2.8295709365
S             6.4976641785        8.9414481755        4.3787492811
S             6.6175538766        9.0495306918        1.1437335345
Mo            3.4190004982        1.7478970973        2.7743430912
S             4.9805546768        0.8158460461        4.3573866039
S             5.0534681603        0.8474585547        1.2210488795
Mo            4.9777211160        4.5334298485        2.6363742745
S             3.3881165185        3.6512138789        4.3032637223
S             3.4371720800        3.5441975597        1.0660224813
Mo            3.4551387566        7.2060459435        2.6257837690
S             4.9864001719        6.3235397100        1.0372274010
Mo            5.0096081143        9.9051193072        2.7439697438
S             3.4685210709        8.9425936624        4.3242850062
S             3.4077072719        9.0669261713        1.1011951900
Mo            0.2927973225        1.7473795816        2.8396074055
S             1.8588036538        0.8016622098        4.4011302164
S             1.8554645184        0.8544737296        1.2073022877
Mo            1.8544355583        4.5121115774        2.6292628633
S             0.2643244435        3.6524607889        4.3241771220
S             0.2317395623        3.5269686027        1.1715008098
Mo            0.2705317663        7.2219705138        2.7002374907
S             1.9025772215        6.3140716484        4.2316122383
S             1.8562941856        6.3126149586        1.0494959108
Mo            1.8521724037        9.9366259018        2.7684034189
S             0.2977219999        9.0670847143        4.4087044278
S             0.2722230245        9.0479869274        1.1577571079
O             2.1604873881        3.6413127871        5.3684242104



     Writing config-only to output data dir ./MoS2-V-O.save/
     NEW-OLD atomic charge density approx. for the potential

     negative rho (up, down):  1.777E-04 0.000E+00

     total cpu time spent up to now is      120.2 secs

     Self-consistent Calculation

     iteration #  1     ecut=    80.00 Ry     beta= 0.70
     Davidson diagonalization with overlap
     ethr =  1.00E-06,  avg # of iterations = 11.0

     negative rho (up, down):  1.247E-04 0.000E+00

     total cpu time spent up to now is      133.8 secs

     total energy              =   -2246.28296393 Ry
     estimated scf accuracy    <       0.01030994 Ry

     iteration #  2     ecut=    80.00 Ry     beta= 0.70
     Davidson diagonalization with overlap
     ethr =  3.30E-06,  avg # of iterations =  6.0

     negative rho (up, down):  1.337E-04 0.000E+00

     total cpu time spent up to now is      143.7 secs

     total energy              =   -2246.28457613 Ry
     estimated scf accuracy    <       0.00402679 Ry

     iteration #  3     ecut=    80.00 Ry     beta= 0.70
     Davidson diagonalization with overlap
     ethr =  1.29E-06,  avg # of iterations =  4.0

     negative rho (up, down):  1.175E-04 0.000E+00

     total cpu time spent up to now is      155.9 secs

     total energy              =   -2246.28494117 Ry
     estimated scf accuracy    <       0.00030417 Ry

     iteration #  4     ecut=    80.00 Ry     beta= 0.70
     Davidson diagonalization with overlap
     ethr =  9.75E-08,  avg # of iterations =  6.0

     negative rho (up, down):  1.202E-04 0.000E+00

     total cpu time spent up to now is      166.1 secs

     total energy              =   -2246.28498793 Ry
     estimated scf accuracy    <       0.00001858 Ry

     iteration #  5     ecut=    80.00 Ry     beta= 0.70
     Davidson diagonalization with overlap
     ethr =  5.95E-09,  avg # of iterations =  5.0

     negative rho (up, down):  1.279E-04 0.000E+00

     total cpu time spent up to now is      181.0 secs

     total energy              =   -2246.28499494 Ry
     estimated scf accuracy    <       0.00000515 Ry

     iteration #  6     ecut=    80.00 Ry     beta= 0.70
     Davidson diagonalization with overlap
     ethr =  1.65E-09,  avg # of iterations =  2.0

     negative rho (up, down):  2.001E-04 0.000E+00

     total cpu time spent up to now is      184.4 secs

     End of self-consistent calculation

          k = 0.0000 0.0000 0.0000 (105382 PWs)   bands (ev):

   -62.9856 -62.9680 -62.9613 -62.9474 -62.9341 -62.9121 -62.9073 -62.9033
   -62.8909 -62.8889 -62.8721 -62.8625 -37.3371 -37.3008 -37.2340 -37.2294
   -37.2222 -37.2074 -37.1816 -37.1788 -37.1713 -37.1610 -37.1435 -37.1340
   -37.1272 -37.1178 -37.1154 -37.1075 -37.1018 -37.0975 -37.0887 -37.0859
   -37.0806 -37.0582 -37.0556 -37.0437 -37.0326 -37.0149 -36.9999 -36.9955
   -36.9892 -36.9740 -36.9638 -36.9432 -36.9317 -36.9141 -36.8916 -36.8588
   -21.3829 -16.0178 -15.2250 -15.2186 -15.0524 -15.0114 -14.8545 -14.6595
   -14.5446 -14.5169 -14.5052 -14.4659 -14.4382 -14.4171 -14.3703 -14.2833
   -14.2172 -14.1817 -14.1320 -14.0180 -13.9662 -13.9408 -13.9088 -13.6825
    -8.1148  -7.8657  -7.5986  -7.4844  -7.4371  -7.3540  -7.3111  -7.2990
    -7.2848  -7.0831  -6.9226  -6.8704  -6.8423  -6.7406  -6.7075  -6.6101
    -6.5591  -6.5075  -6.4079  -6.3237  -6.1835  -6.0930  -6.0549  -5.9552
    -5.8694  -5.8573  -5.8290  -5.7942  -5.7784  -5.7399  -5.6837  -5.6537
    -5.5926  -5.5057  -5.4612  -5.2814  -5.2250  -5.1840  -5.1428  -5.1196
    -5.0880  -5.0776  -4.9477  -4.8552  -4.6910  -4.6213  -4.4376  -4.3961
    -4.3375  -4.3104  -4.1825  -4.1600  -4.0507  -4.0035  -3.9775  -3.8686
    -3.8467  -3.7565  -3.6975  -3.6706  -3.6397  -3.5981  -3.5576  -3.5324
    -3.5083  -3.4579  -3.3866  -3.2595  -3.1320  -3.0157  -2.9701  -2.9136
    -2.8630  -2.8274  -2.8179  -2.7859  -2.7512  -2.7079  -2.6283  -2.3839
    -2.1726  -2.1024  -2.0273  -1.6972  -1.1996  -0.8954  -0.5958  -0.2423
    -0.1917  -0.1497  -0.1337   0.0097   0.0523   0.1123   0.1337   0.1501
     0.2241   0.2489   0.3546   0.4308   0.4403   0.4734   0.5000   0.5824
     0.6372   0.6458   0.6651   0.6753   0.7156   0.7817   0.8106   0.8400
     0.9269   1.0080   1.1614

     the Fermi energy is    -1.4484 ev

!    total energy              =   -2246.28499511 Ry
     estimated scf accuracy    <       0.00000077 Ry
     smearing contrib. (-TS)   =      -0.00039855 Ry
     internal energy E=F+TS    =   -2246.28459656 Ry

     The total energy is F=E-TS. E is the sum of the following terms:
     one-electron contribution =  -18450.15987676 Ry
     hartree contribution      =    9213.01088456 Ry
     xc contribution           =    -392.03983620 Ry
     ewald contribution        =    7392.76898498 Ry
     one-center paw contrib.   =      -9.86475314 Ry

     convergence has been achieved in   6 iterations

     negative rho (up, down):  2.001E-04 0.000E+00

     Forces acting on atoms (cartesian axes, Ry/au):

     atom    1 type  1   force =     0.00276908   -0.01139201    0.00185762
     atom    2 type  2   force =    -0.00864295    0.01054943   -0.00053574
     atom    3 type  2   force =    -0.01095577    0.00745127   -0.00974702
     atom    4 type  1   force =    -0.00031333    0.00314926   -0.00291058
     atom    5 type  2   force =     0.00352251   -0.00783498   -0.00971925
     atom    6 type  2   force =    -0.00331599    0.00682115    0.00078272
     atom    7 type  1   force =     0.00750374   -0.00819045   -0.00202124
     atom    8 type  2   force =     0.00394431   -0.00401138    0.01309392
     atom    9 type  2   force =     0.00898910    0.00768805    0.00306351
     atom   10 type  1   force =    -0.00434220    0.00763363   -0.00936573
     atom   11 type  2   force =     0.00419681   -0.00251218   -0.01081460
     atom   12 type  2   force =    -0.00282195    0.00132722    0.00225142
     atom   13 type  1   force =    -0.00296997   -0.00099228    0.00050031
     atom   14 type  2   force =     0.00639304   -0.00142472    0.00877385
     atom   15 type  2   force =    -0.00575324    0.00198509   -0.00726888
     atom   16 type  1   force =    -0.00905024    0.02295500    0.01813148
     atom   17 type  2   force =    -0.06462677   -0.02341191    0.01777102
     atom   18 type  2   force =     0.00160819   -0.00387844    0.01101142
     atom   19 type  1   force =     0.00226456   -0.01189246   -0.00056646
     atom   20 type  2   force =     0.00615105   -0.00506797   -0.00565304
     atom   21 type  1   force =    -0.00398279    0.00351626    0.00296813
     atom   22 type  2   force =    -0.00212611   -0.00392407   -0.00393226
     atom   23 type  2   force =     0.00062192    0.00115580    0.00533318
     atom   24 type  1   force =    -0.00533305   -0.00233272   -0.01046732
     atom   25 type  2   force =     0.00975110    0.01179127    0.00038860
     atom   26 type  2   force =    -0.00751621   -0.00079673   -0.00548902
     atom   27 type  1   force =    -0.00609373    0.01392693   -0.02633451
     atom   28 type  2   force =    -0.02030244    0.00313336   -0.03192792
     atom   29 type  2   force =    -0.00254304   -0.00081470   -0.00964770
     atom   30 type  1   force =    -0.00037528    0.00456618    0.00388401
     atom   31 type  2   force =     0.00059375   -0.00141615    0.00861768
     atom   32 type  2   force =    -0.01054022    0.01220316   -0.00219879
     atom   33 type  1   force =     0.00624716   -0.00169064    0.00011017
     atom   34 type  2   force =     0.00050033   -0.03132598   -0.01420799
     atom   35 type  2   force =    -0.00620274    0.00865969    0.00786387
     atom   36 type  3   force =     0.11275135   -0.00560297    0.05640514
     The non-local contrib.  to forces
     atom    1 type  1   force =     0.00705942    0.02358213   -0.01209997
     atom    2 type  2   force =    -0.00960892   -0.00186509   -0.27397597
     atom    3 type  2   force =    -0.01295118   -0.00340715    0.26719852
     atom    4 type  1   force =     0.01366405   -0.00104710    0.01804892
     atom    5 type  2   force =     0.01342300   -0.03231180   -0.25641940
     atom    6 type  2   force =    -0.00481092    0.01052676    0.26432947
     atom    7 type  1   force =    -0.00863155    0.00737028   -0.02029123
     atom    8 type  2   force =     0.00331622   -0.00095508   -0.25882061
     atom    9 type  2   force =     0.00614220   -0.00668629    0.27293340
     atom   10 type  1   force =     0.00395241    0.00279424   -0.00085714
     atom   11 type  2   force =     0.01136152    0.00502603   -0.26002001
     atom   12 type  2   force =    -0.01435730   -0.01769369    0.26136188
     atom   13 type  1   force =     0.00972703    0.03097511   -0.00481463
     atom   14 type  2   force =     0.00820307   -0.00767677   -0.26699743
     atom   15 type  2   force =    -0.00931938   -0.00897096    0.26065943
     atom   16 type  1   force =     0.00590547    0.02618655   -0.00621890
     atom   17 type  2   force =    -0.36369474    0.02182840    0.16147213
     atom   18 type  2   force =    -0.00058810   -0.00024587    0.27524085
     atom   19 type  1   force =     0.00424313    0.00089889   -0.01290890
     atom   20 type  2   force =     0.00233218   -0.02293954    0.26553302
     atom   21 type  1   force =     0.00053591    0.02804451    0.00437324
     atom   22 type  2   force =    -0.00549848    0.00141678   -0.26126429
     atom   23 type  2   force =     0.00847804   -0.01921002    0.26678281
     atom   24 type  1   force =     0.00063575    0.01527894   -0.01010096
     atom   25 type  2   force =     0.00259007   -0.00953276   -0.26759541
     atom   26 type  2   force =     0.00217581   -0.01382820    0.26106706
     atom   27 type  1   force =    -0.00211764    0.00346884    0.03383152
     atom   28 type  2   force =     0.04655497   -0.02014089   -0.23611662
     atom   29 type  2   force =     0.00295416   -0.00085284    0.25736803
     atom   30 type  1   force =     0.00275342    0.01250906    0.00988404
     atom   31 type  2   force =    -0.00454525    0.01724948   -0.26379049
     atom   32 type  2   force =     0.00049117   -0.00497935    0.26839903
     atom   33 type  1   force =    -0.00959737    0.00670288    0.00106067
     atom   34 type  2   force =    -0.00095404   -0.02749341   -0.27902367
     atom   35 type  2   force =    -0.00029364   -0.01083024    0.26804549
     atom   36 type  3   force =     1.31064512   -0.00980737   -1.15367377
     The ionic contribution  to forces
     atom    1 type  1   force =     0.17394041    0.08410204    4.57243521
     atom    2 type  2   force =    -0.85673929   -0.22841644   39.09967599
     atom    3 type  2   force =    -0.25416910   -0.11605377  -36.77988447
     atom    4 type  1   force =    -0.99325600    0.85788057   -1.29579699
     atom    5 type  2   force =    -0.79920268    1.49429237   38.25194931
     atom    6 type  2   force =     0.24081784   -0.62786724  -38.55503356
     atom    7 type  1   force =    -2.56667506   -2.05166457    1.43825533
     atom    8 type  2   force =    -1.37377194    0.49175482   37.23218046
     atom    9 type  2   force =     0.24939378    0.12173988  -38.60993694
     atom   10 type  1   force =    -1.08613112   -0.58135766    4.44515124
     atom   11 type  2   force =    -0.50672710   -1.58916050   38.92893810
     atom   12 type  2   force =     0.34891075    0.67292483  -38.28077394
     atom   13 type  1   force =     1.88959203   -0.74207650   -0.35272820
     atom   14 type  2   force =     0.52169906   -0.61628847   38.22158535
     atom   15 type  2   force =     0.28416301   -0.15396192  -37.43750795
     atom   16 type  1   force =     1.22163557    3.81653614   -1.12260069
     atom   17 type  2   force =     6.50459228    1.61651268   32.92609158
     atom   18 type  2   force =     0.21857468   -0.74549326  -39.47568341
     atom   19 type  1   force =     3.20296743   -1.06140385   -0.96001875
     atom   20 type  2   force =     0.36085194    0.03093347  -39.21602479
     atom   21 type  1   force =     0.30456817   -0.35278757    0.32600705
     atom   22 type  2   force =     0.62515034   -1.67546856   38.19485322
     atom   23 type  2   force =     0.01049644    0.64059045  -38.76988986
     atom   24 type  1   force =    -1.75676076   -0.58490501    2.97731734
     atom   25 type  2   force =     0.32265629   -1.66436335   38.49698376
     atom   26 type  2   force =    -0.27717912   -0.25402167  -38.11909776
     atom   27 type  1   force =    -0.31042942    1.61558814   -8.88284601
     atom   28 type  2   force =    -3.38422696    1.03283215   35.90531791
     atom   29 type  2   force =    -0.59526884   -0.53305085  -38.29618897
     atom   30 type  1   force =    -0.86661373    0.08278355   -1.32408140
     atom   31 type  2   force =     1.05647625    1.81667119   36.48987734
     atom   32 type  2   force =    -0.48977908    0.45072995  -39.53838151
     atom   33 type  1   force =     0.53864484   -1.20817082    0.91767378
     atom   34 type  2   force =     0.00918957   -1.19428960   39.07793065
     atom   35 type  2   force =    -0.30868972    0.52015638  -38.25810970
     atom   36 type  3   force =    -1.65870075    0.63477301   47.77236129
     The local contribution  to forces
     atom    1 type  1   force =    -0.17836700   -0.11838305   -4.55878725
     atom    2 type  2   force =     0.85749917    0.24063327  -38.84733525
     atom    3 type  2   force =     0.25559465    0.12681226   36.52363599
     atom    4 type  1   force =     0.97877467   -0.85341254    1.27461732
     atom    5 type  2   force =     0.78992195   -1.47143039  -38.02620898
     atom    6 type  2   force =    -0.23987816    0.62536288   38.31253484
     atom    7 type  1   force =     2.58304574    2.03606593   -1.41992402
     atom    8 type  2   force =     1.37448787   -0.49508094  -36.98098564
     atom    9 type  2   force =    -0.24646048   -0.10777582   38.36106989
     atom   10 type  1   force =     1.07829891    0.58580640   -4.45349542
     atom   11 type  2   force =     0.50016213    1.58196193  -38.70059674
     atom   12 type  2   force =    -0.33860497   -0.65538092   38.04249719
     atom   13 type  1   force =    -1.90210949    0.71080010    0.35780423
     atom   14 type  2   force =    -0.52303289    0.62272035  -37.96682287
     atom   15 type  2   force =    -0.28110969    0.16453366   37.19000951
     atom   16 type  1   force =    -1.23623447   -3.82008013    1.14676050
     atom   17 type  2   force =    -6.22626792   -1.66076804  -33.06702641
     atom   18 type  2   force =    -0.21608573    0.74259491   39.23283087
     atom   19 type  1   force =    -3.20513015    1.04867208    0.97221187
     atom   20 type  2   force =    -0.35708833   -0.01414430   38.96613115
     atom   21 type  1   force =    -0.30919039    0.32765016   -0.32764438
     atom   22 type  2   force =    -0.62195277    1.67036151  -37.95838050
     atom   23 type  2   force =    -0.01779380   -0.62182547   38.52926495
     atom   24 type  1   force =     1.75085538    0.56685269   -2.97796476
     atom   25 type  2   force =    -0.31582519    1.68498645  -38.25041540
     atom   26 type  2   force =     0.26781582    0.26629699   37.87321601
     atom   27 type  1   force =     0.30676511   -1.60474922    8.82245965
     atom   28 type  2   force =     3.31838454   -1.01105075  -35.72101096
     atom   29 type  2   force =     0.59003316    0.53365540   38.04940979
     atom   30 type  1   force =     0.86348919   -0.09058671    1.31822790
     atom   31 type  2   force =    -1.05162785   -1.83422287  -36.23868329
     atom   32 type  2   force =     0.47903267   -0.43381909   39.28867877
     atom   33 type  1   force =    -0.52318821    1.19936014   -0.91863952
     atom   34 type  2   force =    -0.00812014    1.18963825  -38.83473764
     atom   35 type  2   force =     0.30303185   -0.50168562   38.01902234
     atom   36 type  3   force =     0.47615629   -0.63053890  -46.57375845
     The core correction contribution to forces
     atom    1 type  1   force =     0.00000000    0.00000000    0.00000000
     atom    2 type  2   force =     0.00040028   -0.00001417    0.02099963
     atom    3 type  2   force =     0.00061057    0.00011728   -0.02085799
     atom    4 type  1   force =     0.00000000    0.00000000    0.00000000
     atom    5 type  2   force =    -0.00079091    0.00178942    0.02051371
     atom    6 type  2   force =     0.00038666   -0.00114151   -0.02081814
     atom    7 type  1   force =     0.00000000    0.00000000    0.00000000
     atom    8 type  2   force =    -0.00003331    0.00034360    0.02058965
     atom    9 type  2   force =     0.00000205    0.00034709   -0.02091362
     atom   10 type  1   force =     0.00000000    0.00000000    0.00000000
     atom   11 type  2   force =    -0.00046127   -0.00050847    0.02066622
     atom   12 type  2   force =     0.00116263    0.00140733   -0.02082609
     atom   13 type  1   force =     0.00000000    0.00000000    0.00000000
     atom   14 type  2   force =    -0.00051774   -0.00006986    0.02085100
     atom   15 type  2   force =     0.00054154    0.00055852   -0.02055930
     atom   16 type  1   force =     0.00000000    0.00000000    0.00000000
     atom   17 type  2   force =     0.02115532   -0.00084401   -0.00311258
     atom   18 type  2   force =     0.00000847   -0.00072207   -0.02120089
     atom   19 type  1   force =     0.00000000    0.00000000    0.00000000
     atom   20 type  2   force =     0.00004241    0.00100647   -0.02129989
     atom   21 type  1   force =     0.00000000    0.00000000    0.00000000
     atom   22 type  2   force =     0.00007657   -0.00042730    0.02070054
     atom   23 type  2   force =    -0.00059137    0.00144429   -0.02087067
     atom   24 type  1   force =     0.00000000    0.00000000    0.00000000
     atom   25 type  2   force =     0.00012882    0.00046252    0.02120545
     atom   26 type  2   force =    -0.00039339    0.00067623   -0.02075360
     atom   27 type  1   force =     0.00000000    0.00000000    0.00000000
     atom   28 type  2   force =    -0.00117479    0.00167449    0.01961037
     atom   29 type  2   force =    -0.00042506   -0.00054847   -0.02033699
     atom   30 type  1   force =     0.00000000    0.00000000    0.00000000
     atom   31 type  2   force =     0.00020066   -0.00093798    0.02114110
     atom   32 type  2   force =    -0.00034035    0.00049895   -0.02094814
     atom   33 type  1   force =     0.00000000    0.00000000    0.00000000
     atom   34 type  2   force =     0.00032553    0.00084115    0.02138435
     atom   35 type  2   force =    -0.00013528    0.00094367   -0.02100249
     atom   36 type  3   force =    -0.01480512    0.00015947    0.01206714
     The Hubbard contrib.    to forces
     atom    1 type  1   force =     0.00000000    0.00000000    0.00000000
     atom    2 type  2   force =     0.00000000    0.00000000    0.00000000
     atom    3 type  2   force =     0.00000000    0.00000000    0.00000000
     atom    4 type  1   force =     0.00000000    0.00000000    0.00000000
     atom    5 type  2   force =     0.00000000    0.00000000    0.00000000
     atom    6 type  2   force =     0.00000000    0.00000000    0.00000000
     atom    7 type  1   force =     0.00000000    0.00000000    0.00000000
     atom    8 type  2   force =     0.00000000    0.00000000    0.00000000
     atom    9 type  2   force =     0.00000000    0.00000000    0.00000000
     atom   10 type  1   force =     0.00000000    0.00000000    0.00000000
     atom   11 type  2   force =     0.00000000    0.00000000    0.00000000
     atom   12 type  2   force =     0.00000000    0.00000000    0.00000000
     atom   13 type  1   force =     0.00000000    0.00000000    0.00000000
     atom   14 type  2   force =     0.00000000    0.00000000    0.00000000
     atom   15 type  2   force =     0.00000000    0.00000000    0.00000000
     atom   16 type  1   force =     0.00000000    0.00000000    0.00000000
     atom   17 type  2   force =     0.00000000    0.00000000    0.00000000
     atom   18 type  2   force =     0.00000000    0.00000000    0.00000000
     atom   19 type  1   force =     0.00000000    0.00000000    0.00000000
     atom   20 type  2   force =     0.00000000    0.00000000    0.00000000
     atom   21 type  1   force =     0.00000000    0.00000000    0.00000000
     atom   22 type  2   force =     0.00000000    0.00000000    0.00000000
     atom   23 type  2   force =     0.00000000    0.00000000    0.00000000
     atom   24 type  1   force =     0.00000000    0.00000000    0.00000000
     atom   25 type  2   force =     0.00000000    0.00000000    0.00000000
     atom   26 type  2   force =     0.00000000    0.00000000    0.00000000
     atom   27 type  1   force =     0.00000000    0.00000000    0.00000000
     atom   28 type  2   force =     0.00000000    0.00000000    0.00000000
     atom   29 type  2   force =     0.00000000    0.00000000    0.00000000
     atom   30 type  1   force =     0.00000000    0.00000000    0.00000000
     atom   31 type  2   force =     0.00000000    0.00000000    0.00000000
     atom   32 type  2   force =     0.00000000    0.00000000    0.00000000
     atom   33 type  1   force =     0.00000000    0.00000000    0.00000000
     atom   34 type  2   force =     0.00000000    0.00000000    0.00000000
     atom   35 type  2   force =     0.00000000    0.00000000    0.00000000
     atom   36 type  3   force =     0.00000000    0.00000000    0.00000000
     The SCF correction term to forces
     atom    1 type  1   force =     0.00013676   -0.00069393    0.00030275
     atom    2 type  2   force =    -0.00019367    0.00021107    0.00009298
     atom    3 type  2   force =    -0.00004020   -0.00001813    0.00015404
     atom    4 type  1   force =     0.00050447   -0.00027247    0.00021329
     atom    5 type  2   force =     0.00017167   -0.00017537    0.00043923
     atom    6 type  2   force =     0.00016911   -0.00006054   -0.00023678
     atom    7 type  1   force =    -0.00023488    0.00003712   -0.00006820
     atom    8 type  2   force =    -0.00005401   -0.00007459    0.00012318
     atom    9 type  2   force =    -0.00008794    0.00006240   -0.00009611
     atom   10 type  1   force =    -0.00046189    0.00038986   -0.00017128
     atom   11 type  2   force =    -0.00013795    0.00016804    0.00019096
     atom   12 type  2   force =     0.00006747    0.00006888   -0.00001450
     atom   13 type  1   force =    -0.00017903   -0.00069179    0.00023202
     atom   14 type  2   force =     0.00004206   -0.00011077    0.00015092
     atom   15 type  2   force =    -0.00002819   -0.00017501    0.00012254
     atom   16 type  1   force =    -0.00035629    0.00031166    0.00018369
     atom   17 type  2   force =    -0.00041119   -0.00014172    0.00033942
     atom   18 type  2   force =    -0.00030061   -0.00001293   -0.00018288
     atom   19 type  1   force =     0.00018467   -0.00006037    0.00014244
     atom   20 type  2   force =     0.00001336    0.00007513    0.00000060
     atom   21 type  1   force =     0.00010404    0.00060835    0.00022534
     atom   22 type  2   force =     0.00009876    0.00019270    0.00015190
     atom   23 type  2   force =     0.00003314    0.00015576    0.00003906
     atom   24 type  1   force =    -0.00006290    0.00043986    0.00027418
     atom   25 type  2   force =     0.00020163    0.00023761    0.00020331
     atom   26 type  2   force =     0.00006518    0.00007912    0.00007238
     atom   27 type  1   force =    -0.00031125   -0.00038162    0.00021345
     atom   28 type  2   force =     0.00016032   -0.00018243    0.00026451
     atom   29 type  2   force =     0.00016405   -0.00001874    0.00009357
     atom   30 type  1   force =    -0.00000365   -0.00014051   -0.00015342
     atom   31 type  2   force =     0.00009046   -0.00017677    0.00006615
     atom   32 type  2   force =     0.00005588   -0.00022811    0.00004619
     atom   33 type  1   force =     0.00038842    0.00041636    0.00000835
     atom   34 type  2   force =     0.00005993   -0.00002317    0.00023144
     atom   35 type  2   force =    -0.00011544    0.00007470   -0.00009866
     atom   36 type  3   force =    -0.00054367   -0.00018997   -0.00059796

     Total force =     0.170176     Total SCF correction =     0.002463
     Energy error            =      3.7E-02 Ry
     Gradient error          =      1.1E-01 Ry/Bohr

     number of scf cycles    =   2
     number of bfgs steps    =   1

     energy             old  =   -2246.2479261065 Ry
     energy             new  =   -2246.2849951137 Ry

     CASE: energy            _new < energy            _old

     new trust radius        =       0.1331845655 bohr
     new conv_thr            =       0.0000001128 Ry


ATOMIC_POSITIONS (angstrom)
Mo            6.5844079769        1.7655513309        2.8313440236
S             8.1625461227        0.8256548021        4.4353165595
S             8.1795303613        0.8199574870        1.2698578710
Mo            8.0926347012        4.5004281292        2.7075397849
S             6.5051597001        3.7114085483        4.3374963711
S             6.5521722789        3.5219330529        1.1193704268
Mo            6.5008630291        7.2082107216        2.6634122363
S             8.0864192860        6.3403563569        4.2618444040
S             8.0903998241        6.3129074050        1.0910647795
Mo            8.1510203609        9.9117734441        2.8214416728
S             6.5001250323        8.9399801353        4.3730665170
S             6.6163067072        9.0503184189        1.1458421295
Mo            3.4169760953        1.7478008111        2.7738674194
S             4.9848061783        0.8149321334        4.3630493513
S             5.0497956672        0.8486274718        1.2163791261
Mo            4.9734758981        4.5489811310        2.6446927183
S             3.3498159063        3.6354383839        4.3177999488
S             3.4375744583        3.5413768326        1.0728343651
Mo            3.4564443815        7.1980568445        2.6240071616
S             4.9898505763        6.3204482776        1.0349704731
Mo            5.0071819124        9.9076336856        2.7453306868
S             3.4669027453        8.9406658020        4.3223067449
S             3.4077257834        9.0679997523        1.1049419553
Mo            0.2896319682        1.7464105062        2.8323250826
S             1.8653268472        0.8091956172        4.4022107807
S             1.8507832748        0.8541719775        1.2044536224
Mo            1.8500283821        4.5228648372        2.6089805278
S             0.2537476081        3.6530927003        4.3072268018
S             0.2308891955        3.5265555741        1.1674993598
Mo            0.2701858068        7.2254748201        2.7013198764
S             1.9029208634        6.3139118804        4.2379466834
S             1.8502171772        6.3181889865        1.0501864041
Mo            1.8571383557        9.9348395925        2.7670069946
S             0.2984945662        9.0473600270        4.4014154764
S             0.2683137866        9.0528458205        1.1632173088
O             2.2240364192        3.6385597799        5.3987742264



     Writing config-only to output data dir ./MoS2-V-O.save/
     NEW-OLD atomic charge density approx. for the potential

     negative rho (up, down):  1.631E-04 0.000E+00

     total cpu time spent up to now is      191.6 secs

     Self-consistent Calculation

     iteration #  1     ecut=    80.00 Ry     beta= 0.70
     Davidson diagonalization with overlap
     ethr =  1.00E-06,  avg # of iterations = 15.0

     negative rho (up, down):  1.127E-04 0.000E+00

     total cpu time spent up to now is      203.6 secs

     total energy              =   -2246.31152730 Ry
     estimated scf accuracy    <       0.00740747 Ry

     iteration #  2     ecut=    80.00 Ry     beta= 0.70
     Davidson diagonalization with overlap
     ethr =  2.37E-06,  avg # of iterations =  5.0

     negative rho (up, down):  1.169E-04 0.000E+00

     total cpu time spent up to now is      216.9 secs

     total energy              =   -2246.31291898 Ry
     estimated scf accuracy    <       0.00307493 Ry

     iteration #  3     ecut=    80.00 Ry     beta= 0.70
     Davidson diagonalization with overlap
     ethr =  9.86E-07,  avg # of iterations =  4.0

     negative rho (up, down):  9.915E-05 0.000E+00

     total cpu time spent up to now is      236.3 secs

     total energy              =   -2246.31313388 Ry
     estimated scf accuracy    <       0.00030071 Ry

     iteration #  4     ecut=    80.00 Ry     beta= 0.70
     Davidson diagonalization with overlap
     ethr =  9.64E-08,  avg # of iterations =  5.0

     negative rho (up, down):  9.878E-05 0.000E+00

     total cpu time spent up to now is      247.1 secs

     total energy              =   -2246.31317845 Ry
     estimated scf accuracy    <       0.00002903 Ry

     iteration #  5     ecut=    80.00 Ry     beta= 0.70
     Davidson diagonalization with overlap
     ethr =  9.30E-09,  avg # of iterations =  5.0

     negative rho (up, down):  1.047E-04 0.000E+00

     total cpu time spent up to now is      259.5 secs

     total energy              =   -2246.31318528 Ry
     estimated scf accuracy    <       0.00000537 Ry

     iteration #  6     ecut=    80.00 Ry     beta= 0.70
     Davidson diagonalization with overlap
     ethr =  1.72E-09,  avg # of iterations =  4.0

     negative rho (up, down):  1.142E-04 0.000E+00

     total cpu time spent up to now is      272.2 secs

     total energy              =   -2246.31318616 Ry
     estimated scf accuracy    <       0.00000127 Ry

     iteration #  7     ecut=    80.00 Ry     beta= 0.70
     Davidson diagonalization with overlap
     ethr =  4.07E-10,  avg # of iterations =  2.0

     negative rho (up, down):  1.231E-04 0.000E+00

     total cpu time spent up to now is      285.7 secs

     total energy              =   -2246.31318631 Ry
     estimated scf accuracy    <       0.00000054 Ry

     iteration #  8     ecut=    80.00 Ry     beta= 0.70
     Davidson diagonalization with overlap
     ethr =  1.72E-10,  avg # of iterations =  4.0

     negative rho (up, down):  1.432E-04 0.000E+00

     total cpu time spent up to now is      294.3 secs

     total energy              =   -2246.31318633 Ry
     estimated scf accuracy    <       0.00000019 Ry

     iteration #  9     ecut=    80.00 Ry     beta= 0.70
     Davidson diagonalization with overlap
     ethr =  5.95E-11,  avg # of iterations =  5.0

     negative rho (up, down):  2.010E-04 0.000E+00

     total cpu time spent up to now is      297.9 secs

     End of self-consistent calculation

          k = 0.0000 0.0000 0.0000 (105382 PWs)   bands (ev):

   -62.9824 -62.9637 -62.9580 -62.9453 -62.9294 -62.9117 -62.9066 -62.9002
   -62.8924 -62.8848 -62.8656 -62.8356 -37.3344 -37.2927 -37.2289 -37.2217
   -37.2137 -37.2058 -37.1777 -37.1755 -37.1699 -37.1547 -37.1399 -37.1309
   -37.1245 -37.1131 -37.1112 -37.1005 -37.0965 -37.0903 -37.0842 -37.0813
   -37.0766 -37.0690 -37.0490 -37.0364 -37.0292 -37.0147 -36.9963 -36.9868
   -36.9772 -36.9629 -36.9597 -36.9377 -36.9253 -36.9067 -36.8852 -36.8532
   -21.9823 -16.0174 -15.2247 -15.2148 -15.0139 -15.0096 -14.8537 -14.5744
   -14.5394 -14.5146 -14.5000 -14.4581 -14.4339 -14.4078 -14.3578 -14.2590
   -14.2139 -14.1831 -14.1296 -13.9993 -13.9642 -13.9439 -13.9090 -13.6257
    -8.1040  -7.8968  -7.6046  -7.5137  -7.4631  -7.3532  -7.3202  -7.3091
    -7.2814  -7.0961  -6.9383  -6.8695  -6.8477  -6.7262  -6.7133  -6.6134
    -6.5595  -6.5054  -6.4082  -6.3241  -6.1928  -6.1087  -6.0388  -5.9366
    -5.8765  -5.8585  -5.8280  -5.7904  -5.7735  -5.7384  -5.6891  -5.6576
    -5.5941  -5.5022  -5.4501  -5.2808  -5.2167  -5.1748  -5.1435  -5.1165
    -5.0863  -5.0788  -4.9502  -4.8591  -4.6974  -4.6213  -4.4542  -4.3952
    -4.3368  -4.3038  -4.2118  -4.1605  -4.0684  -4.0060  -3.9748  -3.8635
    -3.8326  -3.7556  -3.7071  -3.6677  -3.6260  -3.5883  -3.5529  -3.5259
    -3.5132  -3.4542  -3.3916  -3.2687  -3.1444  -2.9968  -2.9822  -2.9051
    -2.8542  -2.8320  -2.8134  -2.7819  -2.7507  -2.7060  -2.6356  -2.3825
    -2.1902  -2.1073  -2.0429  -1.8066  -1.1565  -0.8592  -0.5468  -0.2516
    -0.1719  -0.1436  -0.1290   0.0311   0.0575   0.1054   0.1389   0.1609
     0.2362   0.2638   0.3552   0.4295   0.4483   0.4662   0.5020   0.5929
     0.6387   0.6520   0.6731   0.6812   0.7225   0.7798   0.8124   0.8511
     0.9488   1.0255   1.1570

     the Fermi energy is    -1.4816 ev

!    total energy              =   -2246.31318628 Ry
     estimated scf accuracy    <       0.00000003 Ry
     smearing contrib. (-TS)   =      -0.00003750 Ry
     internal energy E=F+TS    =   -2246.31314878 Ry

     The total energy is F=E-TS. E is the sum of the following terms:
     one-electron contribution =  -18445.95100682 Ry
     hartree contribution      =    9210.89821739 Ry
     xc contribution           =    -392.08124353 Ry
     ewald contribution        =    7390.68203903 Ry
     one-center paw contrib.   =      -9.86115485 Ry

     convergence has been achieved in   9 iterations

     negative rho (up, down):  2.010E-04 0.000E+00

     Forces acting on atoms (cartesian axes, Ry/au):

     atom    1 type  1   force =    -0.00301603   -0.00262845   -0.00373032
     atom    2 type  2   force =    -0.00409287    0.00624916   -0.00127812
     atom    3 type  2   force =    -0.00891642    0.00628609   -0.01074219
     atom    4 type  1   force =     0.00096620    0.00210533    0.00020157
     atom    5 type  2   force =     0.00109157   -0.00515213   -0.00901537
     atom    6 type  2   force =    -0.00569030    0.00488158    0.00451874
     atom    7 type  1   force =     0.00442284   -0.00618654    0.00190667
     atom    8 type  2   force =     0.00307105   -0.00465028    0.00863402
     atom    9 type  2   force =     0.00898247    0.00718485    0.00064889
     atom   10 type  1   force =    -0.00090570    0.00627275   -0.00096715
     atom   11 type  2   force =     0.00365173   -0.00215476   -0.01085365
     atom   12 type  2   force =    -0.00397866    0.00095353    0.00011908
     atom   13 type  1   force =    -0.00215846   -0.00270539    0.00243874
     atom   14 type  2   force =     0.00359182   -0.00092083    0.00589568
     atom   15 type  2   force =    -0.00436480    0.00124637   -0.00455439
     atom   16 type  1   force =    -0.01003517    0.01154579    0.02134780
     atom   17 type  2   force =    -0.03556745   -0.01121312   -0.01806023
     atom   18 type  2   force =     0.00361126   -0.00050027    0.00928994
     atom   19 type  1   force =     0.00227061   -0.00625197    0.00269629
     atom   20 type  2   force =     0.00528970   -0.00404504   -0.00649381
     atom   21 type  1   force =    -0.00253698    0.00178038    0.00270877
     atom   22 type  2   force =    -0.00042946   -0.00464330   -0.00368423
     atom   23 type  2   force =     0.00171650   -0.00063095    0.00310693
     atom   24 type  1   force =    -0.00507347   -0.00328328   -0.00752945
     atom   25 type  2   force =     0.00499674    0.00764643   -0.00165879
     atom   26 type  2   force =    -0.00532413   -0.00153499   -0.00539739
     atom   27 type  1   force =    -0.00422263    0.00109096   -0.00548825
     atom   28 type  2   force =    -0.01960896    0.00592355   -0.02944302
     atom   29 type  2   force =    -0.00453884   -0.00097931   -0.01388979
     atom   30 type  1   force =    -0.00058732    0.00044748    0.00490301
     atom   31 type  2   force =     0.00081187   -0.00406955    0.00325171
     atom   32 type  2   force =    -0.00842719    0.01709102   -0.00808137
     atom   33 type  1   force =     0.00079334    0.00124542    0.00350386
     atom   34 type  2   force =    -0.00107749   -0.02159461   -0.01413245
     atom   35 type  2   force =    -0.00417077    0.00813077    0.00447567
     atom   36 type  3   force =     0.08945540   -0.00693667    0.07535261
     The non-local contrib.  to forces
     atom    1 type  1   force =     0.00744605    0.02155037   -0.01184301
     atom    2 type  2   force =    -0.00584248   -0.00492445   -0.27326624
     atom    3 type  2   force =    -0.01060872   -0.00468801    0.26521944
     atom    4 type  1   force =     0.01174466    0.00182008    0.01613516
     atom    5 type  2   force =     0.00900998   -0.03019621   -0.25752068
     atom    6 type  2   force =    -0.00631869    0.00902899    0.26732579
     atom    7 type  1   force =    -0.01020748    0.00904868   -0.02142389
     atom    8 type  2   force =     0.00381706   -0.00144872   -0.26202586
     atom    9 type  2   force =     0.00534928   -0.00833726    0.27101164
     atom   10 type  1   force =     0.00322496    0.00263496   -0.00081772
     atom   11 type  2   force =     0.01030112    0.00457054   -0.26063882
     atom   12 type  2   force =    -0.01461489   -0.01801621    0.26048788
     atom   13 type  1   force =     0.00942764    0.03493276   -0.00304676
     atom   14 type  2   force =     0.00474191   -0.00679472   -0.26797438
     atom   15 type  2   force =    -0.00772725   -0.00985557    0.26181741
     atom   16 type  1   force =     0.00557165    0.02346778   -0.01089733
     atom   17 type  2   force =    -0.32270000    0.02505302    0.16529050
     atom   18 type  2   force =    -0.00023948    0.00285210    0.27563507
     atom   19 type  1   force =     0.00503807    0.00046838   -0.01525587
     atom   20 type  2   force =     0.00254474   -0.02004927    0.26359031
     atom   21 type  1   force =    -0.00042188    0.02819159    0.00392044
     atom   22 type  2   force =    -0.00357670   -0.00034125   -0.26204368
     atom   23 type  2   force =     0.00975730   -0.02065444    0.26586397
     atom   24 type  1   force =     0.00093405    0.01570938   -0.01013266
     atom   25 type  2   force =    -0.00059881   -0.01148678   -0.27000043
     atom   26 type  2   force =     0.00409201   -0.01403814    0.26171356
     atom   27 type  1   force =     0.00472390    0.00301311    0.03846568
     atom   28 type  2   force =     0.01184905   -0.01931518   -0.25871125
     atom   29 type  2   force =     0.00176375   -0.00054941    0.25666775
     atom   30 type  1   force =     0.00234271    0.01314928    0.00903569
     atom   31 type  2   force =    -0.00468047    0.01567171   -0.26550897
     atom   32 type  2   force =     0.00282671   -0.00113133    0.26322783
     atom   33 type  1   force =    -0.00917351    0.00639567    0.00045378
     atom   34 type  2   force =    -0.00180428   -0.02001711   -0.28015883
     atom   35 type  2   force =     0.00081179   -0.01099634    0.26675046
     atom   36 type  3   force =     1.46649379   -0.01900004   -1.32616597
     The ionic contribution  to forces
     atom    1 type  1   force =    -0.07630817    0.37769369    4.63741039
     atom    2 type  2   force =    -0.70622662   -0.28718189   39.16054625
     atom    3 type  2   force =    -0.24319589   -0.09434567  -36.87580943
     atom    4 type  1   force =    -1.08296047    0.76227377   -1.38713416
     atom    5 type  2   force =    -0.83907069    1.46309186   38.13542681
[...]
     atom   28 type  2   force =    -0.00161941   -0.00621025   -0.27974314
     atom   29 type  2   force =    -0.00097268   -0.00808512    0.26461868
     atom   30 type  1   force =    -0.00059648    0.01984460    0.00740062
     atom   31 type  2   force =    -0.00626079    0.00010284   -0.27024267
     atom   32 type  2   force =     0.00531793   -0.01402360    0.27000576
     atom   33 type  1   force =    -0.00708284    0.00478521    0.00046325
     atom   34 type  2   force =     0.00114504   -0.00918966   -0.27461934
     atom   35 type  2   force =     0.00018970   -0.01383227    0.26732333
     atom   36 type  3   force =     0.01313177   -0.01778116   -2.31699759
     The ionic contribution  to forces
     atom    1 type  1   force =     0.47016986    0.08487508    1.67284194
     atom    2 type  2   force =    -0.17197528   -0.25876113   38.60584781
     atom    3 type  2   force =     0.00158517   -0.15424788  -37.86782300
     atom    4 type  1   force =     0.02181681    0.50478428   -0.58156483
     atom    5 type  2   force =     0.26610053    1.08269520   37.74935759
     atom    6 type  2   force =     0.24596993   -0.46741954  -38.76440235
     atom    7 type  1   force =    -2.39438664   -1.11343423    1.04268701
     atom    8 type  2   force =    -1.11458040    0.51004280   37.99226181
     atom    9 type  2   force =     0.37208269    0.06689244  -38.48954583
     atom   10 type  1   force =    -0.43572124   -0.49052565    2.12603037
     atom   11 type  2   force =    -0.36233652   -1.41573430   38.34248352
     atom   12 type  2   force =     0.19195080    0.35385908  -38.31265586
     atom   13 type  1   force =     0.15654205   -0.50252243   -1.79577796
     atom   14 type  2   force =     0.56938898   -1.03282594   38.05773044
     atom   15 type  2   force =     0.15443860   -0.19880622  -38.21508940
     atom   16 type  1   force =     0.54962790    3.78812242   -1.96617483
     atom   17 type  2   force =     0.90526018    1.03608715   28.11488120
     atom   18 type  2   force =    -0.12590399   -0.36997015  -38.58837230
     atom   19 type  1   force =     2.71565077   -0.95416286    1.43163883
     atom   20 type  2   force =    -0.02558715    0.17216109  -39.47371321
     atom   21 type  1   force =     0.25327209   -0.79731105    0.62081892
     atom   22 type  2   force =     0.44832934   -1.34884899   38.26010614
     atom   23 type  2   force =    -0.16626032    0.31869782  -38.26559341
     atom   24 type  1   force =    -0.61717214   -0.11912559    0.89842977
     atom   25 type  2   force =    -0.41771361   -0.91050165   38.23774088
     atom   26 type  2   force =    -0.16230309   -0.13879876  -38.38899614
     atom   27 type  1   force =    -0.81517244    0.88018041   -3.62119426
     atom   28 type  2   force =    -0.96857236    0.41822856   37.45650537
     atom   29 type  2   force =    -0.08035967   -0.15930461  -38.38510091
     atom   30 type  1   force =    -0.30056961   -0.08720511    0.92896642
     atom   31 type  2   force =     0.61410487    1.24443108   37.61250932
     atom   32 type  2   force =    -0.32656957    0.16979463  -38.70251183
     atom   33 type  1   force =     0.27282145   -0.91747199    1.61740785
     atom   34 type  2   force =    -0.14268085   -0.44131205   38.65266891
     atom   35 type  2   force =    -0.07344168    0.16920669  -37.97729167
     atom   36 type  3   force =     0.49219457    1.07823139   49.97489371
     The local contribution  to forces
     atom    1 type  1   force =    -0.46841218   -0.10867991   -1.66647469
     atom    2 type  2   force =     0.17244608    0.26730549  -38.35730132
     atom    3 type  2   force =     0.00092860    0.16333025   37.61992450
     atom    4 type  1   force =    -0.02471730   -0.51488465    0.56932302
     atom    5 type  2   force =    -0.26553430   -1.06756360  -37.50990164
     atom    6 type  2   force =    -0.24732095    0.46870452   38.52318358
     atom    7 type  1   force =     2.41179663    1.10076078   -1.02280664
     atom    8 type  2   force =     1.10669565   -0.50981825  -37.74335408
     atom    9 type  2   force =    -0.36467249   -0.05151789   38.24103221
     atom   10 type  1   force =     0.43358530    0.48370289   -2.12723648
     atom   11 type  2   force =     0.35772914    1.41594169  -38.10228638
     atom   12 type  2   force =    -0.18523411   -0.33909001   38.07027032
     atom   13 type  1   force =    -0.15560747    0.47254126    1.78822517
     atom   14 type  2   force =    -0.56931339    1.04188408  -37.80550605
     atom   15 type  2   force =    -0.15295292    0.20866127   37.97390122
     atom   16 type  1   force =    -0.54098672   -3.81195905    1.98709851
     atom   17 type  2   force =    -0.89159758   -1.03711456  -28.40390145
     atom   18 type  2   force =     0.12609913    0.37400186   38.33238675
     atom   19 type  1   force =    -2.72655352    0.95394965   -1.40801491
     atom   20 type  2   force =     0.02475270   -0.15986848   39.23246137
     atom   21 type  1   force =    -0.25401569    0.77310697   -0.62435458
     atom   22 type  2   force =    -0.44370461    1.34920044  -38.01987406
     atom   23 type  2   force =     0.15769895   -0.30533191   38.02014396
     atom   24 type  1   force =     0.61546485    0.10355814   -0.89701726
     atom   25 type  2   force =     0.41681066    0.91915311  -37.98779038
     atom   26 type  2   force =     0.15914006    0.14825646   38.14369989
     atom   27 type  1   force =     0.80623123   -0.87785948    3.59912496
     atom   28 type  2   force =     0.97025224   -0.41209573  -37.19929676
     atom   29 type  2   force =     0.08077246    0.16729688   38.14031296
     atom   30 type  1   force =     0.30121559    0.06697164   -0.93611948
     atom   31 type  2   force =    -0.60785730   -1.24459838  -37.36412690
     atom   32 type  2   force =     0.32089743   -0.15638315   38.45334244
     atom   33 type  1   force =    -0.26627668    0.91290322   -1.61670831
     atom   34 type  2   force =     0.14127234    0.45048736  -38.39789611
     atom   35 type  2   force =     0.07336127   -0.15549874   37.73133330
     atom   36 type  3   force =    -0.50488220   -1.06027015  -47.68520839
     The core correction contribution to forces
     atom    1 type  1   force =     0.00000000    0.00000000    0.00000000
     atom    2 type  2   force =    -0.00000335    0.00030596    0.02096491
     atom    3 type  2   force =     0.00006102    0.00043239   -0.02093697
     atom    4 type  1   force =     0.00000000    0.00000000    0.00000000
     atom    5 type  2   force =    -0.00017520    0.00071089    0.02084508
     atom    6 type  2   force =     0.00017733   -0.00049494   -0.02074849
     atom    7 type  1   force =     0.00000000    0.00000000    0.00000000
     atom    8 type  2   force =    -0.00042481    0.00031533    0.02112341
     atom    9 type  2   force =     0.00076648    0.00080092   -0.02100518
     atom   10 type  1   force =     0.00000000    0.00000000    0.00000000
     atom   11 type  2   force =    -0.00001511   -0.00029603    0.02075835
     atom   12 type  2   force =     0.00054167    0.00107774   -0.02081124
     atom   13 type  1   force =     0.00000000    0.00000000    0.00000000
     atom   14 type  2   force =    -0.00004831    0.00022359    0.02132289
     atom   15 type  2   force =     0.00021538    0.00042363   -0.02065932
     atom   16 type  1   force =     0.00000000    0.00000000    0.00000000
     atom   17 type  2   force =     0.00093252   -0.00017972   -0.01004553
     atom   18 type  2   force =    -0.00005214   -0.00027922   -0.02128073
     atom   19 type  1   force =     0.00000000    0.00000000    0.00000000
     atom   20 type  2   force =    -0.00014445    0.00069649   -0.02115782
     atom   21 type  1   force =     0.00000000    0.00000000    0.00000000
     atom   22 type  2   force =    -0.00004493   -0.00017219    0.02070820
     atom   23 type  2   force =    -0.00066965    0.00095629   -0.02088267
     atom   24 type  1   force =     0.00000000    0.00000000    0.00000000
     atom   25 type  2   force =    -0.00005118    0.00040908    0.02123145
     atom   26 type  2   force =    -0.00029146    0.00047627   -0.02090929
     atom   27 type  1   force =     0.00000000    0.00000000    0.00000000
     atom   28 type  2   force =     0.00014189    0.00050095    0.02156485
     atom   29 type  2   force =     0.00003724    0.00016025   -0.02067980
     atom   30 type  1   force =     0.00000000    0.00000000    0.00000000
     atom   31 type  2   force =     0.00035149    0.00024381    0.02123406
     atom   32 type  2   force =    -0.00048726    0.00078243   -0.02103207
     atom   33 type  1   force =     0.00000000    0.00000000    0.00000000
     atom   34 type  2   force =    -0.00007133    0.00035093    0.02130562
     atom   35 type  2   force =    -0.00004216    0.00079401   -0.02097039
     atom   36 type  3   force =    -0.00013033    0.00016246    0.02460290
     The Hubbard contrib.    to forces
     atom    1 type  1   force =     0.00000000    0.00000000    0.00000000
     atom    2 type  2   force =     0.00000000    0.00000000    0.00000000
     atom    3 type  2   force =     0.00000000    0.00000000    0.00000000
     atom    4 type  1   force =     0.00000000    0.00000000    0.00000000
     atom    5 type  2   force =     0.00000000    0.00000000    0.00000000
     atom    6 type  2   force =     0.00000000    0.00000000    0.00000000
     atom    7 type  1   force =     0.00000000    0.00000000    0.00000000
     atom    8 type  2   force =     0.00000000    0.00000000    0.00000000
     atom    9 type  2   force =     0.00000000    0.00000000    0.00000000
     atom   10 type  1   force =     0.00000000    0.00000000    0.00000000
     atom   11 type  2   force =     0.00000000    0.00000000    0.00000000
     atom   12 type  2   force =     0.00000000    0.00000000    0.00000000
     atom   13 type  1   force =     0.00000000    0.00000000    0.00000000
     atom   14 type  2   force =     0.00000000    0.00000000    0.00000000
     atom   15 type  2   force =     0.00000000    0.00000000    0.00000000
     atom   16 type  1   force =     0.00000000    0.00000000    0.00000000
     atom   17 type  2   force =     0.00000000    0.00000000    0.00000000
     atom   18 type  2   force =     0.00000000    0.00000000    0.00000000
     atom   19 type  1   force =     0.00000000    0.00000000    0.00000000
     atom   20 type  2   force =     0.00000000    0.00000000    0.00000000
     atom   21 type  1   force =     0.00000000    0.00000000    0.00000000
     atom   22 type  2   force =     0.00000000    0.00000000    0.00000000
     atom   23 type  2   force =     0.00000000    0.00000000    0.00000000
     atom   24 type  1   force =     0.00000000    0.00000000    0.00000000
     atom   25 type  2   force =     0.00000000    0.00000000    0.00000000
     atom   26 type  2   force =     0.00000000    0.00000000    0.00000000
     atom   27 type  1   force =     0.00000000    0.00000000    0.00000000
     atom   28 type  2   force =     0.00000000    0.00000000    0.00000000
     atom   29 type  2   force =     0.00000000    0.00000000    0.00000000
     atom   30 type  1   force =     0.00000000    0.00000000    0.00000000
     atom   31 type  2   force =     0.00000000    0.00000000    0.00000000
     atom   32 type  2   force =     0.00000000    0.00000000    0.00000000
     atom   33 type  1   force =     0.00000000    0.00000000    0.00000000
     atom   34 type  2   force =     0.00000000    0.00000000    0.00000000
     atom   35 type  2   force =     0.00000000    0.00000000    0.00000000
     atom   36 type  3   force =     0.00000000    0.00000000    0.00000000
     The SCF correction term to forces
     atom    1 type  1   force =    -0.00000389   -0.00000495    0.00003440
     atom    2 type  2   force =    -0.00000368    0.00000319    0.00000664
     atom    3 type  2   force =     0.00000308   -0.00000417    0.00000449
     atom    4 type  1   force =     0.00001159   -0.00001657    0.00001852
     atom    5 type  2   force =    -0.00001047   -0.00000684    0.00000583
     atom    6 type  2   force =    -0.00000182    0.00000210    0.00001260
     atom    7 type  1   force =    -0.00000896   -0.00000148   -0.00000005
     atom    8 type  2   force =    -0.00000365   -0.00000590    0.00000332
     atom    9 type  2   force =    -0.00000022    0.00000420   -0.00000037
     atom   10 type  1   force =    -0.00000898    0.00000324    0.00000497
     atom   11 type  2   force =    -0.00000301    0.00000882   -0.00000070
     atom   12 type  2   force =     0.00000684    0.00000123    0.00000811
     atom   13 type  1   force =    -0.00000432    0.00000220    0.00004609
     atom   14 type  2   force =    -0.00000768    0.00000467    0.00001439
     atom   15 type  2   force =    -0.00000323   -0.00000409    0.00001596
     atom   16 type  1   force =    -0.00001451   -0.00001272    0.00003943
     atom   17 type  2   force =    -0.00000551   -0.00001209    0.00001194
     atom   18 type  2   force =    -0.00000410    0.00000147    0.00001618
     atom   19 type  1   force =     0.00000248    0.00000047    0.00000488
     atom   20 type  2   force =    -0.00000096    0.00000027    0.00001258
     atom   21 type  1   force =    -0.00001563    0.00001540    0.00002765
     atom   22 type  2   force =     0.00000384    0.00000960    0.00000084
     atom   23 type  2   force =    -0.00000627    0.00000267    0.00000921
     atom   24 type  1   force =     0.00001681    0.00000692    0.00002064
     atom   25 type  2   force =     0.00001046    0.00000689    0.00001064
     atom   26 type  2   force =    -0.00000132   -0.00000571    0.00000532
     atom   27 type  1   force =     0.00000614   -0.00001563    0.00002124
     atom   28 type  2   force =     0.00000984   -0.00000483    0.00000871
     atom   29 type  2   force =     0.00000577   -0.00000053    0.00000722
     atom   30 type  1   force =     0.00000771    0.00000458   -0.00000534
     atom   31 type  2   force =     0.00000581   -0.00001214    0.00000226
     atom   32 type  2   force =     0.00000074   -0.00000110    0.00000401
     atom   33 type  1   force =    -0.00000104    0.00001370    0.00000597
     atom   34 type  2   force =     0.00000562    0.00001372   -0.00000249
     atom   35 type  2   force =     0.00000385    0.00000773   -0.00000217
     atom   36 type  3   force =    -0.00002239   -0.00003912   -0.00001233

     Total force =     0.006498     Total SCF correction =     0.000122
     Energy error            =      7.7E-05 Ry
     Gradient error          =      2.7E-03 Ry/Bohr

     bfgs converged in  23 scf cycles and  22 bfgs steps
     (criteria: energy <  1.0E-04 Ry, force <  1.0E-02 Ry/Bohr)

     End of BFGS Geometry Optimization

     Final energy             =   -2246.4442935559 Ry

     File ./MoS2-V-O.bfgs deleted, as requested
Begin final coordinates

ATOMIC_POSITIONS (angstrom)
Mo            6.5170275027        1.7667944585        2.7699183588
S             8.0916957042        0.8523467948        4.3713344748
S             8.0933346692        0.8484296062        1.1818803792
Mo            8.0816484914        4.4937184544        2.7162530251
S             6.4709570084        3.6928310537        4.3205048435
S             6.5256377117        3.5599619617        1.1099618802
Mo            6.4972465926        7.1833047317        2.6592606552
S             8.0549435807        6.3074205719        4.3044384707
S             8.1183144594        6.3281652870        1.1095565655
Mo            8.1001577269        9.9387425150        2.7685389024
S             6.4933596016        8.9426099088        4.3243135485
S             6.5551604889        9.0378142662        1.1302246522
Mo            3.3816923177        1.7166379314        2.7412527386
S             4.9495160757        0.8179845171        4.3523478196
S             4.9711703715        0.8297464700        1.1651041719
Mo            4.9845525250        4.5665799988        2.6458367267
S             3.4224619520        3.6373260809        4.2148084839
S             3.3983844048        3.5603456302        1.1255487125
Mo            3.4434489444        7.1839375597        2.6736484548
S             4.9652851366        6.3360713228        1.0313402132
Mo            4.9638278157        9.9093024571        2.7391566845
S             3.4278398346        8.9501830143        4.3268438913
S             3.3685365874        9.0340052658        1.1337484999
Mo            0.2251481446        1.7455146035        2.7668646666
S             1.8122272056        0.8423766667        4.3661819640
S             1.7867825849        0.8313548826        1.1590473335
Mo            1.8081254551        4.5120929892        2.6975624524
S             0.2314593478        3.6130343339        4.3161284180
S             0.2176875133        3.5554469836        1.1404285920
Mo            0.2401574983        7.2173701590        2.7363017245
S             1.8769363322        6.3014048809        4.3123141328
S             1.8244136073        6.3439640250        1.1031226957
Mo            1.8088884605        9.9367953747        2.7637872280
S             0.2301026455        9.0247367055        4.3575784377
S             0.2251472290        9.0501340731        1.1698585783
O             3.4105737071        3.6554275414        5.7153414953
End final coordinates



     Writing all to output data dir ./MoS2-V-O.save/
 
     init_run     :      4.55s CPU      5.06s WALL (       1 calls)
     electrons    :   2124.60s CPU   2404.17s WALL (      23 calls)
     update_pot   :     67.02s CPU     71.52s WALL (      22 calls)
     forces       :     62.67s CPU     71.65s WALL (      23 calls)

     Called by init_run:
     wfcinit      :      0.48s CPU      0.54s WALL (       1 calls)
     potinit      :      2.33s CPU      2.57s WALL (       1 calls)
     hinit0       :      0.43s CPU      0.46s WALL (       1 calls)

     Called by electrons:
     c_bands      :    311.85s CPU    319.79s WALL (     215 calls)
     sum_band     :    120.63s CPU    156.11s WALL (     215 calls)
     v_of_rho     :    201.74s CPU    246.44s WALL (     231 calls)
     newd         :     71.49s CPU    104.60s WALL (     231 calls)
     PAW_pot      :      9.15s CPU      9.19s WALL (     253 calls)
     mix_rho      :   1432.55s CPU   1592.96s WALL (     215 calls)

     Called by c_bands:
     init_us_2    :      4.94s CPU      5.29s WALL (     453 calls)
     init_us_2:cp :      4.94s CPU      5.29s WALL (     453 calls)
     regterg      :    295.73s CPU    303.29s WALL (     215 calls)

     Called by *egterg:
     rdiaghg      :     20.30s CPU     20.50s WALL (    1129 calls)
     h_psi        :    191.63s CPU    193.36s WALL (    1159 calls)
     s_psi        :     18.23s CPU     18.30s WALL (    1159 calls)
     g_psi        :      0.93s CPU      0.95s WALL (     943 calls)

     Called by h_psi:
     h_psi:calbec :     20.90s CPU     21.03s WALL (    1159 calls)
     vloc_psi     :    150.15s CPU    151.61s WALL (    1159 calls)
     add_vuspsi   :     18.20s CPU     18.32s WALL (    1159 calls)

     General routines
     calbec       :     30.41s CPU     30.59s WALL (    1488 calls)
     fft          :    136.10s CPU    158.21s WALL (   15431 calls)
     ffts         :    640.77s CPU    795.45s WALL (  350529 calls)
     fftw         :     96.27s CPU     97.16s WALL (  132402 calls)
     interpolate  :      2.87s CPU      3.31s WALL (     231 calls)
 
     Parallel routines
 
     PWSCF        :  37m48.84s CPU  42m47.26s WALL

 
   This run was terminated on:  15:53:14   1Nov2023            

=------------------------------------------------------------------------------=
   JOB DONE.
=------------------------------------------------------------------------------=
