
     Program PWSCF v.7.2 starts on  1Nov2023 at 17:54: 1 

     This program is part of the open-source Quantum ESPRESSO suite
     for quantum simulation of materials; please cite
         "P. Giannozzi et al., J. Phys.:Condens. Matter 21 395502 (2009);
         "P. Giannozzi et al., J. Phys.:Condens. Matter 29 465901 (2017);
         "P. Giannozzi et al., J. Chem. Phys. 152 154105 (2020);
          URL http://www.quantum-espresso.org", 
     in publications or presentations arising from this work. More details at
     http://www.quantum-espresso.org/quote

     Parallel version (MPI & OpenMP), running on      48 processor cores
     Number of MPI processes:                48
     Threads/MPI process:                     1

     MPI processes distributed on     1 nodes
     59043 MiB available memory on the printing compute node when the environment starts
 
     Waiting for input...
     Reading input from standard input
Warning: card &CELL ignored
Warning: card CELL_DYNAMICS = 'BFGS', ignored
Warning: card CELL_DOFREE = '2DXY' ignored
Warning: card / ignored

     Current dimensions of program PWSCF are:
     Max number of different atomic species (ntypx) = 10
     Max number of k-points (npk) =  40000
     Max angular momentum in pseudopotentials (lmaxx) =  4
     file O.pbe-n-kjpaw_psl.0.1.UPF: wavefunction(s)  2P renormalized

     IMPORTANT: XC functional enforced from input :
     Exchange-correlation= RVV10
                           (   1   4  13   4  26   0   0)
     Any further DFT definition will be discarded
     Please, verify this is what you really want


     gamma-point specific algorithms are used
     signal trapping enabled: kill the code with -SIGUSR1 to stop cleanly the simulation 
 
     R & G space division:  proc/nbgrp/npool/nimage =      48
     Subspace diagonalization in iterative solution of the eigenvalue problem:
     one sub-group per band group will be used
     scalapack distributed-memory algorithm (size of sub-group:  2*  2 procs)

 
     Parallelization info
     --------------------
     sticks:   dense  smooth     PW     G-vecs:    dense   smooth      PW
     Min         396     194     47               101632    35090    4376
     Max         398     196     50               101674    35128    4410
     Sum       19091    9389   2349              4879585  1685513  210763
 
     Using Slab Decomposition
 


     bravais-lattice index     =            0
     lattice parameter (alat)  =      17.8707  a.u.
     unit-cell volume          =   17436.2743 (a.u.)^3
     number of atoms/cell      =           36
     number of atomic types    =            3
     number of electrons       =       312.00
     number of Kohn-Sham states=          187
     kinetic-energy cutoff     =      80.0000  Ry
     charge density cutoff     =     650.0000  Ry
     scf convergence threshold =      1.0E-06
     mixing beta               =       0.7000
     number of iterations used =            8  local-TF  mixing
     energy convergence thresh.=      1.0E-04
     force convergence thresh. =      1.0E-02
     Exchange-correlation= RVV10
                           (   1   4  13   4  26   0   0)
     nstep                     =          200


     celldm(1)=  17.870686  celldm(2)=   0.000000  celldm(3)=   0.000000
     celldm(4)=   0.000000  celldm(5)=   0.000000  celldm(6)=   0.000000

     crystal axes: (cart. coord. in units of alat)
               a(1) = (   1.000000   0.000000   0.000000 )  
               a(2) = (   0.000000   1.155671   0.000000 )  
               a(3) = (   0.000000   0.000000   2.643601 )  

     reciprocal axes: (cart. coord. in units 2 pi/alat)
               b(1) = (  1.000000  0.000000  0.000000 )  
               b(2) = (  0.000000  0.865298  0.000000 )  
               b(3) = (  0.000000  0.000000  0.378272 )  


     PseudoPot. # 1 for Mo read from file:
     ../pseudo/Mo_ONCV_PBE-1.0.oncvpsp.upf
     MD5 check sum: 1b5d28e075c9ccadda658a603575cd1f
     Pseudo is Norm-conserving, Zval = 14.0
     Generated using ONCVPSP code by D. R. Hamann
     Using radial grid of 1526 points,  6 beta functions with: 
                l(1) =   0
                l(2) =   0
                l(3) =   1
                l(4) =   1
                l(5) =   2
                l(6) =   2

     PseudoPot. # 2 for S  read from file:
     ../pseudo/s_pbe_v1.4.uspp.F.UPF
     MD5 check sum: 88d86576ff6df21479756cfb9bdac1df
     Pseudo is Ultrasoft + core correction, Zval =  6.0
     Generated by new atomic code, or converted to UPF format
     Using radial grid of  907 points,  6 beta functions with: 
                l(1) =   0
                l(2) =   0
                l(3) =   1
                l(4) =   1
                l(5) =   2
                l(6) =   2
     Q(r) pseudized with  8 coefficients,  rinner =    1.300   1.300   1.300
                                                       1.300   1.300

     PseudoPot. # 3 for O  read from file:
     ../pseudo/O.pbe-n-kjpaw_psl.0.1.UPF
     MD5 check sum: 0234752ac141de4415c5fc33072bef88
     Pseudo is Projector augmented-wave + core cor, Zval =  6.0
     Generated using "atomic" code by A. Dal Corso  v.5.0.99 svn rev. 10869
     Shape of augmentation charge: BESSEL
     Using radial grid of 1095 points,  4 beta functions with: 
                l(1) =   0
                l(2) =   0
                l(3) =   1
                l(4) =   1
     Q(r) pseudized with 0 coefficients 


     atomic species   valence    mass     pseudopotential
        Mo            14.00    95.94000     Mo( 1.00)
        S              6.00    32.06500     S ( 1.00)
        O              6.00    15.99940     O ( 1.00)

     No symmetry found



   Cartesian axes

     site n.     atom                  positions (alat units)
         1           Mo  tau(   1) = (   0.6952221   0.1890506   0.2985846  )
         2           S   tau(   2) = (   0.8646417   0.0856217   0.4689279  )
         3           S   tau(   3) = (   0.8663890   0.0857843   0.1351291  )
         4           Mo  tau(   4) = (   0.8560186   0.4753274   0.2873942  )
         5           S   tau(   5) = (   0.6873294   0.3936244   0.4596353  )
         6           S   tau(   6) = (   0.6929804   0.3713468   0.1185692  )
         7           Mo  tau(   7) = (   0.6862796   0.7633098   0.2825370  )
         8           S   tau(   8) = (   0.8545980   0.6708292   0.4486168  )
         9           S   tau(   9) = (   0.8545123   0.6666874   0.1146125  )
        10           Mo  tau(  10) = (   0.8629403   1.0471007   0.3006803  )
        11           S   tau(  11) = (   0.6868280   0.9456650   0.4634891  )
        12           S   tau(  12) = (   0.6998113   0.9568511   0.1205389  )
        13           Mo  tau(  13) = (   0.3618216   0.1847309   0.2935964  )
        14           S   tau(  14) = (   0.5260962   0.0863870   0.4600448  )
        15           S   tau(  15) = (   0.5348379   0.0894875   0.1297123  )
        16           Mo  tau(  16) = (   0.5265817   0.4772436   0.2784130  )
        17           S   tau(  17) = (   0.3624753   0.3882513   0.4525556  )
        18           S   tau(  18) = (   0.3635411   0.3752055   0.1119148  )
        19           Mo  tau(  19) = (   0.3652268   0.7630864   0.2781795  )
        20           S   tau(  20) = (   0.5269494   0.6690381   0.1096838  )
        21           Mo  tau(  21) = (   0.5300192   1.0470394   0.2900995  )
        22           S   tau(  22) = (   0.3670346   0.9457522   0.4574073  )
        23           S   tau(  23) = (   0.3604225   0.9585725   0.1159032  )
        24           Mo  tau(  24) = (   0.0313099   0.1847895   0.3013130  )
        25           S   tau(  25) = (   0.1956761   0.0838230   0.4650863  )
        26           S   tau(  26) = (   0.1967693   0.0903508   0.1278874  )
        27           Mo  tau(  27) = (   0.1967578   0.4753919   0.2813011  )
        28           S   tau(  28) = (   0.0287851   0.3864324   0.4586755  )
        29           S   tau(  29) = (   0.0244514   0.3729871   0.1239344  )
        30           Mo  tau(  30) = (   0.0286728   0.7631204   0.2856894  )
        31           S   tau(  31) = (   0.2011512   0.6675435   0.4465001  )
        32           S   tau(  32) = (   0.1969214   0.6672839   0.1104564  )
        33           Mo  tau(  33) = (   0.1950294   1.0511147   0.2932237  )
        34           S   tau(  34) = (   0.0312912   0.9612169   0.4667423  )
        35           S   tau(  35) = (   0.0292670   0.9563028   0.1216485  )
        36           O   tau(  36) = (   0.3333333   0.6420393   0.5792558  )

     number of k points=     1  Gaussian smearing, width (Ry)=  0.0100
                       cart. coord. in units 2pi/alat
        k(    1) = (   0.0000000   0.0000000   0.0000000), wk =   2.0000000

     Dense  grid:  2439793 G-vectors     FFT dimensions: ( 150, 180, 384)

     Smooth grid:   842757 G-vectors     FFT dimensions: ( 108, 120, 270)

     Estimated max dynamical RAM per process >     269.22 MB

     Estimated total dynamical RAM >      12.62 GB

     Initial potential from superposition of free atoms

     starting charge     311.9873, renormalised to     312.0000

     negative rho (up, down):  2.748E-04 0.000E+00


---------------------------------------------------------------------------------
Carrying out rVV10 run using the following parameters:
Nqs =      20    Nr_points =    1024   r_max =   100.000
b_value =  6.30000    beta =  0.00901
     q_mesh =  0.00010000  0.00030000  0.00058939  0.00100810
               0.00161396  0.00249058  0.00375900  0.00559430
               0.00824984  0.01209221  0.01765183  0.02569619
               0.03733578  0.05417739  0.07854596  0.11380545
               0.16482331  0.23864234  0.34545298  0.50000000

Gradients computed in Reciprocal space

---------------------------------------------------------------------------------


     Starting wfcs are  216 randomized atomic wfcs
     Checking if some PAW data can be deallocated... 

     total cpu time spent up to now is        5.3 secs

     Self-consistent Calculation

     iteration #  1     ecut=    80.00 Ry     beta= 0.70
     Davidson diagonalization with overlap
     ethr =  1.00E-02,  avg # of iterations =  2.0

     Threshold (ethr) on eigenvalues was too large:
     Diagonalizing with lowered threshold

     Davidson diagonalization with overlap
     ethr =  4.48E-04,  avg # of iterations =  4.0

     negative rho (up, down):  3.378E-08 0.000E+00

     total cpu time spent up to now is       19.3 secs

     total energy              =   -2246.26087353 Ry
     estimated scf accuracy    <       1.64810382 Ry

     iteration #  2     ecut=    80.00 Ry     beta= 0.70
     Davidson diagonalization with overlap
     ethr =  5.28E-04,  avg # of iterations =  4.0

     total cpu time spent up to now is       24.2 secs

     total energy              =   -2246.27297670 Ry
     estimated scf accuracy    <       0.72639010 Ry

     iteration #  3     ecut=    80.00 Ry     beta= 0.70
     Davidson diagonalization with overlap
     ethr =  2.33E-04,  avg # of iterations =  2.0

     total cpu time spent up to now is       28.2 secs

     total energy              =   -2246.25546970 Ry
     estimated scf accuracy    <       0.24831517 Ry

     iteration #  4     ecut=    80.00 Ry     beta= 0.70
     Davidson diagonalization with overlap
     ethr =  7.96E-05,  avg # of iterations =  2.0

     total cpu time spent up to now is       32.2 secs

     total energy              =   -2246.29841346 Ry
     estimated scf accuracy    <       0.03079270 Ry

     iteration #  5     ecut=    80.00 Ry     beta= 0.70
     Davidson diagonalization with overlap
     ethr =  9.87E-06,  avg # of iterations = 14.0

     total cpu time spent up to now is       37.0 secs

     total energy              =   -2246.29984977 Ry
     estimated scf accuracy    <       0.01814590 Ry

     iteration #  6     ecut=    80.00 Ry     beta= 0.70
     Davidson diagonalization with overlap
     ethr =  5.82E-06,  avg # of iterations =  2.0

     total cpu time spent up to now is       40.6 secs

     total energy              =   -2246.29966816 Ry
     estimated scf accuracy    <       0.01167390 Ry

     iteration #  7     ecut=    80.00 Ry     beta= 0.70
     Davidson diagonalization with overlap
     ethr =  3.74E-06,  avg # of iterations =  2.0

     total cpu time spent up to now is       44.3 secs

     total energy              =   -2246.29900256 Ry
     estimated scf accuracy    <       0.00806822 Ry

     iteration #  8     ecut=    80.00 Ry     beta= 0.70
     Davidson diagonalization with overlap
     ethr =  2.59E-06,  avg # of iterations =  1.0

     negative rho (up, down):  7.188E-04 0.000E+00

     total cpu time spent up to now is       50.5 secs

     total energy              =   -2246.29745445 Ry
     estimated scf accuracy    <       0.00530774 Ry

     iteration #  9     ecut=    80.00 Ry     beta= 0.70
     Davidson diagonalization with overlap
     ethr =  1.70E-06,  avg # of iterations =  2.0

     negative rho (up, down):  1.147E-02 0.000E+00

     total cpu time spent up to now is       56.7 secs

     total energy              =   -2246.29739159 Ry
     estimated scf accuracy    <       0.00266662 Ry

     iteration # 10     ecut=    80.00 Ry     beta= 0.70
     Davidson diagonalization with overlap
     ethr =  8.55E-07,  avg # of iterations =  1.0

     negative rho (up, down):  2.017E-02 0.000E+00

     total cpu time spent up to now is       62.7 secs

     total energy              =   -2246.29732581 Ry
     estimated scf accuracy    <       0.00128080 Ry

     iteration # 11     ecut=    80.00 Ry     beta= 0.70
     Davidson diagonalization with overlap
     ethr =  4.11E-07,  avg # of iterations =  2.0

     negative rho (up, down):  1.813E-02 0.000E+00

     total cpu time spent up to now is       69.0 secs

     total energy              =   -2246.29741105 Ry
     estimated scf accuracy    <       0.00041776 Ry

     iteration # 12     ecut=    80.00 Ry     beta= 0.70
     Davidson diagonalization with overlap
     ethr =  1.34E-07,  avg # of iterations =  3.0

     negative rho (up, down):  5.672E-03 0.000E+00

     total cpu time spent up to now is       75.8 secs

     total energy              =   -2246.29739866 Ry
     estimated scf accuracy    <       0.00009224 Ry

     iteration # 13     ecut=    80.00 Ry     beta= 0.70
     Davidson diagonalization with overlap
     ethr =  2.96E-08,  avg # of iterations =  5.0

     negative rho (up, down):  2.123E-03 0.000E+00

     total cpu time spent up to now is       83.0 secs

     total energy              =   -2246.29744854 Ry
     estimated scf accuracy    <       0.00002303 Ry

     iteration # 14     ecut=    80.00 Ry     beta= 0.70
     Davidson diagonalization with overlap
     ethr =  7.38E-09,  avg # of iterations =  5.0

     negative rho (up, down):  7.924E-04 0.000E+00

     total cpu time spent up to now is       93.7 secs

     total energy              =   -2246.29745851 Ry
     estimated scf accuracy    <       0.00000908 Ry

     iteration # 15     ecut=    80.00 Ry     beta= 0.70
     Davidson diagonalization with overlap
     ethr =  2.91E-09,  avg # of iterations =  2.0

     negative rho (up, down):  5.664E-04 0.000E+00

     total cpu time spent up to now is      102.0 secs

     total energy              =   -2246.29746558 Ry
     estimated scf accuracy    <       0.00000366 Ry

     iteration # 16     ecut=    80.00 Ry     beta= 0.70
     Davidson diagonalization with overlap
     ethr =  1.17E-09,  avg # of iterations =  3.0

     negative rho (up, down):  1.937E-04 0.000E+00

     total cpu time spent up to now is      105.5 secs

     End of self-consistent calculation

          k = 0.0000 0.0000 0.0000 (105382 PWs)   bands (ev):

   -63.0963 -63.0166 -63.0054 -62.9960 -62.9841 -62.9794 -62.9589 -62.9509
   -62.9420 -62.9154 -62.9042 -62.8705 -37.3894 -37.3406 -37.3217 -37.2942
   -37.2846 -37.2673 -37.2530 -37.2202 -37.2123 -37.2090 -37.2046 -37.1930
   -37.1812 -37.1792 -37.1773 -37.1667 -37.1579 -37.1463 -37.1427 -37.1291
   -37.1139 -37.1060 -37.0958 -37.0808 -37.0749 -37.0696 -37.0590 -37.0461
   -37.0290 -37.0267 -37.0105 -37.0013 -36.9866 -36.9243 -36.8886 -36.8468
   -19.6074 -16.0801 -15.3125 -15.2600 -15.0601 -15.0366 -14.9159 -14.6232
   -14.5901 -14.5752 -14.5478 -14.5036 -14.4695 -14.4497 -14.3720 -14.2827
   -14.2704 -14.2411 -14.2038 -14.1602 -14.0209 -13.9930 -13.9583 -13.9357
    -7.8684  -7.6910  -7.5646  -7.5178  -7.4028  -7.3451  -7.3243  -7.2969
    -7.1853  -6.9995  -6.9553  -6.9311  -6.8707  -6.7585  -6.6667  -6.5794
    -6.5503  -6.5144  -6.3970  -6.3186  -6.1345  -6.1232  -6.0267  -5.9629
    -5.8983  -5.8800  -5.8705  -5.8601  -5.7968  -5.7691  -5.7002  -5.6725
    -5.6663  -5.6158  -5.5637  -5.3238  -5.3124  -5.2487  -5.1539  -5.1106
    -5.0952  -5.0399  -5.0190  -4.8638  -4.7764  -4.6181  -4.4560  -4.4218
    -4.3894  -4.2821  -4.2107  -4.1712  -4.1303  -4.0074  -3.9588  -3.9035
    -3.8559  -3.8249  -3.7285  -3.7156  -3.6746  -3.6145  -3.6042  -3.5799
    -3.5383  -3.5079  -3.3995  -3.2542  -3.1622  -3.0647  -2.9932  -2.9424
    -2.9076  -2.9009  -2.8507  -2.8469  -2.7834  -2.7320  -2.6241  -2.4769
    -2.3794  -2.1389  -2.0767  -1.7232  -1.1947  -0.9049  -0.7415  -0.3308
    -0.2728  -0.2253  -0.1338  -0.0520   0.0181   0.0359   0.1130   0.1330
     0.1464   0.2393   0.2769   0.3363   0.3794   0.4012   0.4512   0.4774
     0.5247   0.5713   0.6278   0.6554   0.6906   0.7095   0.7712   0.7829
     0.8342   0.9419   1.0568

     the Fermi energy is    -1.4589 ev

!    total energy              =   -2246.29746385 Ry
     estimated scf accuracy    <       0.00000097 Ry
     smearing contrib. (-TS)   =      -0.00025948 Ry
     internal energy E=F+TS    =   -2246.29720437 Ry

     The total energy is F=E-TS. E is the sum of the following terms:
     one-electron contribution =  -18416.60855056 Ry
     hartree contribution      =    9195.84784293 Ry
     xc contribution           =    -391.84282618 Ry
     ewald contribution        =    7376.17804497 Ry
     one-center paw contrib.   =      -9.87171553 Ry

     convergence has been achieved in  16 iterations

     negative rho (up, down):  1.937E-04 0.000E+00

     Forces acting on atoms (cartesian axes, Ry/au):

     atom    1 type  1   force =     0.01233497   -0.02496832    0.00500979
     atom    2 type  2   force =    -0.01470860    0.01734259   -0.00118789
     atom    3 type  2   force =    -0.01095038    0.00810834   -0.00149703
     atom    4 type  1   force =     0.00714206    0.00367163   -0.00118608
     atom    5 type  2   force =    -0.00078106   -0.00532996   -0.00499833
     atom    6 type  2   force =    -0.00012275    0.01011555   -0.00059030
     atom    7 type  1   force =     0.01079617   -0.02350265   -0.01110374
     atom    8 type  2   force =    -0.00788501   -0.00273544    0.01177705
     atom    9 type  2   force =     0.01425963    0.00736191    0.01253076
     atom   10 type  1   force =    -0.01139613    0.00623124   -0.02498411
     atom   11 type  2   force =     0.00384266   -0.00152722   -0.00662170
     atom   12 type  2   force =    -0.00355011    0.00361560    0.00722913
     atom   13 type  1   force =     0.00376259    0.00356037   -0.00938276
     atom   14 type  2   force =     0.00735234    0.00034745    0.01321456
     atom   15 type  2   force =    -0.01132957    0.00313275   -0.00815081
     atom   16 type  1   force =     0.00482814    0.01531428    0.00937909
     atom   17 type  2   force =     0.00578401   -0.00262250   -0.00315511
     atom   18 type  2   force =    -0.00391151   -0.00610496    0.01004446
     atom   19 type  1   force =    -0.00966830   -0.00245075   -0.00690526
     atom   20 type  2   force =     0.00470876   -0.00483646    0.00168864
     atom   21 type  1   force =    -0.00312207    0.00928232   -0.00456157
     atom   22 type  2   force =    -0.00454287   -0.00069542   -0.00341973
     atom   23 type  2   force =     0.00195144   -0.00087034    0.01086980
     atom   24 type  1   force =    -0.01257241   -0.00083566   -0.02136389
     atom   25 type  2   force =     0.01733238    0.01811799    0.00871737
     atom   26 type  2   force =    -0.01133685   -0.00026433   -0.00460085
     atom   27 type  1   force =    -0.00071147   -0.00473564    0.00799736
     atom   28 type  2   force =     0.00139707   -0.00415578   -0.00363977
     atom   29 type  2   force =    -0.00101163   -0.00203202   -0.00326982
     atom   30 type  1   force =    -0.02355269    0.02957107    0.01578498
     atom   31 type  2   force =     0.15669523   -0.04282888    0.08500560
     atom   32 type  2   force =    -0.00854207    0.00624122    0.00884103
     atom   33 type  1   force =     0.01478189   -0.01102243   -0.00889162
     atom   34 type  2   force =     0.00088284   -0.03665849   -0.01197437
     atom   35 type  2   force =    -0.00463269    0.00418020    0.01090664
     atom   36 type  3   force =    -0.12352400    0.03198273   -0.07751153
     The non-local contrib.  to forces
     atom    1 type  1   force =    -0.00018425    0.03215298   -0.00914256
     atom    2 type  2   force =    -0.01125273   -0.00057141   -0.27649651
     atom    3 type  2   force =    -0.01305273   -0.00240719    0.26831917
     atom    4 type  1   force =    -0.00525853    0.00372094    0.00490149
     atom    5 type  2   force =     0.00762557   -0.03260505   -0.25810561
     atom    6 type  2   force =    -0.00442330    0.01363754    0.26377407
     atom    7 type  1   force =    -0.04206372    0.00755282   -0.01896820
     atom    8 type  2   force =     0.00109195   -0.00537097   -0.25462815
     atom    9 type  2   force =     0.01130678   -0.00416238    0.27932083
     atom   10 type  1   force =    -0.00252637    0.01198145   -0.00272464
     atom   11 type  2   force =     0.01154501    0.00596846   -0.26536953
     atom   12 type  2   force =    -0.01133892   -0.01618281    0.26294641
     atom   13 type  1   force =     0.00602225    0.03190625   -0.00451041
     atom   14 type  2   force =     0.00951130   -0.01061963   -0.26456765
     atom   15 type  2   force =    -0.01383069   -0.00571351    0.26157420
     atom   16 type  1   force =    -0.00580713    0.02242881   -0.03449518
     atom   17 type  2   force =     0.00492393   -0.02589229   -0.26181397
     atom   18 type  2   force =    -0.00739939   -0.00325018    0.27644026
     atom   19 type  1   force =    -0.00607688   -0.00732997   -0.01413251
     atom   20 type  2   force =     0.00073076   -0.02275835    0.26472404
     atom   21 type  1   force =     0.00409977    0.02236061    0.00807135
     atom   22 type  2   force =    -0.00749695    0.01333894   -0.26175123
     atom   23 type  2   force =     0.00492213   -0.02002433    0.27017182
     atom   24 type  1   force =     0.00587832    0.01180176   -0.00962775
     atom   25 type  2   force =     0.00665819    0.00362876   -0.26182338
     atom   26 type  2   force =    -0.00407082   -0.01317212    0.26282111
     atom   27 type  1   force =    -0.00449364    0.01759147    0.01751472
     atom   28 type  2   force =     0.00847224   -0.02104620   -0.27729028
     atom   29 type  2   force =     0.00159871   -0.00084452    0.26101292
     atom   30 type  1   force =    -0.00302880   -0.00961069   -0.01733852
     atom   31 type  2   force =     0.29236206   -0.06880930    0.25237617
     atom   32 type  2   force =    -0.00311482   -0.00857692    0.27912574
     atom   33 type  1   force =     0.00034465    0.01538140    0.00391526
     atom   34 type  2   force =    -0.00254532   -0.03759887   -0.27305907
     atom   35 type  2   force =    -0.00462254   -0.01516595    0.27249913
     atom   36 type  3   force =    -1.11867827    0.17578317   -1.00506374
     The ionic contribution  to forces
     atom    1 type  1   force =     0.65582357   -0.18531102    4.67302337
     atom    2 type  2   force =    -0.69606544    0.36611508   39.10242588
     atom    3 type  2   force =    -0.17708415   -0.00049493  -36.54813574
     atom    4 type  1   force =    -0.04349027    0.08424216   -0.77935547
     atom    5 type  2   force =    -0.44508918    0.94045946   38.35923799
     atom    6 type  2   force =     0.44425891   -0.65649512  -38.63563376
     atom    7 type  1   force =    -1.68262633   -2.23804928    0.68042206
     atom    8 type  2   force =    -1.11821149    0.09989515   36.95957817
     atom    9 type  2   force =     0.31694711   -0.01583852  -38.66981507
     atom   10 type  1   force =    -1.17537464    0.14386256    4.65487069
     atom   11 type  2   force =    -0.16698070   -1.08637490   38.81786832
     atom   12 type  2   force =     0.52607446    0.84443517  -38.42935359
     atom   13 type  1   force =     0.55039627    0.22166666    1.48126109
     atom   14 type  2   force =     0.23036902   -0.08392178   38.27335021
     atom   15 type  2   force =     0.22080389   -0.09105603  -37.32455035
     atom   16 type  1   force =     1.27342637    2.70153212   -2.41141538
     atom   17 type  2   force =     1.07105712   -0.79960034   36.64592528
     atom   18 type  2   force =    -0.13347363   -0.90938051  -39.38974673
     atom   19 type  1   force =     3.14255718   -0.75026612   -4.16001679
     atom   20 type  2   force =     0.43504861   -0.15932958  -39.43446703
     atom   21 type  1   force =     0.47346484    0.88572358   -0.21034672
     atom   22 type  2   force =     0.64617524   -0.00477857   37.60194027
     atom   23 type  2   force =    -0.06538443    0.92041178  -39.04041728
     atom   24 type  1   force =    -0.89099595    0.66847728    4.76431200
     atom   25 type  2   force =     0.51441020    0.20431053   39.02175346
     atom   26 type  2   force =    -0.33901100    0.03402542  -37.86883752
     atom   27 type  1   force =    -1.16452911   -1.16420011   -5.67955185
     atom   28 type  2   force =    -0.61396319    0.30031335   37.74941370
     atom   29 type  2   force =    -0.39258967   -0.60583323  -37.91305943
     atom   30 type  1   force =    -1.56895525   -0.22927471   -2.22858263
     atom   31 type  2   force =    -3.04513294    0.78424666   32.84532232
     atom   32 type  2   force =    -0.65615443    0.03421943  -39.67860711
     atom   33 type  1   force =     0.43121431    0.08698675    0.61158776
     atom   34 type  2   force =    -0.23563546   -0.81455887   39.00841011
     atom   35 type  2   force =    -0.41025756    0.65053949  -38.42463521
     atom   36 type  3   force =     4.08897772   -0.17669902   45.57582497
     The local contribution  to forces
     atom    1 type  1   force =    -0.64320060    0.12824612   -4.65980646
     atom    2 type  2   force =     0.69237108   -0.34825869  -38.84845243
     atom    3 type  2   force =     0.17863456    0.01093845   36.29854065
     atom    4 type  1   force =     0.05599845   -0.08419280    0.77231339
     atom    5 type  2   force =     0.43750432   -0.91500269  -38.12706034
     atom    6 type  2   force =    -0.44033544    0.65421713   38.39160089
     atom    7 type  1   force =     1.73550783    2.20684218   -0.67344071
     atom    8 type  2   force =     1.10953986   -0.09777413  -36.71393249
     atom    9 type  2   force =    -0.31354332    0.02709396   38.42364356
     atom   10 type  1   force =     1.16655190   -0.14967794   -4.67804171
     atom   11 type  2   force =     0.15993592    1.07942207  -38.58037440
     atom   12 type  2   force =    -0.51930740   -0.82595009   38.19392863
     atom   13 type  1   force =    -0.55274870   -0.25002017   -1.48702597
     atom   14 type  2   force =    -0.23204788    0.09478931  -38.01659680
     atom   15 type  2   force =    -0.21904120    0.09952137   37.07480697
     atom   16 type  1   force =    -1.26268565   -2.70841506    2.45414298
     atom   17 type  2   force =    -1.07012127    0.82070238  -36.40890597
     atom   18 type  2   force =     0.13669409    0.90706897   39.14392021
     atom   19 type  1   force =    -3.14628752    0.75503367    4.16631372
     atom   20 type  2   force =    -0.43112252    0.17631743   39.19203611
     atom   21 type  1   force =    -0.48075914   -0.89878641    0.19679004
     atom   22 type  2   force =    -0.64362952   -0.00804610  -37.36490866
     atom   23 type  2   force =     0.06280760   -0.90279727   38.80154127
     atom   24 type  1   force =     0.87257159   -0.68107779   -4.77698987
     atom   25 type  2   force =    -0.50380770   -0.18952234  -38.77230735
     atom   26 type  2   force =     0.33176243   -0.02186811   37.62169705
     atom   27 type  1   force =     1.16810049    1.14215329    5.66905470
     atom   28 type  2   force =     0.60718841   -0.28491250  -37.49717378
     atom   29 type  2   force =     0.39024189    0.60514180   37.66868598
     atom   30 type  1   force =     1.54855840    0.26822498    2.26086439
     atom   31 type  2   force =     2.92586010   -0.76198626  -33.00653175
     atom   32 type  2   force =     0.65077753   -0.01990911   39.42915160
     atom   33 type  1   force =    -0.41677776   -0.11339070   -0.62526958
     atom   34 type  2   force =     0.23864129    0.81406911  -38.76877520
     atom   35 type  2   force =     0.41026125   -0.63245355   38.18370641
     atom   36 type  3   force =    -3.10708003    0.03502969  -44.66016082
     The core correction contribution to forces
     atom    1 type  1   force =     0.00000000    0.00000000    0.00000000
     atom    2 type  2   force =     0.00027086    0.00003770    0.02107515
     atom    3 type  2   force =     0.00056321    0.00006046   -0.02082025
     atom    4 type  1   force =     0.00000000    0.00000000    0.00000000
     atom    5 type  2   force =    -0.00076904    0.00185257    0.02068435
     atom    6 type  2   force =     0.00042072   -0.00122725   -0.02091952
     atom    7 type  1   force =     0.00000000    0.00000000    0.00000000
     atom    8 type  2   force =    -0.00022968    0.00053700    0.02050269
     atom    9 type  2   force =    -0.00040872    0.00027368   -0.02111544
     atom   10 type  1   force =     0.00000000    0.00000000    0.00000000
     atom   11 type  2   force =    -0.00060994   -0.00059842    0.02099661
     atom   12 type  2   force =     0.00105514    0.00130393   -0.02084064
     atom   13 type  1   force =     0.00000000    0.00000000    0.00000000
     atom   14 type  2   force =    -0.00050465    0.00007161    0.02075933
     atom   15 type  2   force =     0.00073849    0.00035512   -0.02059299
     atom   16 type  1   force =     0.00000000    0.00000000    0.00000000
     atom   17 type  2   force =    -0.00013255    0.00207950    0.02137485
     atom   18 type  2   force =     0.00023981   -0.00051979   -0.02114610
     atom   19 type  1   force =     0.00000000    0.00000000    0.00000000
     atom   20 type  2   force =     0.00007366    0.00090171   -0.02113736
     atom   21 type  1   force =     0.00000000    0.00000000    0.00000000
     atom   22 type  2   force =     0.00031637   -0.00117719    0.02104002
     atom   23 type  2   force =    -0.00044216    0.00154821   -0.02097834
     atom   24 type  1   force =     0.00000000    0.00000000    0.00000000
     atom   25 type  2   force =     0.00006611   -0.00035160    0.02081576
     atom   26 type  2   force =    -0.00005352    0.00071174   -0.02084386
     atom   27 type  1   force =     0.00000000    0.00000000    0.00000000
     atom   28 type  2   force =    -0.00032329    0.00157213    0.02114152
     atom   29 type  2   force =    -0.00028792   -0.00047709   -0.02045639
     atom   30 type  1   force =     0.00000000    0.00000000    0.00000000
     atom   31 type  2   force =    -0.01662472    0.00380953   -0.00647264
     atom   32 type  2   force =    -0.00011776    0.00050660   -0.02134429
     atom   33 type  1   force =     0.00000000    0.00000000    0.00000000
     atom   34 type  2   force =     0.00046013    0.00135460    0.02120832
     atom   35 type  2   force =     0.00000527    0.00123787   -0.02117845
     atom   36 type  3   force =     0.01272847   -0.00201136    0.01111583
     The Hubbard contrib.    to forces
     atom    1 type  1   force =     0.00000000    0.00000000    0.00000000
     atom    2 type  2   force =     0.00000000    0.00000000    0.00000000
     atom    3 type  2   force =     0.00000000    0.00000000    0.00000000
     atom    4 type  1   force =     0.00000000    0.00000000    0.00000000
     atom    5 type  2   force =     0.00000000    0.00000000    0.00000000
     atom    6 type  2   force =     0.00000000    0.00000000    0.00000000
     atom    7 type  1   force =     0.00000000    0.00000000    0.00000000
     atom    8 type  2   force =     0.00000000    0.00000000    0.00000000
     atom    9 type  2   force =     0.00000000    0.00000000    0.00000000
     atom   10 type  1   force =     0.00000000    0.00000000    0.00000000
     atom   11 type  2   force =     0.00000000    0.00000000    0.00000000
     atom   12 type  2   force =     0.00000000    0.00000000    0.00000000
     atom   13 type  1   force =     0.00000000    0.00000000    0.00000000
     atom   14 type  2   force =     0.00000000    0.00000000    0.00000000
     atom   15 type  2   force =     0.00000000    0.00000000    0.00000000
     atom   16 type  1   force =     0.00000000    0.00000000    0.00000000
     atom   17 type  2   force =     0.00000000    0.00000000    0.00000000
     atom   18 type  2   force =     0.00000000    0.00000000    0.00000000
     atom   19 type  1   force =     0.00000000    0.00000000    0.00000000
     atom   20 type  2   force =     0.00000000    0.00000000    0.00000000
     atom   21 type  1   force =     0.00000000    0.00000000    0.00000000
     atom   22 type  2   force =     0.00000000    0.00000000    0.00000000
     atom   23 type  2   force =     0.00000000    0.00000000    0.00000000
     atom   24 type  1   force =     0.00000000    0.00000000    0.00000000
     atom   25 type  2   force =     0.00000000    0.00000000    0.00000000
     atom   26 type  2   force =     0.00000000    0.00000000    0.00000000
     atom   27 type  1   force =     0.00000000    0.00000000    0.00000000
     atom   28 type  2   force =     0.00000000    0.00000000    0.00000000
     atom   29 type  2   force =     0.00000000    0.00000000    0.00000000
     atom   30 type  1   force =     0.00000000    0.00000000    0.00000000
     atom   31 type  2   force =     0.00000000    0.00000000    0.00000000
     atom   32 type  2   force =     0.00000000    0.00000000    0.00000000
     atom   33 type  1   force =     0.00000000    0.00000000    0.00000000
     atom   34 type  2   force =     0.00000000    0.00000000    0.00000000
     atom   35 type  2   force =     0.00000000    0.00000000    0.00000000
     atom   36 type  3   force =     0.00000000    0.00000000    0.00000000
     The SCF correction term to forces
     atom    1 type  1   force =    -0.00010479   -0.00005612    0.00089406
     atom    2 type  2   force =    -0.00003341    0.00002018    0.00021864
     atom    3 type  2   force =    -0.00001233    0.00001182    0.00055775
     atom    4 type  1   force =    -0.00010864   -0.00009839    0.00091313
     atom    5 type  2   force =    -0.00005377   -0.00003397    0.00020390
     atom    6 type  2   force =    -0.00004468   -0.00001648    0.00054663
     atom    7 type  1   force =    -0.00002266    0.00015190    0.00084172
     atom    8 type  2   force =    -0.00007670   -0.00002222    0.00021544
     atom    9 type  2   force =    -0.00004328   -0.00000456    0.00045550
     atom   10 type  1   force =    -0.00004806    0.00006544    0.00087016
     atom   11 type  2   force =    -0.00004868    0.00005584    0.00021591
     atom   12 type  2   force =    -0.00003444    0.00000967    0.00050694
     atom   13 type  1   force =     0.00009172    0.00000790    0.00085115
     atom   14 type  2   force =     0.00002350    0.00002821    0.00022808
     atom   15 type  2   force =    -0.00000111    0.00002607    0.00056997
     atom   16 type  1   force =    -0.00010650   -0.00023132    0.00110528
     atom   17 type  2   force =     0.00005573    0.00008853    0.00022332
     atom   18 type  2   force =     0.00002657   -0.00002317    0.00053543
     atom   19 type  1   force =     0.00013787    0.00011194    0.00088893
     atom   20 type  2   force =    -0.00002280    0.00003260    0.00049149
     atom   21 type  1   force =     0.00007142   -0.00001519    0.00088238
     atom   22 type  2   force =     0.00009094   -0.00003223    0.00021848
     atom   23 type  2   force =     0.00004725   -0.00000846    0.00051095
     atom   24 type  1   force =    -0.00002740   -0.00003664    0.00090035
     atom   25 type  2   force =     0.00000453    0.00005291    0.00023749
     atom   26 type  2   force =     0.00003501    0.00003901    0.00052099
     atom   27 type  1   force =     0.00020974   -0.00028002    0.00093841
     atom   28 type  2   force =     0.00002185   -0.00008229    0.00022769
     atom   29 type  2   force =     0.00002433   -0.00001870    0.00050571
     atom   30 type  1   force =    -0.00012809    0.00023176    0.00080036
     atom   31 type  2   force =     0.00022970   -0.00008923    0.00027012
     atom   32 type  2   force =     0.00006637    0.00000150    0.00047370
     atom   33 type  1   force =    -0.00000036    0.00000040    0.00083356
     atom   34 type  2   force =    -0.00003885    0.00007582    0.00020008
     atom   35 type  2   force =    -0.00002016    0.00002262    0.00047338
     atom   36 type  3   force =     0.00052706   -0.00011947    0.00073084

     Total force =     0.259004     Total SCF correction =     0.003833

     BFGS Geometry Optimization
     Energy error            =      0.0E+00 Ry
     Gradient error          =      1.6E-01 Ry/Bohr

     number of scf cycles    =   1
     number of bfgs steps    =   0

     energy             new  =   -2246.2974638468 Ry

     new trust radius        =       0.1833402818 bohr
     new conv_thr            =       0.0000010000 Ry


ATOMIC_POSITIONS (angstrom)
Mo            6.5810757956        1.7745935656        2.8262940985
S             8.1689258836        0.8188813300        4.4339097502
S             8.1874383927        0.8155324941        1.2770912317
Mo            8.0989419782        4.4969998851        2.7171907494
S             6.4994959380        3.7195909931        4.3440156443
S             6.5532848438        3.5170904720        1.1209678550
Mo            6.4956947859        7.2060002159        2.6660086410
S             8.0775551621        6.3424234615        4.2486937110
S             8.0884635167        6.3085980718        1.0904939939
Mo            8.1545884781        9.9054778423        2.8302407371
S             6.4972010464        8.9421186470        4.3796014795
S             6.6160685597        9.0506245069        1.1437327958
Mo            3.4236507397        1.7488399182        2.7715060220
S             4.9790561811        0.8171250730        4.3575259390
S             5.0518384030        0.8479198868        1.2223452381
Mo            4.9823116209        4.5212819691        2.6378477496
S             3.4309024257        3.6702119193        4.2780399667
S             3.4358506984        3.5449980936        1.0636669788
Mo            3.4487454947        7.2150276558        2.6270227550
S             4.9857259614        6.3243729389        1.0381473189
Mo            5.0106117937        9.9065120447        2.7409870821
S             3.4685541333        8.9433832695        4.3237816683
S             3.4094618217        9.0645294222        1.1018203482
Mo            0.2894374563        1.7470673208        2.8381394276
S             1.8596341118        0.8022816320        4.4028224735
S             1.8548008307        0.8542860394        1.2069661906
Mo            1.8603148150        4.4931607679        2.6644293984
S             0.2729531445        3.6521996829        4.3356580167
S             0.2306958748        3.5261739272        1.1702875671
Mo            0.2586886059        7.2322944328        2.7100494791
S             1.9851577917        6.2901347699        4.2674271465
S             1.8577179468        6.3136465236        1.0492377565
Mo            1.8521689010        9.9343063363        2.7682410109
S             0.2963800794        9.0705989878        4.4075329011
S             0.2743198864        9.0457377797        1.1561723251
O             3.0868872468        6.0885356447        5.4368660898



     Writing config-only to output data dir ./MoS2-V-O.save/
     NEW-OLD atomic charge density approx. for the potential

     negative rho (up, down):  2.300E-04 0.000E+00

     total cpu time spent up to now is      112.7 secs

     Self-consistent Calculation

     iteration #  1     ecut=    80.00 Ry     beta= 0.70
     Davidson diagonalization with overlap
     ethr =  1.00E-06,  avg # of iterations = 14.0

     negative rho (up, down):  5.862E-05 0.000E+00

     total cpu time spent up to now is      127.4 secs

     total energy              =   -2246.34898586 Ry
     estimated scf accuracy    <       0.01777176 Ry

     iteration #  2     ecut=    80.00 Ry     beta= 0.70
     Davidson diagonalization with overlap
     ethr =  5.70E-06,  avg # of iterations =  5.0

     negative rho (up, down):  4.111E-05 0.000E+00

     total cpu time spent up to now is      139.1 secs

     total energy              =   -2246.35207087 Ry
     estimated scf accuracy    <       0.01183297 Ry

     iteration #  3     ecut=    80.00 Ry     beta= 0.70
     Davidson diagonalization with overlap
     ethr =  3.79E-06,  avg # of iterations =  2.0

     negative rho (up, down):  1.610E-05 0.000E+00

     total cpu time spent up to now is      153.4 secs

     total energy              =   -2246.35264777 Ry
     estimated scf accuracy    <       0.00134504 Ry

     iteration #  4     ecut=    80.00 Ry     beta= 0.70
     Davidson diagonalization with overlap
     ethr =  4.31E-07,  avg # of iterations =  5.0

     negative rho (up, down):  1.341E-05 0.000E+00

     total cpu time spent up to now is      164.6 secs

     total energy              =   -2246.35280836 Ry
     estimated scf accuracy    <       0.00022456 Ry

     iteration #  5     ecut=    80.00 Ry     beta= 0.70
     Davidson diagonalization with overlap
     ethr =  7.20E-08,  avg # of iterations =  3.0

     negative rho (up, down):  1.155E-05 0.000E+00

     total cpu time spent up to now is      174.8 secs

     total energy              =   -2246.35281860 Ry
     estimated scf accuracy    <       0.00006449 Ry

     iteration #  6     ecut=    80.00 Ry     beta= 0.70
     Davidson diagonalization with overlap
     ethr =  2.07E-08,  avg # of iterations =  4.0

     negative rho (up, down):  1.052E-05 0.000E+00

     total cpu time spent up to now is      186.4 secs

     total energy              =   -2246.35282620 Ry
     estimated scf accuracy    <       0.00004183 Ry

     iteration #  7     ecut=    80.00 Ry     beta= 0.70
     Davidson diagonalization with overlap
     ethr =  1.34E-08,  avg # of iterations =  2.0

     negative rho (up, down):  1.006E-05 0.000E+00

     total cpu time spent up to now is      195.9 secs

     total energy              =   -2246.35282991 Ry
     estimated scf accuracy    <       0.00000928 Ry

     iteration #  8     ecut=    80.00 Ry     beta= 0.70
     Davidson diagonalization with overlap
     ethr =  2.97E-09,  avg # of iterations =  6.0

     negative rho (up, down):  1.195E-05 0.000E+00

     total cpu time spent up to now is      206.7 secs

     total energy              =   -2246.35283399 Ry
     estimated scf accuracy    <       0.00000337 Ry

     iteration #  9     ecut=    80.00 Ry     beta= 0.70
     Davidson diagonalization with overlap
     ethr =  1.08E-09,  avg # of iterations =  2.0

     negative rho (up, down):  1.930E-04 0.000E+00

     total cpu time spent up to now is      210.0 secs

     End of self-consistent calculation

          k = 0.0000 0.0000 0.0000 (105382 PWs)   bands (ev):

   -63.0628 -62.9926 -62.9801 -62.9676 -62.9560 -62.9375 -62.9360 -62.9301
   -62.9031 -62.8928 -62.8707 -62.8579 -37.3556 -37.2948 -37.2888 -37.2651
   -37.2498 -37.2421 -37.2244 -37.1913 -37.1861 -37.1817 -37.1760 -37.1648
   -37.1563 -37.1537 -37.1517 -37.1375 -37.1249 -37.1191 -37.1150 -37.1085
   -37.0866 -37.0755 -37.0639 -37.0485 -37.0449 -37.0381 -37.0333 -37.0202
   -37.0120 -37.0051 -36.9828 -36.9806 -36.9633 -36.9096 -36.8588 -36.8175
   -21.1671 -16.0518 -15.2943 -15.2135 -15.0177 -15.0069 -14.8926 -14.5993
   -14.5626 -14.5350 -14.5032 -14.4661 -14.4440 -14.3970 -14.3534 -14.2461
   -14.2277 -14.2095 -14.1629 -14.0913 -13.9681 -13.9458 -13.9360 -13.8600
    -7.9103  -7.7396  -7.5902  -7.5522  -7.3723  -7.3492  -7.3074  -7.3002
    -7.2330  -7.0488  -6.9678  -6.9256  -6.8606  -6.7335  -6.6598  -6.6109
    -6.5284  -6.5001  -6.3846  -6.3476  -6.1853  -6.1414  -5.9933  -5.9606
    -5.8786  -5.8674  -5.8586  -5.8379  -5.7868  -5.7451  -5.6996  -5.6605
    -5.6455  -5.6006  -5.5453  -5.3279  -5.2932  -5.2263  -5.1302  -5.0989
    -5.0768  -5.0311  -5.0174  -4.8781  -4.8092  -4.6062  -4.4364  -4.3960
    -4.3733  -4.2802  -4.2129  -4.1779  -4.1395  -4.0785  -3.9044  -3.8842
    -3.8518  -3.8110  -3.7509  -3.7068  -3.6373  -3.6137  -3.5849  -3.5616
    -3.5098  -3.4836  -3.3970  -3.2466  -3.1764  -3.1303  -2.9583  -2.9501
    -2.9004  -2.8919  -2.8204  -2.8059  -2.7667  -2.7129  -2.6435  -2.5601
    -2.3576  -2.1077  -2.0734  -1.7877  -1.0593  -0.8054  -0.7215  -0.2893
    -0.2327  -0.2057  -0.0899  -0.0110   0.0514   0.0633   0.1501   0.1678
     0.1757   0.2487   0.3046   0.3794   0.4261   0.4309   0.4852   0.5050
     0.5521   0.6076   0.6313   0.6867   0.7163   0.7410   0.7985   0.8414
     0.8678   0.9591   1.1105

     the Fermi energy is    -1.4235 ev

!    total energy              =   -2246.35283662 Ry
     estimated scf accuracy    <       0.00000097 Ry
     smearing contrib. (-TS)   =      -0.00000872 Ry
     internal energy E=F+TS    =   -2246.35282790 Ry

     The total energy is F=E-TS. E is the sum of the following terms:
     one-electron contribution =  -18424.61447850 Ry
     hartree contribution      =    9200.03787922 Ry
     xc contribution           =    -391.95893536 Ry
     ewald contribution        =    7380.04785154 Ry
     one-center paw contrib.   =      -9.86514481 Ry

     convergence has been achieved in   9 iterations

     negative rho (up, down):  1.930E-04 0.000E+00

     Forces acting on atoms (cartesian axes, Ry/au):

     atom    1 type  1   force =     0.00277041   -0.01209586    0.00003987
     atom    2 type  2   force =    -0.00939666    0.01065810   -0.00280604
     atom    3 type  2   force =    -0.01055323    0.00630394   -0.00771625
     atom    4 type  1   force =     0.00603938    0.00351597    0.00108138
     atom    5 type  2   force =     0.00112243   -0.00573381   -0.00507727
     atom    6 type  2   force =    -0.00024980    0.00715772    0.00260818
     atom    7 type  1   force =     0.00549056   -0.01266519   -0.00302567
     atom    8 type  2   force =    -0.00551007   -0.00308106    0.01080804
     atom    9 type  2   force =     0.01387477    0.00650116    0.00831630
     atom   10 type  1   force =    -0.00463541    0.00650353   -0.00972499
     atom   11 type  2   force =     0.00294063   -0.00217475   -0.01015833
     atom   12 type  2   force =    -0.00495595    0.00147934    0.00274588
     atom   13 type  1   force =     0.00380286    0.00232461   -0.00289574
     atom   14 type  2   force =     0.00522907   -0.00003232    0.00865544
     atom   15 type  2   force =    -0.00787579    0.00324009   -0.00734339
     atom   16 type  1   force =     0.00336967    0.00951028    0.00436830
     atom   17 type  2   force =     0.00717827   -0.00706167   -0.00309921
     atom   18 type  2   force =    -0.00144279   -0.00291302    0.00931693
     atom   19 type  1   force =     0.00248520    0.00154840   -0.01392151
     atom   20 type  2   force =     0.00219175   -0.00530062   -0.00115289
     atom   21 type  1   force =    -0.00316367    0.00381042    0.00066482
     atom   22 type  2   force =    -0.00231487   -0.00038427   -0.00360410
     atom   23 type  2   force =     0.00160332    0.00018708    0.00487738
     atom   24 type  1   force =    -0.00738136   -0.00179924   -0.00878582
     atom   25 type  2   force =     0.01138788    0.01372199    0.00026349
     atom   26 type  2   force =    -0.00826683   -0.00114836   -0.00495449
     atom   27 type  1   force =     0.00228695   -0.00296667    0.00824152
     atom   28 type  2   force =     0.00096252   -0.00373526   -0.00426282
     atom   29 type  2   force =    -0.00116786    0.00026259   -0.00468863
     atom   30 type  1   force =     0.00066538    0.00716846    0.02544537
     atom   31 type  2   force =     0.09485756   -0.02379411    0.02758104
     atom   32 type  2   force =    -0.01235428    0.00577288    0.01193790
     atom   33 type  1   force =     0.00587719   -0.00478992    0.00060856
     atom   34 type  2   force =    -0.00090257   -0.02616729   -0.01285990
     atom   35 type  2   force =    -0.00440345    0.00485251    0.00626771
     atom   36 type  3   force =    -0.08956121    0.02132434   -0.02775107
     The non-local contrib.  to forces
     atom    1 type  1   force =     0.00196751    0.02851998   -0.01018093
     atom    2 type  2   force =    -0.00758133   -0.00477899   -0.27524186
     atom    3 type  2   force =    -0.01138064   -0.00491327    0.26362912
     atom    4 type  1   force =    -0.00353828    0.00601264    0.00476753
     atom    5 type  2   force =     0.00854536   -0.03310096   -0.25825948
     atom    6 type  2   force =    -0.00396132    0.01060885    0.26721901
     atom    7 type  1   force =    -0.03769779    0.00512714   -0.02035161
     atom    8 type  2   force =     0.00379806   -0.00590210   -0.25349586
     atom    9 type  2   force =     0.00984690   -0.00504708    0.27579199
     atom   10 type  1   force =    -0.00302657    0.01092965   -0.00273196
     atom   11 type  2   force =     0.00981730    0.00404168   -0.26786052
     atom   12 type  2   force =    -0.01273677   -0.01831940    0.26108282
     atom   13 type  1   force =     0.00746765    0.03096510   -0.00583783
     atom   14 type  2   force =     0.00721862   -0.00976453   -0.26640274
     atom   15 type  2   force =    -0.01124952   -0.00625160    0.26142258
     atom   16 type  1   force =    -0.00613879    0.02534850   -0.03556408
     atom   17 type  2   force =     0.00601299   -0.03402034   -0.26071335
     atom   18 type  2   force =    -0.00591304   -0.00148281    0.27732776
     atom   19 type  1   force =    -0.01466117   -0.01314952   -0.00499269
     atom   20 type  2   force =    -0.00071459   -0.02057186    0.26285453
     atom   21 type  1   force =     0.00387981    0.02315025    0.00676167
     atom   22 type  2   force =    -0.00484866    0.01263555   -0.25955413
     atom   23 type  2   force =     0.00471271   -0.01815880    0.26570898
     atom   24 type  1   force =     0.00298660    0.01264955   -0.00865233
     atom   25 type  2   force =     0.00319178    0.00037694   -0.26687260
     atom   26 type  2   force =    -0.00151537   -0.01366175    0.26367414
     atom   27 type  1   force =    -0.00456312    0.02388824    0.02237999
     atom   28 type  2   force =     0.00842305   -0.01952119   -0.27606580
     atom   29 type  2   force =     0.00033873   -0.00105186    0.26041176
     atom   30 type  1   force =    -0.00954297   -0.00831234   -0.01489669
     atom   31 type  2   force =     0.26978031   -0.06953408    0.25249201
     atom   32 type  2   force =    -0.00538428   -0.00912186    0.28107083
     atom   33 type  1   force =     0.00205000    0.01232571    0.00257909
     atom   34 type  2   force =    -0.00333020   -0.02935658   -0.27405244
     atom   35 type  2   force =    -0.00510587   -0.01312469    0.26941104
     atom   36 type  3   force =    -1.39980712    0.21356676   -1.32122790
     The ionic contribution  to forces
     atom    1 type  1   force =     0.38853627    0.17804609    4.75478738
     atom    2 type  2   force =    -0.50716098    0.24098108   39.17623265
     atom    3 type  2   force =    -0.15539195    0.01541501  -36.66722296
     atom    4 type  1   force =     0.01720439    0.01635175   -0.76092980
     atom    5 type  2   force =    -0.43203850    0.90322642   38.29917385
     atom    6 type  2   force =     0.39353881   -0.70422238  -38.55405570
     atom    7 type  1   force =    -1.86583836   -1.93800000    0.48079970
     atom    8 type  2   force =    -1.06221504    0.05845581   37.10039125
     atom    9 type  2   force =     0.40309269   -0.06911282  -38.67845513
     atom   10 type  1   force =    -0.96953366    0.18021673    4.32301083
     atom   11 type  2   force =    -0.17585282   -1.11680963   38.74479737
     atom   12 type  2   force =     0.44197041    0.76228680  -38.40147459
     atom   13 type  1   force =     0.51090336    0.16815281    1.30765289
     atom   14 type  2   force =     0.15338235   -0.06439570   38.36130414
     atom   15 type  2   force =     0.23178754   -0.02281438  -37.39069282
     atom   16 type  1   force =     1.30862990    2.45016985   -2.19063348
     atom   17 type  2   force =     1.14240798   -0.92777011   36.64380264
     atom   18 type  2   force =    -0.09839527   -0.84207464  -39.33252758
     atom   19 type  1   force =     3.15639652   -0.61824281   -4.66931818
     atom   20 type  2   force =     0.37435610   -0.14401428  -39.48669502
     atom   21 type  1   force =     0.48209731    0.73736538   -0.18649953
     atom   22 type  2   force =     0.72110925    0.07732122   37.59495396
     atom   23 type  2   force =    -0.03367187    0.88645398  -39.04920153
     atom   24 type  1   force =    -0.63337366    0.51014530    4.43839869
     atom   25 type  2   force =     0.38632809    0.14378600   38.96959178
     atom   26 type  2   force =    -0.31165178    0.02038995  -37.83881191
     atom   27 type  1   force =    -1.42899407   -0.97408737   -5.62116105
     atom   28 type  2   force =    -0.64096150    0.25793429   37.71696359
     atom   29 type  2   force =    -0.35257615   -0.51162345  -37.94811501
     atom   30 type  1   force =    -1.00737649   -0.80082591   -1.45922412
     atom   31 type  2   force =    -4.23365502    1.00371377   32.02208917
     atom   32 type  2   force =    -0.75638073   -0.00397704  -39.54372860
     atom   33 type  1   force =     0.22022638    0.39965297    0.62604553
     atom   34 type  2   force =    -0.27296454   -0.57972882   38.95132322
     atom   35 type  2   force =    -0.34167389    0.64217402  -38.41756510
     atom   36 type  3   force =     4.94773897   -0.33453991   46.68499344
     The local contribution  to forces
     atom    1 type  1   force =    -0.38813031   -0.21851495   -4.74457287
     atom    2 type  2   force =     0.50505544   -0.22556950  -38.92512155
     atom    3 type  2   force =     0.15570049   -0.00430618   36.41669672
     atom    4 type  1   force =    -0.00771024   -0.01909524    0.75728402
     atom    5 type  2   force =     0.42517204   -0.87766973  -38.06684853
     atom    6 type  2   force =    -0.39026829    0.70185834   38.31055778
     atom    7 type  1   force =     1.90860928    1.92002769   -0.46323733
     atom    8 type  2   force =     1.05321090   -0.05628255  -36.85669540
     atom    9 type  2   force =    -0.39882036    0.08028321   38.43209788
     atom   10 type  1   force =     0.96774830   -0.18446762   -4.33016625
     atom   11 type  2   force =     0.16924156    1.11114363  -38.50827395
     atom   12 type  2   force =    -0.43531301   -0.74372229   38.16398907
     atom   13 type  1   force =    -0.51444469   -0.19641695   -1.30447212
     atom   14 type  2   force =    -0.15503895    0.07415573  -38.10733467
     atom   15 type  2   force =    -0.22914402    0.03195346   37.14270479
     atom   16 type  1   force =    -1.29962378   -2.46621476    2.23112587
     atom   17 type  2   force =    -1.14108841    0.95268089  -36.40754319
     atom   18 type  2   force =     0.10270111    0.84112154   39.08596898
     atom   19 type  1   force =    -3.13916483    0.63277280    4.66112403
     atom   20 type  2   force =    -0.37163943    0.15834676   39.24398778
     atom   21 type  1   force =    -0.48952373   -0.75654578    0.18061230
     atom   22 type  2   force =    -0.71876217   -0.08944595  -37.36002805
     atom   23 type  2   force =     0.03095958   -0.86947835   38.80944360
     atom   24 type  1   force =     0.62331928   -0.52430153   -4.43859245
     atom   25 type  2   force =    -0.37807107   -0.13008839  -38.72360290
     atom   26 type  2   force =     0.30516970   -0.00849690   37.59115970
     atom   27 type  1   force =     1.43649463    0.94693222    5.60753489
     atom   28 type  2   force =     0.63407070   -0.24356014  -37.46643465
     atom   29 type  2   force =     0.35133146    0.51329654   37.70361074
     atom   30 type  1   force =     1.01787223    0.81622695    1.49959268
     atom   31 type  2   force =     4.07575809   -0.96211710  -32.23898554
     atom   32 type  2   force =     0.74965894    0.01828821   39.29614608
     atom   33 type  1   force =    -0.21581340   -0.41675103   -0.62793076
     atom   34 type  2   force =     0.27513105    0.58173194  -38.71157518
     atom   35 type  2   force =     0.34237427   -0.62529188   38.17559339
     atom   36 type  3   force =    -3.65258878    0.14444633  -45.40612205
     The core correction contribution to forces
     atom    1 type  1   force =     0.00000000    0.00000000    0.00000000
     atom    2 type  2   force =     0.00022537    0.00013962    0.02106599
     atom    3 type  2   force =     0.00048315    0.00019325   -0.02073264
     atom    4 type  1   force =     0.00000000    0.00000000    0.00000000
     atom    5 type  2   force =    -0.00078053    0.00181963    0.02062310
     atom    6 type  2   force =     0.00035748   -0.00113529   -0.02098181
     atom    7 type  1   force =     0.00000000    0.00000000    0.00000000
     atom    8 type  2   force =    -0.00034685    0.00052114    0.02048590
     atom    9 type  2   force =    -0.00023952    0.00027568   -0.02105982
     atom   10 type  1   force =     0.00000000    0.00000000    0.00000000
     atom   11 type  2   force =    -0.00050079   -0.00053976    0.02101680
     atom   12 type  2   force =     0.00105007    0.00134056   -0.02076574
     atom   13 type  1   force =     0.00000000    0.00000000    0.00000000
     atom   14 type  2   force =    -0.00045495    0.00005535    0.02082049
     atom   15 type  2   force =     0.00065826    0.00042593   -0.02061212
     atom   16 type  1   force =     0.00000000    0.00000000    0.00000000
     atom   17 type  2   force =    -0.00014223    0.00224540    0.02121856
     atom   18 type  2   force =     0.00018963   -0.00052922   -0.02119279
     atom   19 type  1   force =     0.00000000    0.00000000    0.00000000
     atom   20 type  2   force =     0.00008122    0.00083444   -0.02107913
     atom   21 type  1   force =     0.00000000    0.00000000    0.00000000
     atom   22 type  2   force =     0.00023750   -0.00106847    0.02087072
     atom   23 type  2   force =    -0.00037347    0.00142097   -0.02085280
     atom   24 type  1   force =     0.00000000    0.00000000    0.00000000
     atom   25 type  2   force =     0.00015038   -0.00021199    0.02091340
     atom   26 type  2   force =    -0.00016165    0.00071417   -0.02085605
     atom   27 type  1   force =     0.00000000    0.00000000    0.00000000
     atom   28 type  2   force =    -0.00035213    0.00142548    0.02107407
     atom   29 type  2   force =    -0.00018584   -0.00040419   -0.02045204
     atom   30 type  1   force =     0.00000000    0.00000000    0.00000000
     atom   31 type  2   force =    -0.01635530    0.00395331   -0.00782127
     atom   32 type  2   force =    -0.00011897    0.00051306   -0.02140937
     atom   33 type  1   force =     0.00000000    0.00000000    0.00000000
     atom   34 type  2   force =     0.00044590    0.00114373    0.02126323
     atom   35 type  2   force =     0.00007802    0.00113794   -0.02110771
     atom   36 type  3   force =     0.01558088   -0.00237065    0.01430923
     The Hubbard contrib.    to forces
     atom    1 type  1   force =     0.00000000    0.00000000    0.00000000
     atom    2 type  2   force =     0.00000000    0.00000000    0.00000000
     atom    3 type  2   force =     0.00000000    0.00000000    0.00000000
     atom    4 type  1   force =     0.00000000    0.00000000    0.00000000
     atom    5 type  2   force =     0.00000000    0.00000000    0.00000000
     atom    6 type  2   force =     0.00000000    0.00000000    0.00000000
     atom    7 type  1   force =     0.00000000    0.00000000    0.00000000
     atom    8 type  2   force =     0.00000000    0.00000000    0.00000000
     atom    9 type  2   force =     0.00000000    0.00000000    0.00000000
     atom   10 type  1   force =     0.00000000    0.00000000    0.00000000
     atom   11 type  2   force =     0.00000000    0.00000000    0.00000000
     atom   12 type  2   force =     0.00000000    0.00000000    0.00000000
     atom   13 type  1   force =     0.00000000    0.00000000    0.00000000
     atom   14 type  2   force =     0.00000000    0.00000000    0.00000000
     atom   15 type  2   force =     0.00000000    0.00000000    0.00000000
     atom   16 type  1   force =     0.00000000    0.00000000    0.00000000
     atom   17 type  2   force =     0.00000000    0.00000000    0.00000000
     atom   18 type  2   force =     0.00000000    0.00000000    0.00000000
     atom   19 type  1   force =     0.00000000    0.00000000    0.00000000
     atom   20 type  2   force =     0.00000000    0.00000000    0.00000000
     atom   21 type  1   force =     0.00000000    0.00000000    0.00000000
     atom   22 type  2   force =     0.00000000    0.00000000    0.00000000
     atom   23 type  2   force =     0.00000000    0.00000000    0.00000000
     atom   24 type  1   force =     0.00000000    0.00000000    0.00000000
     atom   25 type  2   force =     0.00000000    0.00000000    0.00000000
     atom   26 type  2   force =     0.00000000    0.00000000    0.00000000
     atom   27 type  1   force =     0.00000000    0.00000000    0.00000000
     atom   28 type  2   force =     0.00000000    0.00000000    0.00000000
     atom   29 type  2   force =     0.00000000    0.00000000    0.00000000
     atom   30 type  1   force =     0.00000000    0.00000000    0.00000000
     atom   31 type  2   force =     0.00000000    0.00000000    0.00000000
     atom   32 type  2   force =     0.00000000    0.00000000    0.00000000
     atom   33 type  1   force =     0.00000000    0.00000000    0.00000000
     atom   34 type  2   force =     0.00000000    0.00000000    0.00000000
     atom   35 type  2   force =     0.00000000    0.00000000    0.00000000
     atom   36 type  3   force =     0.00000000    0.00000000    0.00000000
     The SCF correction term to forces
     atom    1 type  1   force =     0.00040370   -0.00014708    0.00001452
     atom    2 type  2   force =     0.00007159   -0.00011423    0.00026695
     atom    3 type  2   force =     0.00004246   -0.00008499   -0.00007825
     atom    4 type  1   force =     0.00009026    0.00024671   -0.00003214
     atom    5 type  2   force =     0.00023080   -0.00000928    0.00024202
     atom    6 type  2   force =     0.00009028    0.00004809   -0.00012288
     atom    7 type  1   force =     0.00042418    0.00017987   -0.00022821
     atom    8 type  2   force =     0.00004961    0.00012653    0.00013038
     atom    9 type  2   force =     0.00000182    0.00010206   -0.00005039
     atom   10 type  1   force =     0.00018326   -0.00017535    0.00017062
     atom   11 type  2   force =     0.00024212   -0.00001078    0.00017020
     atom   12 type  2   force =     0.00008009   -0.00010643   -0.00007746
     atom   13 type  1   force =    -0.00011670   -0.00037646   -0.00023046
     atom   14 type  2   force =     0.00012875   -0.00008329    0.00027645
     atom   15 type  2   force =     0.00007870   -0.00007344   -0.00015759
     atom   16 type  1   force =     0.00050908    0.00020658   -0.00055178
     atom   17 type  2   force =    -0.00000531   -0.00019763    0.00014436
     atom   18 type  2   force =    -0.00001847    0.00005200   -0.00025121
     atom   19 type  1   force =    -0.00007857    0.00016782   -0.00072644
     atom   20 type  2   force =     0.00011519    0.00010422   -0.00021283
     atom   21 type  1   force =     0.00038969   -0.00015954   -0.00020139
     atom   22 type  2   force =    -0.00004404    0.00017327    0.00016162
     atom   23 type  2   force =    -0.00001688   -0.00005083   -0.00021264
     atom   24 type  1   force =    -0.00030682   -0.00029267    0.00006849
     atom   25 type  2   force =    -0.00020455   -0.00014067    0.00024204
     atom   26 type  2   force =    -0.00010098   -0.00009395   -0.00011216
     atom   27 type  1   force =    -0.00064374    0.00030013   -0.00050409
     atom   28 type  2   force =    -0.00021085   -0.00001383    0.00020820
     atom   29 type  2   force =    -0.00006931    0.00004543   -0.00013585
     atom   30 type  1   force =    -0.00028063    0.00007964   -0.00001828
     atom   31 type  2   force =    -0.00066376    0.00018987   -0.00018510
     atom   32 type  2   force =    -0.00012248    0.00007040   -0.00013281
     atom   33 type  1   force =    -0.00057903   -0.00001769   -0.00007707
     atom   34 type  2   force =    -0.00017803    0.00004233    0.00018950
     atom   35 type  2   force =    -0.00006923   -0.00004299   -0.00005568
     atom   36 type  3   force =    -0.00047841    0.00022170    0.00030444

     Total force =     0.157734     Total SCF correction =     0.002383
     Energy error            =      5.5E-02 Ry
     Gradient error          =      9.5E-02 Ry/Bohr

     number of scf cycles    =   2
     number of bfgs steps    =   1

     energy             old  =   -2246.2974638468 Ry
     energy             new  =   -2246.3528366213 Ry

     CASE: energy            _new < energy            _old

     new trust radius        =       0.2016743100 bohr
     new conv_thr            =       0.0000000949 Ry


ATOMIC_POSITIONS (angstrom)
Mo            6.5845964746        1.7615975546        2.8267421564
S             8.1592154671        0.8299495365        4.4312735396
S             8.1769907334        0.8219022502        1.2699875034
Mo            8.1049929368        4.5004826013        2.7180714957
S             6.5004471272        3.7139655002        4.3390113677
S             6.5530487635        3.5243976759        1.1232788380
Mo            6.5015497421        7.1926096827        2.6623582848
S             8.0719219545        6.3394111791        4.2594398689
S             8.1021882024        6.3150848641        1.0990479477
Mo            8.1494578023        9.9118737912        2.8193882677
S             6.5001773352        8.9400256316        4.3698670509
S             6.6112931394        9.0522601536        1.1468113954
Mo            3.4274004783        1.7512357058        2.7681147394
S             4.9843913703        0.8171244035        4.3664429364
S             5.0437817473        0.8511087089        1.2150316347
Mo            4.9857570951        4.5311449868        2.6425709022
S             3.4378720096        3.6636078045        4.2749767566
S             3.4342237840        3.5418607335        1.0729217046
Mo            3.4501986753        7.2162268992        2.6138605841
S             4.9880959931        6.3191799211        1.0372432078
Mo            5.0074929856        9.9107225464        2.7412133944
S             3.4660863613        8.9429784471        4.3202399345
S             3.4110727688        9.0646270932        1.1071266439
Mo            0.2817258888        1.7453708938        2.8284343079
S             1.8713616825        0.8161854035        4.4037777308
S             1.8463898131        0.8532254239        1.2021056738
Mo            1.8623252293        4.4900874860        2.6725428867
S             0.2739387955        3.6484787639        4.3315022741
S             0.2295561638        3.5262443750        1.1657770305
Mo            0.2573536589        7.2412113122        2.7343671182
S             2.0838582081        6.2650869687        4.2993693301
S             1.8458389921        6.3193823074        1.0607646184
Mo            1.8587014074        9.9290666110        2.7680603373
S             0.2956361540        9.0439116827        4.3949142639
S             0.2699552577        9.0504714387        1.1627394313
O             2.9957061469        6.1104571837        5.4053863791



     Writing config-only to output data dir ./MoS2-V-O.save/
     NEW-OLD atomic charge density approx. for the potential

     negative rho (up, down):  2.058E-04 0.000E+00

     total cpu time spent up to now is      217.2 secs

     Self-consistent Calculation

     iteration #  1     ecut=    80.00 Ry     beta= 0.70
     Davidson diagonalization with overlap
     ethr =  1.00E-06,  avg # of iterations = 14.0

     negative rho (up, down):  5.085E-05 0.000E+00

     total cpu time spent up to now is      230.2 secs

     total energy              =   -2246.35826925 Ry
     estimated scf accuracy    <       0.03164847 Ry

     iteration #  2     ecut=    80.00 Ry     beta= 0.70
     Davidson diagonalization with overlap
     ethr =  1.01E-05,  avg # of iterations =  4.0

     negative rho (up, down):  3.435E-05 0.000E+00

     total cpu time spent up to now is      246.5 secs

     total energy              =   -2246.36404903 Ry
     estimated scf accuracy    <       0.01122126 Ry

     iteration #  3     ecut=    80.00 Ry     beta= 0.70
     Davidson diagonalization with overlap
     ethr =  3.60E-06,  avg # of iterations =  3.0

     negative rho (up, down):  2.066E-05 0.000E+00

     total cpu time spent up to now is      267.1 secs

     total energy              =   -2246.36438152 Ry
     estimated scf accuracy    <       0.00182533 Ry

     iteration #  4     ecut=    80.00 Ry     beta= 0.70
     Davidson diagonalization with overlap
     ethr =  5.85E-07,  avg # of iterations =  3.0

     negative rho (up, down):  1.893E-05 0.000E+00

     total cpu time spent up to now is      278.1 secs

     total energy              =   -2246.36455532 Ry
     estimated scf accuracy    <       0.00030780 Ry

     iteration #  5     ecut=    80.00 Ry     beta= 0.70
     Davidson diagonalization with overlap
     ethr =  9.87E-08,  avg # of iterations =  2.0

     negative rho (up, down):  1.671E-05 0.000E+00

     total cpu time spent up to now is      288.1 secs

     total energy              =   -2246.36456227 Ry
     estimated scf accuracy    <       0.00010752 Ry

     iteration #  6     ecut=    80.00 Ry     beta= 0.70
     Davidson diagonalization with overlap
     ethr =  3.45E-08,  avg # of iterations =  5.0

     negative rho (up, down):  1.359E-05 0.000E+00

     total cpu time spent up to now is      299.2 secs

     total energy              =   -2246.36457608 Ry
     estimated scf accuracy    <       0.00003311 Ry

     iteration #  7     ecut=    80.00 Ry     beta= 0.70
     Davidson diagonalization with overlap
     ethr =  1.06E-08,  avg # of iterations =  5.0

     negative rho (up, down):  9.416E-06 0.000E+00

     total cpu time spent up to now is      309.7 secs

     total energy              =   -2246.36458259 Ry
     estimated scf accuracy    <       0.00000921 Ry

     iteration #  8     ecut=    80.00 Ry     beta= 0.70
     Davidson diagonalization with overlap
     ethr =  2.95E-09,  avg # of iterations =  5.0

     negative rho (up, down):  8.992E-06 0.000E+00

     total cpu time spent up to now is      319.5 secs

     total energy              =   -2246.36458817 Ry
     estimated scf accuracy    <       0.00000414 Ry

     iteration #  9     ecut=    80.00 Ry     beta= 0.70
     Davidson diagonalization with overlap
     ethr =  1.33E-09,  avg # of iterations =  2.0

     negative rho (up, down):  2.122E-05 0.000E+00

     total cpu time spent up to now is      329.6 secs

     total energy              =   -2246.36459108 Ry
     estimated scf accuracy    <       0.00000136 Ry

     iteration # 10     ecut=    80.00 Ry     beta= 0.70
     Davidson diagonalization with overlap
     ethr =  4.36E-10,  avg # of iterations =  4.0

     negative rho (up, down):  5.872E-05 0.000E+00

     total cpu time spent up to now is      341.3 secs

     total energy              =   -2246.36459255 Ry
     estimated scf accuracy    <       0.00000044 Ry

     iteration # 11     ecut=    80.00 Ry     beta= 0.70
     Davidson diagonalization with overlap
     ethr =  1.42E-10,  avg # of iterations =  3.0

     negative rho (up, down):  1.157E-04 0.000E+00

     total cpu time spent up to now is      351.9 secs

     total energy              =   -2246.36459302 Ry
     estimated scf accuracy    <       0.00000013 Ry

     iteration # 12     ecut=    80.00 Ry     beta= 0.70
     Davidson diagonalization with overlap
     ethr =  4.10E-11,  avg # of iterations =  5.0

     negative rho (up, down):  2.031E-04 0.000E+00

     total cpu time spent up to now is      355.5 secs

     End of self-consistent calculation

          k = 0.0000 0.0000 0.0000 (105382 PWs)   bands (ev):

   -62.9811 -62.9555 -62.9446 -62.9346 -62.9167 -62.8998 -62.8984 -62.8878
   -62.8657 -62.8585 -62.8473 -62.7531 -37.3068 -37.2420 -37.2240 -37.2176
   -37.2052 -37.1833 -37.1805 -37.1519 -37.1469 -37.1416 -37.1305 -37.1266
   -37.1201 -37.1104 -37.1040 -37.0975 -37.0896 -37.0821 -37.0783 -37.0677
   -37.0404 -37.0378 -37.0262 -37.0101 -37.0011 -36.9955 -36.9847 -36.9795
   -36.9680 -36.9453 -36.9367 -36.9245 -36.9191 -36.8804 -36.8249 -36.7463
   -23.4589 -16.0141 -15.2673 -15.1653 -14.9849 -14.9550 -14.8568 -14.5787
   -14.5196 -14.4988 -14.4722 -14.4164 -14.4012 -14.3538 -14.3313 -14.2109
   -14.1934 -14.1837 -14.1231 -14.0110 -13.9310 -13.9104 -13.9024 -13.5131
    -8.2268  -8.0311  -7.7621  -7.5864  -7.4325  -7.3090  -7.2996  -7.2781
    -7.2490  -7.1156  -7.0448  -6.9009  -6.8355  -6.7241  -6.6583  -6.6323
    -6.4910  -6.4616  -6.4074  -6.3377  -6.2264  -6.1809  -5.9509  -5.9408
    -5.8543  -5.8429  -5.8328  -5.8047  -5.7633  -5.7048  -5.6797  -5.6438
    -5.6149  -5.5875  -5.5333  -5.3321  -5.2643  -5.1874  -5.1043  -5.0668
    -5.0562  -5.0219  -4.9893  -4.8839  -4.8016  -4.5962  -4.4324  -4.3824
    -4.3547  -4.2866  -4.2564  -4.1832  -4.1261  -4.0703  -3.9256  -3.8608
    -3.8318  -3.7874  -3.7404  -3.6721  -3.6044  -3.5930  -3.5540  -3.5305
    -3.4753  -3.4523  -3.4037  -3.2642  -3.1780  -3.1228  -2.9287  -2.8984
    -2.8721  -2.8606  -2.7842  -2.7429  -2.7256  -2.6698  -2.6415  -2.5181
    -2.3189  -2.0630  -2.0437  -1.8655  -0.9702  -0.7533  -0.5785  -0.2421
    -0.1775  -0.1637  -0.0305   0.0438   0.0902   0.1179   0.1890   0.2174
     0.2298   0.2646   0.3478   0.4301   0.4784   0.4903   0.5215   0.5624
     0.6071   0.6542   0.6602   0.7231   0.7633   0.7890   0.8454   0.9186
     0.9200   1.0016   1.1689

     the Fermi energy is    -1.4178 ev

!    total energy              =   -2246.36459305 Ry
     estimated scf accuracy    <       0.00000005 Ry
     smearing contrib. (-TS)   =      -0.00000022 Ry
     internal energy E=F+TS    =   -2246.36459283 Ry

     The total energy is F=E-TS. E is the sum of the following terms:
     one-electron contribution =  -18436.58915694 Ry
     hartree contribution      =    9206.20194530 Ry
     xc contribution           =    -392.17082876 Ry
     ewald contribution        =    7386.04737311 Ry
     one-center paw contrib.   =      -9.85392555 Ry

     convergence has been achieved in  12 iterations

     negative rho (up, down):  2.031E-04 0.000E+00

     Forces acting on atoms (cartesian axes, Ry/au):

     atom    1 type  1   force =    -0.00513067    0.00030221   -0.00482068
     atom    2 type  2   force =    -0.00388056    0.00373338   -0.00258438
     atom    3 type  2   force =    -0.00825877    0.00389099   -0.01041550
     atom    4 type  1   force =     0.00328551    0.00208501    0.00169254
     atom    5 type  2   force =     0.00260704   -0.00535855   -0.00424835
     atom    6 type  2   force =     0.00031226    0.00471492    0.00429377
     atom    7 type  1   force =     0.00096399   -0.00133465    0.00242744
     atom    8 type  2   force =    -0.00285583   -0.00385579    0.01060011
     atom    9 type  2   force =     0.01306531    0.00486263    0.00652436
     atom   10 type  1   force =     0.00019391    0.00425690   -0.00028528
     atom   11 type  2   force =     0.00194364   -0.00213765   -0.00971028
     atom   12 type  2   force =    -0.00490676   -0.00096828    0.00003198
     atom   13 type  1   force =     0.00268313   -0.00034198   -0.00051147
     atom   14 type  2   force =     0.00287609   -0.00073593    0.00416513
     atom   15 type  2   force =    -0.00469811    0.00168215   -0.00491582
     atom   16 type  1   force =     0.00147569    0.00283703    0.00027229
     atom   17 type  2   force =     0.00797468   -0.00999973    0.00027140
     atom   18 type  2   force =     0.00109273    0.00034573    0.00733264
     atom   19 type  1   force =     0.01444941    0.00168636   -0.01720401
     atom   20 type  2   force =     0.00245306   -0.00519905   -0.00586244
     atom   21 type  1   force =    -0.00242656   -0.00016138    0.00220170
     atom   22 type  2   force =     0.00003612   -0.00109825   -0.00209720
     atom   23 type  2   force =    -0.00069232    0.00503309   -0.00237824
     atom   24 type  1   force =    -0.00269070   -0.00077294   -0.00203695
     atom   25 type  2   force =     0.00443199    0.00798973   -0.00462769
     atom   26 type  2   force =    -0.00396750   -0.00180841   -0.00231855
     atom   27 type  1   force =     0.00626605   -0.00257906    0.00609951
     atom   28 type  2   force =     0.00067017   -0.00247924   -0.00243857
     atom   29 type  2   force =    -0.00059271    0.00217279   -0.00359221
     atom   30 type  1   force =     0.01198973   -0.01119286    0.02052348
     atom   31 type  2   force =    -0.07941813    0.01663382   -0.16878185
     atom   32 type  2   force =    -0.01272341    0.00368614    0.01297660
     atom   33 type  1   force =    -0.00080911    0.00304990    0.00343584
     atom   34 type  2   force =    -0.00143720   -0.01145168   -0.00592854
     atom   35 type  2   force =    -0.00210708    0.00289824    0.00629725
     atom   36 type  3   force =     0.05782493   -0.01038556    0.16561197
     The non-local contrib.  to forces
     atom    1 type  1   force =     0.00344111    0.02539628   -0.01111962
     atom    2 type  2   force =    -0.00348085   -0.00965071   -0.27242452
     atom    3 type  2   force =    -0.00865261   -0.00771026    0.26035645
     atom    4 type  1   force =    -0.00051286    0.00823834    0.00482509
     atom    5 type  2   force =     0.00871438   -0.03263043   -0.25784013
     atom    6 type  2   force =    -0.00263483    0.00767194    0.26975958
     atom    7 type  1   force =    -0.03181807    0.00179756   -0.02409505
     atom    8 type  2   force =     0.00834544   -0.00601983   -0.25200609
     atom    9 type  2   force =     0.00629267   -0.00696923    0.27287664
     atom   10 type  1   force =    -0.00263562    0.01071017   -0.00148112
     atom   11 type  2   force =     0.00834401    0.00218111   -0.26779874
     atom   12 type  2   force =    -0.01313809   -0.02033788    0.26092830
     atom   13 type  1   force =     0.00808481    0.02952319   -0.00631079
[...]
     atom   28 type  2   force =     0.00021197   -0.01121951   -0.27909053
     atom   29 type  2   force =     0.00192128   -0.00689967    0.26622240
     atom   30 type  1   force =     0.00490413    0.00348103    0.01923507
     atom   31 type  2   force =     0.00155531   -0.03360445    0.29921902
     atom   32 type  2   force =     0.00691664   -0.01262938    0.28096670
     atom   33 type  1   force =    -0.00065121    0.00439733    0.00127336
     atom   34 type  2   force =    -0.00108378   -0.01063538   -0.27713976
     atom   35 type  2   force =    -0.00030592   -0.01430720    0.26397502
     atom   36 type  3   force =    -0.05209959    0.05155117   -2.30768089
     The ionic contribution  to forces
     atom    1 type  1   force =    -0.09690913    0.54963781    1.86825589
     atom    2 type  2   force =    -0.32491455    0.07882108   38.77331280
     atom    3 type  2   force =     0.05598690   -0.04714997  -37.82082769
     atom    4 type  1   force =    -0.60588554   -0.28334394   -0.53585875
     atom    5 type  2   force =    -0.81331034    0.82143896   38.05075565
     atom    6 type  2   force =     0.23189530   -0.50432574  -38.41655950
     atom    7 type  1   force =    -2.53725744   -1.56233065    0.96408098
     atom    8 type  2   force =    -2.02432107    0.06759323   37.66277520
     atom    9 type  2   force =     0.35200936   -0.04580521  -38.67372707
     atom   10 type  1   force =    -0.76461592    0.15972217    2.04401835
     atom   11 type  2   force =    -0.42209750   -1.08008010   38.22129334
     atom   12 type  2   force =     0.30228288    0.46732283  -38.39747390
     atom   13 type  1   force =     0.29581506    0.18898963    1.12579182
     atom   14 type  2   force =     0.09746489   -0.04748202   38.37104489
     atom   15 type  2   force =     0.05830460   -0.07752044  -38.04220605
     atom   16 type  1   force =     0.57993301    2.72353681    0.38170071
     atom   17 type  2   force =     1.48374527    0.06657059   37.56754036
     atom   18 type  2   force =    -0.12928404   -0.48312377  -38.84467185
     atom   19 type  1   force =     3.33275652   -1.45005805   -2.10144498
     atom   20 type  2   force =     0.10531532   -0.10679178  -39.61817274
     atom   21 type  1   force =     0.36659904    0.42634410   -0.20265294
     atom   22 type  2   force =     1.06163959   -0.30679033   37.92336080
     atom   23 type  2   force =    -0.24661220    0.57030546  -38.81517603
     atom   24 type  1   force =    -0.16516198   -0.08922667    2.10921754
     atom   25 type  2   force =     0.21227840    0.07277932   38.52712957
     atom   26 type  2   force =    -0.13426660   -0.06164716  -37.79538366
     atom   27 type  1   force =     0.04304164   -0.90776586   -3.62701552
     atom   28 type  2   force =    -0.63111950   -0.46534297   37.62652418
     atom   29 type  2   force =    -0.11698881   -0.24672823  -38.28067215
     atom   30 type  1   force =    -1.04618986   -0.02598332   -1.36660518
     atom   31 type  2   force =     1.05734540    0.27433836   28.01545966
     atom   32 type  2   force =    -0.42009319    0.01271203  -38.55064336
     atom   33 type  1   force =     0.37554380    0.61141199    1.71103030
     atom   34 type  2   force =    -0.54624758    0.56936371   38.35852810
     atom   35 type  2   force =    -0.03443610    0.33235995  -38.16153204
     atom   36 type  3   force =     1.04775436   -0.20175182   49.94880326
     The local contribution  to forces
     atom    1 type  1   force =     0.09815452   -0.57395759   -1.86123691
     atom    2 type  2   force =     0.32273845   -0.06798415  -38.52493493
     atom    3 type  2   force =    -0.05260457    0.05718284   37.57513918
     atom    4 type  1   force =     0.60002644    0.27578426    0.53379958
     atom    5 type  2   force =     0.81058998   -0.80021607  -37.81373343
     atom    6 type  2   force =    -0.23119812    0.50570726   38.16883740
     atom    7 type  1   force =     2.55363617    1.55825442   -0.93834017
     atom    8 type  2   force =     2.01566513   -0.06718682  -37.41531635
     atom    9 type  2   force =    -0.34328054    0.05854322   38.43104360
     atom   10 type  1   force =     0.76440013   -0.16784402   -2.04769411
     atom   11 type  2   force =     0.41530850    1.08245644  -37.97809822
     atom   12 type  2   force =    -0.29375705   -0.45342698   38.15360479
     atom   13 type  1   force =    -0.30137793   -0.21476504   -1.11956227
     atom   14 type  2   force =    -0.09620259    0.05804454  -38.12028485
     atom   15 type  2   force =    -0.05786472    0.08697670   37.79990741
     atom   16 type  1   force =    -0.57931574   -2.75399186   -0.34318481
     atom   17 type  2   force =    -1.48107302   -0.04550797  -37.32759654
     atom   18 type  2   force =     0.12881297    0.48524843   38.59824901
     atom   19 type  1   force =    -3.34116817    1.45823503    2.10740695
     atom   20 type  2   force =    -0.10562580    0.11751854   39.37820052
     atom   21 type  1   force =    -0.36694685   -0.45227439    0.19806714
     atom   22 type  2   force =    -1.05690733    0.30963543  -37.68009494
     atom   23 type  2   force =     0.23806416   -0.55545250   38.57361166
     atom   24 type  1   force =     0.16974694    0.07716916   -2.10769511
     atom   25 type  2   force =    -0.21237268   -0.06245404  -38.27757587
     atom   26 type  2   force =     0.13023111    0.07119307   37.54732920
     atom   27 type  1   force =    -0.04083153    0.88569648    3.60408141
     atom   28 type  2   force =     0.63055356    0.47577951  -37.36971625
     atom   29 type  2   force =     0.11552788    0.25406249   38.03393979
     atom   30 type  1   force =     1.04180943    0.02214657    1.34680182
     atom   31 type  2   force =    -1.05932084   -0.24215816  -28.30287982
     atom   32 type  2   force =     0.41307780   -0.00068009   38.29046790
     atom   33 type  1   force =    -0.37542678   -0.61544787   -1.71214350
     atom   34 type  2   force =     0.54682625   -0.56107008  -38.10319896
     atom   35 type  2   force =     0.03484943   -0.31894062   37.91805589
     atom   36 type  3   force =    -0.99659278    0.15074762  -47.66763883
     The core correction contribution to forces
     atom    1 type  1   force =     0.00000000    0.00000000    0.00000000
     atom    2 type  2   force =    -0.00018455    0.00045614    0.02102353
     atom    3 type  2   force =     0.00022139    0.00050337   -0.02088626
     atom    4 type  1   force =     0.00000000    0.00000000    0.00000000
     atom    5 type  2   force =    -0.00035035    0.00096400    0.02054533
     atom    6 type  2   force =     0.00020864   -0.00037226   -0.02095809
     atom    7 type  1   force =     0.00000000    0.00000000    0.00000000
     atom    8 type  2   force =    -0.00043692    0.00021290    0.02120569
     atom    9 type  2   force =     0.00073938    0.00062307   -0.02077034
     atom   10 type  1   force =     0.00000000    0.00000000    0.00000000
     atom   11 type  2   force =    -0.00016969   -0.00014965    0.02084907
     atom   12 type  2   force =     0.00075272    0.00105086   -0.02079346
     atom   13 type  1   force =     0.00000000    0.00000000    0.00000000
     atom   14 type  2   force =    -0.00001344    0.00018490    0.02105394
     atom   15 type  2   force =     0.00005630    0.00038071   -0.02076200
     atom   16 type  1   force =     0.00000000    0.00000000    0.00000000
     atom   17 type  2   force =     0.00032825    0.00099575    0.02082267
     atom   18 type  2   force =    -0.00018587   -0.00022563   -0.02097986
     atom   19 type  1   force =     0.00000000    0.00000000    0.00000000
     atom   20 type  2   force =     0.00002817    0.00040915   -0.02111522
     atom   21 type  1   force =     0.00000000    0.00000000    0.00000000
     atom   22 type  2   force =     0.00011121   -0.00010467    0.02101521
     atom   23 type  2   force =    -0.00079589    0.00115996   -0.02081264
     atom   24 type  1   force =     0.00000000    0.00000000    0.00000000
     atom   25 type  2   force =     0.00009876    0.00043826    0.02097644
     atom   26 type  2   force =    -0.00030708    0.00042868   -0.02091373
     atom   27 type  1   force =     0.00000000    0.00000000    0.00000000
     atom   28 type  2   force =     0.00000248    0.00084596    0.02149600
     atom   29 type  2   force =    -0.00015719    0.00013918   -0.02077861
     atom   30 type  1   force =     0.00000000    0.00000000    0.00000000
     atom   31 type  2   force =     0.00001466    0.00188551   -0.00988403
     atom   32 type  2   force =    -0.00068382    0.00071385   -0.02142716
     atom   33 type  1   force =     0.00000000    0.00000000    0.00000000
     atom   34 type  2   force =     0.00010427    0.00044202    0.02152330
     atom   35 type  2   force =     0.00007430    0.00086079   -0.02083806
     atom   36 type  3   force =     0.00056540   -0.00053016    0.02445783
     The Hubbard contrib.    to forces
     atom    1 type  1   force =     0.00000000    0.00000000    0.00000000
     atom    2 type  2   force =     0.00000000    0.00000000    0.00000000
     atom    3 type  2   force =     0.00000000    0.00000000    0.00000000
     atom    4 type  1   force =     0.00000000    0.00000000    0.00000000
     atom    5 type  2   force =     0.00000000    0.00000000    0.00000000
     atom    6 type  2   force =     0.00000000    0.00000000    0.00000000
     atom    7 type  1   force =     0.00000000    0.00000000    0.00000000
     atom    8 type  2   force =     0.00000000    0.00000000    0.00000000
     atom    9 type  2   force =     0.00000000    0.00000000    0.00000000
     atom   10 type  1   force =     0.00000000    0.00000000    0.00000000
     atom   11 type  2   force =     0.00000000    0.00000000    0.00000000
     atom   12 type  2   force =     0.00000000    0.00000000    0.00000000
     atom   13 type  1   force =     0.00000000    0.00000000    0.00000000
     atom   14 type  2   force =     0.00000000    0.00000000    0.00000000
     atom   15 type  2   force =     0.00000000    0.00000000    0.00000000
     atom   16 type  1   force =     0.00000000    0.00000000    0.00000000
     atom   17 type  2   force =     0.00000000    0.00000000    0.00000000
     atom   18 type  2   force =     0.00000000    0.00000000    0.00000000
     atom   19 type  1   force =     0.00000000    0.00000000    0.00000000
     atom   20 type  2   force =     0.00000000    0.00000000    0.00000000
     atom   21 type  1   force =     0.00000000    0.00000000    0.00000000
     atom   22 type  2   force =     0.00000000    0.00000000    0.00000000
     atom   23 type  2   force =     0.00000000    0.00000000    0.00000000
     atom   24 type  1   force =     0.00000000    0.00000000    0.00000000
     atom   25 type  2   force =     0.00000000    0.00000000    0.00000000
     atom   26 type  2   force =     0.00000000    0.00000000    0.00000000
     atom   27 type  1   force =     0.00000000    0.00000000    0.00000000
     atom   28 type  2   force =     0.00000000    0.00000000    0.00000000
     atom   29 type  2   force =     0.00000000    0.00000000    0.00000000
     atom   30 type  1   force =     0.00000000    0.00000000    0.00000000
     atom   31 type  2   force =     0.00000000    0.00000000    0.00000000
     atom   32 type  2   force =     0.00000000    0.00000000    0.00000000
     atom   33 type  1   force =     0.00000000    0.00000000    0.00000000
     atom   34 type  2   force =     0.00000000    0.00000000    0.00000000
     atom   35 type  2   force =     0.00000000    0.00000000    0.00000000
     atom   36 type  3   force =     0.00000000    0.00000000    0.00000000
     The SCF correction term to forces
     atom    1 type  1   force =     0.00000047   -0.00000996   -0.00006241
     atom    2 type  2   force =    -0.00000491   -0.00000311   -0.00003341
     atom    3 type  2   force =    -0.00000483   -0.00000164   -0.00001384
     atom    4 type  1   force =    -0.00002508   -0.00001622   -0.00006973
     atom    5 type  2   force =     0.00000103   -0.00000836   -0.00003482
     atom    6 type  2   force =    -0.00000584   -0.00000153   -0.00001388
     atom    7 type  1   force =    -0.00000184   -0.00000288   -0.00007802
     atom    8 type  2   force =     0.00000487   -0.00000179   -0.00002899
     atom    9 type  2   force =    -0.00000287   -0.00000102   -0.00001956
     atom   10 type  1   force =    -0.00001900    0.00002411   -0.00007215
     atom   11 type  2   force =     0.00000499    0.00001688   -0.00003083
     atom   12 type  2   force =     0.00000227    0.00001396   -0.00001822
     atom   13 type  1   force =     0.00002926   -0.00002662   -0.00006849
     atom   14 type  2   force =     0.00000177   -0.00000274   -0.00003666
     atom   15 type  2   force =    -0.00000298   -0.00000401   -0.00001533
     atom   16 type  1   force =     0.00000406   -0.00002085   -0.00007709
     atom   17 type  2   force =     0.00000455   -0.00000729   -0.00003603
     atom   18 type  2   force =     0.00001334   -0.00000409   -0.00001577
     atom   19 type  1   force =    -0.00000380   -0.00000172   -0.00007448
     atom   20 type  2   force =     0.00000667   -0.00001463   -0.00002277
     atom   21 type  1   force =     0.00001247    0.00004414   -0.00006346
     atom   22 type  2   force =     0.00000177    0.00001843   -0.00003382
     atom   23 type  2   force =     0.00000167    0.00001440   -0.00002072
     atom   24 type  1   force =    -0.00000272   -0.00001870   -0.00007368
     atom   25 type  2   force =    -0.00000106   -0.00000275   -0.00003307
     atom   26 type  2   force =     0.00000099   -0.00000114   -0.00001582
     atom   27 type  1   force =     0.00000716   -0.00001439   -0.00006469
     atom   28 type  2   force =    -0.00000355   -0.00000423   -0.00002949
     atom   29 type  2   force =    -0.00000665   -0.00001055   -0.00001824
     atom   30 type  1   force =    -0.00000892    0.00000150   -0.00005953
     atom   31 type  2   force =    -0.00000758   -0.00000330   -0.00002485
     atom   32 type  2   force =     0.00000244    0.00000039   -0.00002373
     atom   33 type  1   force =     0.00000186    0.00002957   -0.00007277
     atom   34 type  2   force =    -0.00000337    0.00000649   -0.00003298
     atom   35 type  2   force =    -0.00000248    0.00000903   -0.00001879
     atom   36 type  3   force =     0.00000481   -0.00000243   -0.00005101

     Total force =     0.006895     Total SCF correction =     0.000295
     Energy error            =      1.0E-04 Ry
     Gradient error          =      2.1E-03 Ry/Bohr

     bfgs converged in  23 scf cycles and  22 bfgs steps
     (criteria: energy <  1.0E-04 Ry, force <  1.0E-02 Ry/Bohr)

     End of BFGS Geometry Optimization

     Final energy             =   -2246.4506421182 Ry

     File ./MoS2-V-O.bfgs deleted, as requested
Begin final coordinates

ATOMIC_POSITIONS (angstrom)
Mo            6.5946860964        1.7467700171        2.7662070614
S             8.1628649978        0.8411427018        4.3798666301
S             8.1778012456        0.8394694079        1.1900691582
Mo            8.1540344854        4.4900800969        2.7229735609
S             6.5514936571        3.6561848845        4.3139399763
S             6.5892733212        3.5557071060        1.1194278885
Mo            6.5499576816        7.1781625674        2.6667115966
S             8.0960383984        6.3075830111        4.3065894903
S             8.1625417752        6.3100817506        1.1127765102
Mo            8.1793201133        9.9333755847        2.7768390882
S             6.5556927794        8.9484793138        4.3265827789
S             6.6285885019        9.0315834969        1.1321952879
Mo            3.4693386416        1.7564708236        2.7564560508
S             5.0248347556        0.8062845234        4.3449645088
S             5.0342117077        0.8330474658        1.1653707132
Mo            5.0281180868        4.5406473101        2.6599581572
S             3.4969322824        3.6625594373        4.3114525479
S             3.4844865712        3.5551831370        1.1006351845
Mo            3.5346202042        7.1976703313        2.6448685545
S             5.0405543832        6.3027498321        1.0270844149
Mo            5.0289565393        9.9013157159        2.7279129606
S             3.5145657631        8.9293116128        4.3367689888
S             3.4333950699        9.0401570785        1.1156694327
Mo            0.2964381752        1.7412955138        2.7856161947
S             1.9019949137        0.8418555446        4.3718801100
S             1.8788494473        0.8410012906        1.1896602125
Mo            1.8993917738        4.4617005319        2.7010861051
S             0.3064588318        3.6099815552        4.3334217486
S             0.2825948599        3.5393986886        1.1515556783
Mo            0.2715511004        7.2251677048        2.7407890774
S             1.9412752591        6.3156884547        4.2080667888
S             1.8745321587        6.3189131277        1.1287581067
Mo            1.8953658043        9.9262735703        2.7778415798
S             0.3076673550        9.0289745877        4.3771951758
S             0.3064658153        9.0597860231        1.1766174897
O             1.9697077928        6.2785037221        5.7069527284
End final coordinates



     Writing all to output data dir ./MoS2-V-O.save/
 
     init_run     :      4.62s CPU      5.14s WALL (       1 calls)
     electrons    :   2152.17s CPU   2436.83s WALL (      23 calls)
     update_pot   :     67.01s CPU     71.44s WALL (      22 calls)
     forces       :     62.51s CPU     71.48s WALL (      23 calls)

     Called by init_run:
     wfcinit      :      0.47s CPU      0.53s WALL (       1 calls)
     potinit      :      2.40s CPU      2.65s WALL (       1 calls)
     hinit0       :      0.44s CPU      0.47s WALL (       1 calls)

     Called by electrons:
     c_bands      :    309.98s CPU    317.83s WALL (     222 calls)
     sum_band     :    123.90s CPU    159.98s WALL (     222 calls)
     v_of_rho     :    210.08s CPU    255.60s WALL (     240 calls)
     newd         :     74.34s CPU    108.47s WALL (     240 calls)
     PAW_pot      :      9.48s CPU      9.52s WALL (     262 calls)
     mix_rho      :   1447.12s CPU   1610.41s WALL (     222 calls)

     Called by c_bands:
     init_us_2    :      5.08s CPU      5.48s WALL (     467 calls)
     init_us_2:cp :      5.07s CPU      5.48s WALL (     467 calls)
     regterg      :    293.15s CPU    300.58s WALL (     222 calls)

     Called by *egterg:
     rdiaghg      :     19.40s CPU     19.60s WALL (    1104 calls)
     h_psi        :    191.09s CPU    193.01s WALL (    1132 calls)
     s_psi        :     18.04s CPU     18.12s WALL (    1132 calls)
     g_psi        :      0.92s CPU      0.94s WALL (     909 calls)

     Called by h_psi:
     h_psi:calbec :     20.25s CPU     20.39s WALL (    1132 calls)
     vloc_psi     :    150.65s CPU    152.30s WALL (    1132 calls)
     add_vuspsi   :     17.79s CPU     17.90s WALL (    1132 calls)

     General routines
     calbec       :     29.48s CPU     29.68s WALL (    1468 calls)
     fft          :    142.27s CPU    165.16s WALL (   15978 calls)
     ffts         :    645.65s CPU    802.80s WALL (  355468 calls)
     fftw         :     96.92s CPU     97.91s WALL (  134054 calls)
     interpolate  :      2.98s CPU      3.45s WALL (     240 calls)
 
     Parallel routines
 
     PWSCF        :  38m16.26s CPU  43m19.41s WALL

 
   This run was terminated on:  18:37:20   1Nov2023            

=------------------------------------------------------------------------------=
   JOB DONE.
=------------------------------------------------------------------------------=
