
     Program PWSCF v.7.2 starts on  1Nov2023 at 17: 4: 1 

     This program is part of the open-source Quantum ESPRESSO suite
     for quantum simulation of materials; please cite
         "P. Giannozzi et al., J. Phys.:Condens. Matter 21 395502 (2009);
         "P. Giannozzi et al., J. Phys.:Condens. Matter 29 465901 (2017);
         "P. Giannozzi et al., J. Chem. Phys. 152 154105 (2020);
          URL http://www.quantum-espresso.org", 
     in publications or presentations arising from this work. More details at
     http://www.quantum-espresso.org/quote

     Parallel version (MPI & OpenMP), running on      48 processor cores
     Number of MPI processes:                48
     Threads/MPI process:                     1

     MPI processes distributed on     1 nodes
     10376 MiB available memory on the printing compute node when the environment starts
 
     Waiting for input...
     Reading input from standard input
Warning: card &CELL ignored
Warning: card CELL_DYNAMICS = 'BFGS', ignored
Warning: card CELL_DOFREE = '2DXY' ignored
Warning: card / ignored

     Current dimensions of program PWSCF are:
     Max number of different atomic species (ntypx) = 10
     Max number of k-points (npk) =  40000
     Max angular momentum in pseudopotentials (lmaxx) =  4
     file O.pbe-n-kjpaw_psl.0.1.UPF: wavefunction(s)  2P renormalized

     IMPORTANT: XC functional enforced from input :
     Exchange-correlation= RVV10
                           (   1   4  13   4  26   0   0)
     Any further DFT definition will be discarded
     Please, verify this is what you really want


     gamma-point specific algorithms are used
     signal trapping enabled: kill the code with -SIGUSR1 to stop cleanly the simulation 
 
     R & G space division:  proc/nbgrp/npool/nimage =      48
     Subspace diagonalization in iterative solution of the eigenvalue problem:
     one sub-group per band group will be used
     scalapack distributed-memory algorithm (size of sub-group:  2*  2 procs)

 
     Parallelization info
     --------------------
     sticks:   dense  smooth     PW     G-vecs:    dense   smooth      PW
     Min         396     194     47               101632    35090    4376
     Max         398     196     50               101674    35128    4410
     Sum       19091    9389   2349              4879585  1685513  210763
 
     Using Slab Decomposition
 


     bravais-lattice index     =            0
     lattice parameter (alat)  =      17.8707  a.u.
     unit-cell volume          =   17436.2743 (a.u.)^3
     number of atoms/cell      =           36
     number of atomic types    =            3
     number of electrons       =       312.00
     number of Kohn-Sham states=          187
     kinetic-energy cutoff     =      80.0000  Ry
     charge density cutoff     =     650.0000  Ry
     scf convergence threshold =      1.0E-06
     mixing beta               =       0.7000
     number of iterations used =            8  local-TF  mixing
     energy convergence thresh.=      1.0E-04
     force convergence thresh. =      1.0E-02
     Exchange-correlation= RVV10
                           (   1   4  13   4  26   0   0)
     nstep                     =          200


     celldm(1)=  17.870686  celldm(2)=   0.000000  celldm(3)=   0.000000
     celldm(4)=   0.000000  celldm(5)=   0.000000  celldm(6)=   0.000000

     crystal axes: (cart. coord. in units of alat)
               a(1) = (   1.000000   0.000000   0.000000 )  
               a(2) = (   0.000000   1.155671   0.000000 )  
               a(3) = (   0.000000   0.000000   2.643601 )  

     reciprocal axes: (cart. coord. in units 2 pi/alat)
               b(1) = (  1.000000  0.000000  0.000000 )  
               b(2) = (  0.000000  0.865298  0.000000 )  
               b(3) = (  0.000000  0.000000  0.378272 )  


     PseudoPot. # 1 for Mo read from file:
     ../pseudo/Mo_ONCV_PBE-1.0.oncvpsp.upf
     MD5 check sum: 1b5d28e075c9ccadda658a603575cd1f
     Pseudo is Norm-conserving, Zval = 14.0
     Generated using ONCVPSP code by D. R. Hamann
     Using radial grid of 1526 points,  6 beta functions with: 
                l(1) =   0
                l(2) =   0
                l(3) =   1
                l(4) =   1
                l(5) =   2
                l(6) =   2

     PseudoPot. # 2 for S  read from file:
     ../pseudo/s_pbe_v1.4.uspp.F.UPF
     MD5 check sum: 88d86576ff6df21479756cfb9bdac1df
     Pseudo is Ultrasoft + core correction, Zval =  6.0
     Generated by new atomic code, or converted to UPF format
     Using radial grid of  907 points,  6 beta functions with: 
                l(1) =   0
                l(2) =   0
                l(3) =   1
                l(4) =   1
                l(5) =   2
                l(6) =   2
     Q(r) pseudized with  8 coefficients,  rinner =    1.300   1.300   1.300
                                                       1.300   1.300

     PseudoPot. # 3 for O  read from file:
     ../pseudo/O.pbe-n-kjpaw_psl.0.1.UPF
     MD5 check sum: 0234752ac141de4415c5fc33072bef88
     Pseudo is Projector augmented-wave + core cor, Zval =  6.0
     Generated using "atomic" code by A. Dal Corso  v.5.0.99 svn rev. 10869
     Shape of augmentation charge: BESSEL
     Using radial grid of 1095 points,  4 beta functions with: 
                l(1) =   0
                l(2) =   0
                l(3) =   1
                l(4) =   1
     Q(r) pseudized with 0 coefficients 


     atomic species   valence    mass     pseudopotential
        Mo            14.00    95.94000     Mo( 1.00)
        S              6.00    32.06500     S ( 1.00)
        O              6.00    15.99940     O ( 1.00)

     No symmetry found



   Cartesian axes

     site n.     atom                  positions (alat units)
         1           Mo  tau(   1) = (   0.6952221   0.1890506   0.2985846  )
         2           S   tau(   2) = (   0.8646417   0.0856217   0.4689279  )
         3           S   tau(   3) = (   0.8663890   0.0857843   0.1351291  )
         4           Mo  tau(   4) = (   0.8560186   0.4753274   0.2873942  )
         5           S   tau(   5) = (   0.6873294   0.3936244   0.4596353  )
         6           S   tau(   6) = (   0.6929804   0.3713468   0.1185692  )
         7           Mo  tau(   7) = (   0.6862796   0.7633098   0.2825370  )
         8           S   tau(   8) = (   0.8545980   0.6708292   0.4486168  )
         9           S   tau(   9) = (   0.8545123   0.6666874   0.1146125  )
        10           Mo  tau(  10) = (   0.8629403   1.0471007   0.3006803  )
        11           S   tau(  11) = (   0.6868280   0.9456650   0.4634891  )
        12           S   tau(  12) = (   0.6998113   0.9568511   0.1205389  )
        13           Mo  tau(  13) = (   0.3618216   0.1847309   0.2935964  )
        14           S   tau(  14) = (   0.5260962   0.0863870   0.4600448  )
        15           S   tau(  15) = (   0.5348379   0.0894875   0.1297123  )
        16           Mo  tau(  16) = (   0.5265817   0.4772436   0.2784130  )
        17           S   tau(  17) = (   0.3624753   0.3882513   0.4525556  )
        18           S   tau(  18) = (   0.3635411   0.3752055   0.1119148  )
        19           Mo  tau(  19) = (   0.3652268   0.7630864   0.2781795  )
        20           S   tau(  20) = (   0.5269494   0.6690381   0.1096838  )
        21           Mo  tau(  21) = (   0.5300192   1.0470394   0.2900995  )
        22           S   tau(  22) = (   0.3670346   0.9457522   0.4574073  )
        23           S   tau(  23) = (   0.3604225   0.9585725   0.1159032  )
        24           Mo  tau(  24) = (   0.0313099   0.1847895   0.3013130  )
        25           S   tau(  25) = (   0.1956761   0.0838230   0.4650863  )
        26           S   tau(  26) = (   0.1967693   0.0903508   0.1278874  )
        27           Mo  tau(  27) = (   0.1967578   0.4753919   0.2813011  )
        28           S   tau(  28) = (   0.0287851   0.3864324   0.4586755  )
        29           S   tau(  29) = (   0.0244514   0.3729871   0.1239344  )
        30           Mo  tau(  30) = (   0.0286728   0.7631204   0.2856894  )
        31           S   tau(  31) = (   0.2011512   0.6675435   0.4465001  )
        32           S   tau(  32) = (   0.1969214   0.6672839   0.1104564  )
        33           Mo  tau(  33) = (   0.1950294   1.0511147   0.2932237  )
        34           S   tau(  34) = (   0.0312912   0.9612169   0.4667423  )
        35           S   tau(  35) = (   0.0292670   0.9563028   0.1216485  )
        36           O   tau(  36) = (   0.7777778   0.5136314   0.5407634  )

     number of k points=     1  Gaussian smearing, width (Ry)=  0.0100
                       cart. coord. in units 2pi/alat
        k(    1) = (   0.0000000   0.0000000   0.0000000), wk =   2.0000000

     Dense  grid:  2439793 G-vectors     FFT dimensions: ( 150, 180, 384)

     Smooth grid:   842757 G-vectors     FFT dimensions: ( 108, 120, 270)

     Estimated max dynamical RAM per process >     269.22 MB

     Estimated total dynamical RAM >      12.62 GB

     Initial potential from superposition of free atoms

     starting charge     311.9873, renormalised to     312.0000

     negative rho (up, down):  2.740E-04 0.000E+00


---------------------------------------------------------------------------------
Carrying out rVV10 run using the following parameters:
Nqs =      20    Nr_points =    1024   r_max =   100.000
b_value =  6.30000    beta =  0.00901
     q_mesh =  0.00010000  0.00030000  0.00058939  0.00100810
               0.00161396  0.00249058  0.00375900  0.00559430
               0.00824984  0.01209221  0.01765183  0.02569619
               0.03733578  0.05417739  0.07854596  0.11380545
               0.16482331  0.23864234  0.34545298  0.50000000

Gradients computed in Reciprocal space

---------------------------------------------------------------------------------


     Starting wfcs are  216 randomized atomic wfcs
     Checking if some PAW data can be deallocated... 

     total cpu time spent up to now is        8.2 secs

     Self-consistent Calculation

     iteration #  1     ecut=    80.00 Ry     beta= 0.70
     Davidson diagonalization with overlap
     ethr =  1.00E-02,  avg # of iterations =  2.0

     Threshold (ethr) on eigenvalues was too large:
     Diagonalizing with lowered threshold

     Davidson diagonalization with overlap
     ethr =  4.15E-04,  avg # of iterations =  4.0

     negative rho (up, down):  2.587E-08 0.000E+00

     total cpu time spent up to now is       25.9 secs

     total energy              =   -2246.18477415 Ry
     estimated scf accuracy    <       1.55246183 Ry

     iteration #  2     ecut=    80.00 Ry     beta= 0.70
     Davidson diagonalization with overlap
     ethr =  4.98E-04,  avg # of iterations =  3.0

     total cpu time spent up to now is       31.3 secs

     total energy              =   -2246.15964140 Ry
     estimated scf accuracy    <       0.72634080 Ry

     iteration #  3     ecut=    80.00 Ry     beta= 0.70
     Davidson diagonalization with overlap
     ethr =  2.33E-04,  avg # of iterations =  2.0

     total cpu time spent up to now is       36.0 secs

     total energy              =   -2246.15223609 Ry
     estimated scf accuracy    <       0.24072534 Ry

     iteration #  4     ecut=    80.00 Ry     beta= 0.70
     Davidson diagonalization with overlap
     ethr =  7.72E-05,  avg # of iterations =  8.0

     total cpu time spent up to now is       41.0 secs

     total energy              =   -2246.18752757 Ry
     estimated scf accuracy    <       0.03498755 Ry

     iteration #  5     ecut=    80.00 Ry     beta= 0.70
     Davidson diagonalization with overlap
     ethr =  1.12E-05,  avg # of iterations = 14.0

     total cpu time spent up to now is       46.7 secs

     total energy              =   -2246.18962147 Ry
     estimated scf accuracy    <       0.01946399 Ry

     iteration #  6     ecut=    80.00 Ry     beta= 0.70
     Davidson diagonalization with overlap
     ethr =  6.24E-06,  avg # of iterations =  2.0

     total cpu time spent up to now is       51.2 secs

     total energy              =   -2246.18955736 Ry
     estimated scf accuracy    <       0.01430733 Ry

     iteration #  7     ecut=    80.00 Ry     beta= 0.70
     Davidson diagonalization with overlap
     ethr =  4.59E-06,  avg # of iterations =  1.0

     total cpu time spent up to now is       55.5 secs

     total energy              =   -2246.18825983 Ry
     estimated scf accuracy    <       0.00931432 Ry

     iteration #  8     ecut=    80.00 Ry     beta= 0.70
     Davidson diagonalization with overlap
     ethr =  2.99E-06,  avg # of iterations =  1.0

     negative rho (up, down):  1.224E-05 0.000E+00

     total cpu time spent up to now is       64.0 secs

     total energy              =   -2246.18730246 Ry
     estimated scf accuracy    <       0.00509643 Ry

     iteration #  9     ecut=    80.00 Ry     beta= 0.70
     Davidson diagonalization with overlap
     ethr =  1.63E-06,  avg # of iterations =  2.0

     negative rho (up, down):  1.204E-02 0.000E+00

     total cpu time spent up to now is       70.7 secs

     total energy              =   -2246.18669486 Ry
     estimated scf accuracy    <       0.00284906 Ry

     iteration # 10     ecut=    80.00 Ry     beta= 0.70
     Davidson diagonalization with overlap
     ethr =  9.13E-07,  avg # of iterations =  2.0

     negative rho (up, down):  2.588E-02 0.000E+00

     total cpu time spent up to now is       77.7 secs

     total energy              =   -2246.18661576 Ry
     estimated scf accuracy    <       0.00150174 Ry

     iteration # 11     ecut=    80.00 Ry     beta= 0.70
     Davidson diagonalization with overlap
     ethr =  4.81E-07,  avg # of iterations =  2.0

     negative rho (up, down):  2.054E-02 0.000E+00

     total cpu time spent up to now is       86.2 secs

     total energy              =   -2246.18666007 Ry
     estimated scf accuracy    <       0.00046966 Ry

     iteration # 12     ecut=    80.00 Ry     beta= 0.70
     Davidson diagonalization with overlap
     ethr =  1.51E-07,  avg # of iterations =  2.0

     negative rho (up, down):  8.985E-03 0.000E+00

     total cpu time spent up to now is       94.1 secs

     total energy              =   -2246.18662561 Ry
     estimated scf accuracy    <       0.00007050 Ry

     iteration # 13     ecut=    80.00 Ry     beta= 0.70
     Davidson diagonalization with overlap
     ethr =  2.26E-08,  avg # of iterations =  7.0

     negative rho (up, down):  3.311E-03 0.000E+00

     total cpu time spent up to now is      103.7 secs

     total energy              =   -2246.18668254 Ry
     estimated scf accuracy    <       0.00001737 Ry

     iteration # 14     ecut=    80.00 Ry     beta= 0.70
     Davidson diagonalization with overlap
     ethr =  5.57E-09,  avg # of iterations =  2.0

     negative rho (up, down):  5.195E-04 0.000E+00

     total cpu time spent up to now is      113.1 secs

     total energy              =   -2246.18668898 Ry
     estimated scf accuracy    <       0.00000313 Ry

     iteration # 15     ecut=    80.00 Ry     beta= 0.70
     Davidson diagonalization with overlap
     ethr =  1.00E-09,  avg # of iterations =  4.0

     negative rho (up, down):  1.998E-04 0.000E+00

     total cpu time spent up to now is      117.9 secs

     End of self-consistent calculation

          k = 0.0000 0.0000 0.0000 (105382 PWs)   bands (ev):

   -62.9059 -62.8998 -62.8782 -62.8671 -62.8614 -62.8575 -62.8512 -62.8472
   -62.8286 -62.8177 -62.7629 -62.7356 -37.2671 -37.2091 -37.1796 -37.1610
   -37.1580 -37.1350 -37.1191 -37.1034 -37.1025 -37.0905 -37.0841 -37.0669
   -37.0597 -37.0548 -37.0477 -37.0362 -37.0307 -37.0262 -37.0192 -37.0159
   -37.0054 -36.9997 -36.9958 -36.9556 -36.9506 -36.9423 -36.9284 -36.9148
   -36.9095 -36.9006 -36.8766 -36.8631 -36.8365 -36.8338 -36.7973 -36.7245
   -22.6046 -15.9657 -15.7859 -15.1498 -15.0445 -14.9642 -14.8753 -14.7494
   -14.5130 -14.4769 -14.4218 -14.3682 -14.3561 -14.3238 -14.2717 -14.2316
   -14.1415 -14.1189 -14.0720 -13.9216 -13.8998 -13.8660 -13.8445 -13.6542
    -9.2400  -8.0025  -7.8700  -7.5510  -7.4348  -7.3312  -7.2479  -7.2134
    -7.1913  -7.0104  -6.9758  -6.8363  -6.7971  -6.7299  -6.6407  -6.6258
    -6.5410  -6.4521  -6.3473  -6.2834  -6.1570  -6.0411  -6.0013  -5.9255
    -5.8539  -5.7875  -5.7684  -5.7500  -5.6800  -5.6559  -5.6113  -5.5734
    -5.5323  -5.5004  -5.4716  -5.3046  -5.1925  -5.1630  -5.1078  -5.0725
    -5.0106  -4.9834  -4.9431  -4.8655  -4.7322  -4.5444  -4.4088  -4.3320
    -4.3288  -4.2252  -4.1912  -4.1201  -4.0582  -4.0151  -3.8935  -3.8059
    -3.7788  -3.7292  -3.6630  -3.6102  -3.5757  -3.5459  -3.5304  -3.4904
    -3.4503  -3.4102  -3.2938  -3.2291  -3.0601  -3.0009  -2.9181  -2.8886
    -2.8540  -2.7775  -2.7583  -2.7043  -2.6933  -2.6326  -2.5593  -2.3503
    -2.0838  -2.0102  -1.8986  -1.2124  -1.0522  -0.8601  -0.5887  -0.2010
    -0.1453  -0.1102  -0.0479   0.0271   0.0985   0.1438   0.2181   0.2360
     0.2733   0.3401   0.4279   0.4519   0.5112   0.5329   0.5620   0.6116
     0.6585   0.7075   0.7358   0.7667   0.7858   0.8701   0.8971   0.9373
     1.0024   1.1060   1.1352

     the Fermi energy is    -1.1327 ev

!    total energy              =   -2246.18668990 Ry
     estimated scf accuracy    <       0.00000049 Ry
     smearing contrib. (-TS)   =      -0.00807972 Ry
     internal energy E=F+TS    =   -2246.17861018 Ry

     The total energy is F=E-TS. E is the sum of the following terms:
     one-electron contribution =  -18492.23893725 Ry
     hartree contribution      =    9234.52988380 Ry
     xc contribution           =    -392.17480535 Ry
     ewald contribution        =    7413.57042657 Ry
     one-center paw contrib.   =      -9.86517796 Ry

     convergence has been achieved in  15 iterations

     negative rho (up, down):  1.998E-04 0.000E+00

     Forces acting on atoms (cartesian axes, Ry/au):

     atom    1 type  1   force =     0.02815699   -0.04461684   -0.00206630
     atom    2 type  2   force =    -0.01382702    0.01318476    0.00187319
     atom    3 type  2   force =    -0.01232544    0.00675854   -0.00515239
     atom    4 type  1   force =     0.04452632   -0.01916068   -0.09651424
     atom    5 type  2   force =    -0.04756623   -0.00868787   -0.02644890
     atom    6 type  2   force =     0.00054387    0.01070395    0.00020592
     atom    7 type  1   force =     0.00691587   -0.03111279   -0.00759665
     atom    8 type  2   force =     0.00493863    0.04595649   -0.01235987
     atom    9 type  2   force =     0.01212822    0.00647139    0.01307309
     atom   10 type  1   force =    -0.01152695    0.00344812   -0.02778167
     atom   11 type  2   force =     0.00557779   -0.00046378   -0.00415850
     atom   12 type  2   force =    -0.00220684    0.00708312    0.00542605
     atom   13 type  1   force =     0.00445919    0.00887671   -0.00202256
     atom   14 type  2   force =     0.00688359   -0.00046772    0.01170068
     atom   15 type  2   force =    -0.00919304    0.00333275   -0.00884573
     atom   16 type  1   force =     0.00382391    0.02624419    0.01099499
     atom   17 type  2   force =     0.00509333   -0.00186529    0.00338223
     atom   18 type  2   force =    -0.00953545   -0.00895807    0.01056037
     atom   19 type  1   force =    -0.00244661   -0.01127925   -0.01034743
     atom   20 type  2   force =     0.00512219   -0.00450847    0.00119890
     atom   21 type  1   force =    -0.00627795    0.00567093   -0.00111275
     atom   22 type  2   force =    -0.00291094   -0.00261097   -0.00315578
     atom   23 type  2   force =     0.00037514    0.00257870    0.01146322
     atom   24 type  1   force =    -0.00764581   -0.00108780   -0.02422767
     atom   25 type  2   force =     0.01698386    0.01772313    0.00816712
     atom   26 type  2   force =    -0.01195951   -0.00136961   -0.00398286
     atom   27 type  1   force =     0.00176839   -0.00529247    0.00297023
     atom   28 type  2   force =     0.01539772   -0.00860838   -0.00840180
     atom   29 type  2   force =    -0.00320775    0.00535171   -0.00132916
     atom   30 type  1   force =     0.00735019    0.02662527   -0.01394165
     atom   31 type  2   force =     0.00239129    0.00375028    0.01762161
     atom   32 type  2   force =    -0.00803562    0.00492585    0.00562308
     atom   33 type  1   force =     0.01426174   -0.00487778   -0.00943225
     atom   34 type  2   force =     0.00210691   -0.04261598   -0.00793881
     atom   35 type  2   force =    -0.00782992    0.00496535    0.01442007
     atom   36 type  3   force =    -0.03231006   -0.00606747    0.15813620
     The non-local contrib.  to forces
     atom    1 type  1   force =    -0.00605436    0.04408793   -0.01793945
     atom    2 type  2   force =    -0.01186883    0.00035017   -0.26739798
     atom    3 type  2   force =    -0.01715130   -0.00116921    0.27156435
     atom    4 type  1   force =    -0.00564628    0.00813492    0.00486078
     atom    5 type  2   force =     0.26215768    0.29749906    0.00899479
     atom    6 type  2   force =    -0.00381402    0.01207312    0.26121944
     atom    7 type  1   force =    -0.01142220    0.01910138   -0.02117178
     atom    8 type  2   force =    -0.10786003   -0.20673486   -0.12554500
     atom    9 type  2   force =     0.00488346   -0.00985074    0.27917307
     atom   10 type  1   force =     0.01071497    0.00753540   -0.00346073
     atom   11 type  2   force =     0.01757056    0.00178635   -0.26045678
     atom   12 type  2   force =    -0.01120476   -0.01511530    0.26227931
     atom   13 type  1   force =    -0.00839787    0.01590164   -0.00707586
     atom   14 type  2   force =     0.00850251   -0.01114770   -0.25840131
     atom   15 type  2   force =    -0.00926755   -0.00864483    0.26191501
     atom   16 type  1   force =    -0.00143775    0.00294939   -0.03395643
     atom   17 type  2   force =     0.00564667   -0.03094102   -0.24803553
     atom   18 type  2   force =    -0.00721869   -0.00488102    0.27244902
     atom   19 type  1   force =     0.01780830    0.00546872   -0.00759552
     atom   20 type  2   force =     0.00241192   -0.01928842    0.26000023
     atom   21 type  1   force =    -0.00060912    0.02307730    0.00576515
     atom   22 type  2   force =    -0.00663924    0.00353159   -0.25922749
     atom   23 type  2   force =     0.00685090   -0.01303770    0.26535127
     atom   24 type  1   force =     0.00575920    0.01474327   -0.01070035
     atom   25 type  2   force =     0.01081914    0.00795115   -0.25975171
     atom   26 type  2   force =    -0.00278150   -0.01103256    0.26429988
     atom   27 type  1   force =    -0.00501896    0.00805784    0.00868852
     atom   28 type  2   force =     0.03062752   -0.03611323   -0.27602311
     atom   29 type  2   force =     0.00141651    0.00661424    0.26687740
     atom   30 type  1   force =    -0.00821021   -0.00093103    0.01471689
     atom   31 type  2   force =    -0.00367310    0.00344209   -0.24881950
     atom   32 type  2   force =    -0.00067246   -0.01298420    0.27238223
     atom   33 type  1   force =    -0.00323973    0.00852824    0.00602702
     atom   34 type  2   force =    -0.00353371   -0.03597025   -0.27264968
     atom   35 type  2   force =    -0.00304059   -0.01069487    0.27265702
     atom   36 type  3   force =    -0.64650350   -0.61794082   -0.95122716
     The ionic contribution  to forces
     atom    1 type  1   force =    -0.10084545   -1.71014526    3.64206250
     atom    2 type  2   force =    -0.48067066   -0.35030282   39.06006798
     atom    3 type  2   force =    -0.10551657   -0.20309695  -36.70911789
     atom    4 type  1   force =     2.06621257   -0.41900777   -6.45425534
     atom    5 type  2   force =    -4.96960320   -3.86599758   35.05703556
     atom    6 type  2   force =     0.19689319   -0.78136319  -39.17578382
     atom    7 type  1   force =    -3.40036818   -0.53051783   -0.33552685
     atom    8 type  2   force =     1.18005493    4.51910415   34.67845736
     atom    9 type  2   force =     0.47022144    0.25314023  -39.12602736
     atom   10 type  1   force =    -0.92062827    0.00114716    4.59967823
     atom   11 type  2   force =    -0.74610689   -0.88570620   38.90733523
     atom   12 type  2   force =     0.39676146    0.87877696  -38.46074600
     atom   13 type  1   force =     0.15315459    0.29380798    1.76758554
     atom   14 type  2   force =    -0.23899950   -0.48145922   38.33000664
     atom   15 type  2   force =     0.05455226   -0.23309778  -37.36617938
     atom   16 type  1   force =    -2.16962317    3.58642027   -2.64153508
     atom   17 type  2   force =     0.29591915    1.15805981   37.62429635
     atom   18 type  2   force =    -0.26878328   -0.76511188  -39.24068966
     atom   19 type  1   force =     2.27106556   -1.72646368   -0.64880399
     atom   20 type  2   force =     0.00096134   -0.00355787  -39.32787814
     atom   21 type  1   force =    -0.28217108    0.27324825    0.20276761
     atom   22 type  2   force =     0.32251588   -1.44104597   38.28410212
     atom   23 type  2   force =    -0.12933475    0.76809583  -38.77799952
     atom   24 type  1   force =     0.23994432   -0.04929616    4.39714883
     atom   25 type  2   force =     0.78457724    0.00621048   39.13714850
     atom   26 type  2   force =    -0.24146325   -0.05630203  -37.82801416
     atom   27 type  1   force =     0.73899018    0.23474879   -3.90724057
     atom   28 type  2   force =     2.01906206   -0.08230009   37.43973149
     atom   29 type  2   force =    -0.00450703   -0.62615379  -38.16186899
     atom   30 type  1   force =     0.77466990    0.42809173   -1.94530864
     atom   31 type  2   force =     1.64628748    0.32216094   37.02199250
     atom   32 type  2   force =    -0.38269833    0.12191183  -39.29811578
     atom   33 type  1   force =     0.94504518   -0.71741436    1.23598155
     atom   34 type  2   force =     0.50765181   -1.03224227   39.19367160
     atom   35 type  2   force =    -0.20734226    0.62146546  -38.35868459
     atom   36 type  3   force =    -0.41587865    2.49419281   47.18470617
     The local contribution  to forces
     atom    1 type  1   force =     0.13501741    1.62148573   -3.62679546
     atom    2 type  2   force =     0.47824882    0.36332306  -38.81177432
     atom    3 type  2   force =     0.10951593    0.21106856   36.45316221
     atom    4 type  1   force =    -2.01624727    0.39186517    6.35244657
     atom    5 type  2   force =     4.67534251    3.57705212  -35.09770534
     atom    6 type  2   force =    -0.19300868    0.78110900   38.93540356
     atom    7 type  1   force =     3.41884057    0.48026362    0.34856469
     atom    8 type  2   force =    -1.07322144   -4.27799099  -34.57880461
     atom    9 type  2   force =    -0.46305615   -0.23729161   38.88089238
     atom   10 type  1   force =     0.89820749   -0.00527698   -4.62469592
     atom   11 type  2   force =     0.73499688    0.88370168  -38.67211465
     atom   12 type  2   force =    -0.38887179   -0.85792042   38.22458590
     atom   13 type  1   force =    -0.14011149   -0.30072683   -1.76331093
     atom   14 type  2   force =     0.23797337    0.49221937  -38.08070031
     atom   15 type  2   force =    -0.05499011    0.24463108   37.11588036
     atom   16 type  1   force =     2.17500523   -3.56319248    2.68589118
     atom   17 type  2   force =    -0.29606833   -1.13061928  -37.39334562
     atom   18 type  2   force =     0.26631304    0.76144884   38.99957277
     atom   19 type  1   force =    -2.29114589    1.70967784    0.64530133
     atom   20 type  2   force =     0.00184874    0.01756272   39.08977729
     atom   21 type  1   force =     0.27670837   -0.29062662   -0.21039360
     atom   22 type  2   force =    -0.31890717    1.43540737  -38.04896017
     atom   23 type  2   force =     0.12342482   -0.75362243   38.54461291
     atom   24 type  1   force =    -0.25347525    0.03348408   -4.41135945
     atom   25 type  2   force =    -0.77824996    0.00412540  -38.89028733
     atom   26 type  2   force =     0.23245813    0.06537124   37.58042411
     atom   27 type  1   force =    -0.73218093   -0.24812351    3.90087044
     atom   28 type  2   force =    -2.03295310    0.10740826  -37.19352846
     atom   29 type  2   force =     0.00022021    0.62570015   37.91413953
     atom   30 type  1   force =    -0.75936428   -0.40060178    1.91603839
     atom   31 type  2   force =    -1.64063085   -0.32182968  -36.77617427
     atom   32 type  2   force =     0.37562795   -0.10481340   39.05201639
     atom   33 type  1   force =    -0.92756437    0.70400933   -1.25225150
     atom   34 type  2   force =    -0.50260892    1.02442862  -38.95039350
     atom   35 type  2   force =     0.20258707   -0.60672339   38.12139076
     atom   36 type  3   force =     1.02285176   -1.88915549  -46.08490106
     The core correction contribution to forces
     atom    1 type  1   force =     0.00000000    0.00000000    0.00000000
     atom    2 type  2   force =     0.00039775   -0.00011589    0.02059164
     atom    3 type  2   force =     0.00076631   -0.00003482   -0.02091742
     atom    4 type  1   force =     0.00000000    0.00000000    0.00000000
     atom    5 type  2   force =    -0.01553002   -0.01731367    0.00508886
     atom    6 type  2   force =     0.00042302   -0.00112066   -0.02081804
     atom    7 type  1   force =     0.00000000    0.00000000    0.00000000
     atom    8 type  2   force =     0.00587912    0.01159977    0.01331667
     atom    9 type  2   force =    -0.00000778    0.00052070   -0.02113738
     atom   10 type  1   force =     0.00000000    0.00000000    0.00000000
     atom   11 type  2   force =    -0.00083657   -0.00034726    0.02068930
     atom   12 type  2   force =     0.00110098    0.00128046   -0.02083758
     atom   13 type  1   force =     0.00000000    0.00000000    0.00000000
     atom   14 type  2   force =    -0.00051076    0.00000955    0.02041961
     atom   15 type  2   force =     0.00053849    0.00046995   -0.02062923
     atom   16 type  1   force =     0.00000000    0.00000000    0.00000000
     atom   17 type  2   force =    -0.00031242    0.00163736    0.02013946
     atom   18 type  2   force =     0.00020091   -0.00041908   -0.02098587
     atom   19 type  1   force =     0.00000000    0.00000000    0.00000000
     atom   20 type  2   force =    -0.00003469    0.00077530   -0.02091669
     atom   21 type  1   force =     0.00000000    0.00000000    0.00000000
     atom   22 type  2   force =     0.00014902   -0.00048621    0.02058390
     atom   23 type  2   force =    -0.00056876    0.00115827   -0.02076230
     atom   24 type  1   force =     0.00000000    0.00000000    0.00000000
     atom   25 type  2   force =    -0.00017962   -0.00055541    0.02068256
     atom   26 type  2   force =    -0.00014984    0.00058518   -0.02090328
     atom   27 type  1   force =     0.00000000    0.00000000    0.00000000
     atom   28 type  2   force =    -0.00143031    0.00244149    0.02114290
     atom   29 type  2   force =    -0.00032021   -0.00082046   -0.02070160
     atom   30 type  1   force =     0.00000000    0.00000000    0.00000000
     atom   31 type  2   force =     0.00034082   -0.00007902    0.02030247
     atom   32 type  2   force =    -0.00027833    0.00080329   -0.02092015
     atom   33 type  1   force =     0.00000000    0.00000000    0.00000000
     atom   34 type  2   force =     0.00053047    0.00115010    0.02108731
     atom   35 type  2   force =    -0.00002664    0.00092346   -0.02115793
     atom   36 type  3   force =     0.00718446    0.00677105    0.00929291
     The Hubbard contrib.    to forces
     atom    1 type  1   force =     0.00000000    0.00000000    0.00000000
     atom    2 type  2   force =     0.00000000    0.00000000    0.00000000
     atom    3 type  2   force =     0.00000000    0.00000000    0.00000000
     atom    4 type  1   force =     0.00000000    0.00000000    0.00000000
     atom    5 type  2   force =     0.00000000    0.00000000    0.00000000
     atom    6 type  2   force =     0.00000000    0.00000000    0.00000000
     atom    7 type  1   force =     0.00000000    0.00000000    0.00000000
     atom    8 type  2   force =     0.00000000    0.00000000    0.00000000
     atom    9 type  2   force =     0.00000000    0.00000000    0.00000000
     atom   10 type  1   force =     0.00000000    0.00000000    0.00000000
     atom   11 type  2   force =     0.00000000    0.00000000    0.00000000
     atom   12 type  2   force =     0.00000000    0.00000000    0.00000000
     atom   13 type  1   force =     0.00000000    0.00000000    0.00000000
     atom   14 type  2   force =     0.00000000    0.00000000    0.00000000
     atom   15 type  2   force =     0.00000000    0.00000000    0.00000000
     atom   16 type  1   force =     0.00000000    0.00000000    0.00000000
     atom   17 type  2   force =     0.00000000    0.00000000    0.00000000
     atom   18 type  2   force =     0.00000000    0.00000000    0.00000000
     atom   19 type  1   force =     0.00000000    0.00000000    0.00000000
     atom   20 type  2   force =     0.00000000    0.00000000    0.00000000
     atom   21 type  1   force =     0.00000000    0.00000000    0.00000000
     atom   22 type  2   force =     0.00000000    0.00000000    0.00000000
     atom   23 type  2   force =     0.00000000    0.00000000    0.00000000
     atom   24 type  1   force =     0.00000000    0.00000000    0.00000000
     atom   25 type  2   force =     0.00000000    0.00000000    0.00000000
     atom   26 type  2   force =     0.00000000    0.00000000    0.00000000
     atom   27 type  1   force =     0.00000000    0.00000000    0.00000000
     atom   28 type  2   force =     0.00000000    0.00000000    0.00000000
     atom   29 type  2   force =     0.00000000    0.00000000    0.00000000
     atom   30 type  1   force =     0.00000000    0.00000000    0.00000000
     atom   31 type  2   force =     0.00000000    0.00000000    0.00000000
     atom   32 type  2   force =     0.00000000    0.00000000    0.00000000
     atom   33 type  1   force =     0.00000000    0.00000000    0.00000000
     atom   34 type  2   force =     0.00000000    0.00000000    0.00000000
     atom   35 type  2   force =     0.00000000    0.00000000    0.00000000
     atom   36 type  3   force =     0.00000000    0.00000000    0.00000000
     The SCF correction term to forces
     atom    1 type  1   force =     0.00003848   -0.00004444    0.00059496
     atom    2 type  2   force =     0.00006498   -0.00006897    0.00037472
     atom    3 type  2   force =     0.00005928   -0.00000825    0.00014521
     atom    4 type  1   force =     0.00020639   -0.00015220    0.00042261
     atom    5 type  2   force =     0.00006588    0.00007300    0.00012611
     atom    6 type  2   force =     0.00004944    0.00000649    0.00017364
     atom    7 type  1   force =    -0.00013523    0.00004083    0.00052615
     atom    8 type  2   force =     0.00008514   -0.00002078    0.00020456
     atom    9 type  2   force =     0.00008633   -0.00004639    0.00016124
     atom   10 type  1   force =     0.00017794    0.00004333    0.00068562
     atom   11 type  2   force =    -0.00004710    0.00010244    0.00037725
     atom   12 type  2   force =     0.00000635    0.00006221    0.00013326
     atom   13 type  1   force =    -0.00018695   -0.00010528    0.00076755
     atom   14 type  2   force =    -0.00008295   -0.00008892    0.00036491
     atom   15 type  2   force =    -0.00002704   -0.00002487    0.00015637
     atom   16 type  1   force =    -0.00012131    0.00006780    0.00058418
     atom   17 type  2   force =    -0.00009266   -0.00000136    0.00031644
     atom   18 type  2   force =    -0.00004834    0.00000586    0.00020297
     atom   19 type  1   force =    -0.00017549    0.00003867    0.00073960
     atom   20 type  2   force =    -0.00006603    0.00000059    0.00020508
     atom   21 type  1   force =    -0.00020704   -0.00002719    0.00073695
     atom   22 type  2   force =    -0.00003033   -0.00001697    0.00033471
     atom   23 type  2   force =     0.00000200   -0.00001447    0.00024972
     atom   24 type  1   force =     0.00012501   -0.00001819    0.00067216
     atom   25 type  2   force =     0.00001614   -0.00000769    0.00036395
     atom   26 type  2   force =    -0.00002397    0.00000935    0.00019946
     atom   27 type  1   force =    -0.00002281    0.00002522    0.00064071
     atom   28 type  2   force =     0.00009063   -0.00004400    0.00026424
     atom   29 type  2   force =    -0.00001813    0.00001237    0.00021336
     atom   30 type  1   force =     0.00025386    0.00006715    0.00060056
     atom   31 type  2   force =     0.00006604    0.00005674    0.00030927
     atom   32 type  2   force =    -0.00001537    0.00000912    0.00024925
     atom   33 type  1   force =     0.00001974   -0.00000020    0.00079955
     atom   34 type  2   force =     0.00006635    0.00001862    0.00033432
     atom   35 type  2   force =    -0.00000843   -0.00000451    0.00020366
     atom   36 type  3   force =     0.00003496    0.00006578    0.00025419

     Total force =     0.238814     Total SCF correction =     0.002692

     BFGS Geometry Optimization
     Energy error            =      0.0E+00 Ry
     Gradient error          =      1.6E-01 Ry/Bohr

     number of scf cycles    =   1
     number of bfgs steps    =   0

     energy             new  =   -2246.1866899006 Ry

     new trust radius        =       0.1615172222 bohr
     new conv_thr            =       0.0000010000 Ry


ATOMIC_POSITIONS (angstrom)
Mo            6.5894484476        1.7641960130        2.8225495928
S             8.1693923945        0.8166810981        4.4355296005
S             8.1867107462        0.8148182079        1.2751568999
Mo            8.1187248786        4.4849175496        2.6667452586
S             6.4747382924        3.7178140671        4.3326644951
S             6.5536376041        3.5174018442        1.1213891972
Mo            6.4936414171        7.2019731043        2.6678645114
S             8.0843411397        6.3681901192        4.2359210018
S             8.0873356268        6.3081268268        1.0907809826
Mo            8.1545192479        9.9040050784        2.8287603360
S             6.4981192344        8.9426813934        4.3809049480
S             6.6167793890        9.0524594379        1.1427786421
Mo            3.4240193653        1.7516532021        2.7754008719
S             4.9788081284        0.8166937033        4.3567248240
S             5.0529690050        0.8480257217        1.2219775013
Mo            4.9817802064        4.5270658294        2.6387028480
S             3.4305369344        3.6706126176        4.2814993812
S             3.4328746392        3.5434882894        1.0639399871
Mo            3.4525670510        7.2103558179        2.6252012400
S             4.9859447391        6.3245465037        1.0378881632
Mo            5.0089417699        9.9046009802        2.7428121176
S             3.4694177159        8.9423696011        4.3239213460
S             3.4086276787        9.0663545724        1.1021343757
Mo            0.2920445006        1.7469338910        2.8366239794
S             1.8594496840        0.8020726850        4.4025312919
S             1.8544713319        0.8537011514        1.2072932135
Mo            1.8616271006        4.4928661091        2.6617691600
S             0.2803619723        3.6498434692        4.3331380571
S             0.2295337400        3.5300812283        1.1713145203
Mo            0.2750417042        7.2307355799        2.6943188235
S             1.9035036641        6.3147833962        4.2317690772
S             1.8579859478        6.3129504593        1.0475348909
Mo            1.8518936483        9.9375579450        2.7679549197
S             0.2970278299        9.0674464202        4.4096684265
S             0.2726279824        9.0461532641        1.1580315533
O             7.3381600320        4.8540781220        5.1975515413



     Writing config-only to output data dir ./MoS2-V-O.save/
     NEW-OLD atomic charge density approx. for the potential

     negative rho (up, down):  1.370E-04 0.000E+00

     total cpu time spent up to now is      125.9 secs

     Self-consistent Calculation

     iteration #  1     ecut=    80.00 Ry     beta= 0.70
     Davidson diagonalization with overlap
     ethr =  1.00E-06,  avg # of iterations = 16.0

     negative rho (up, down):  8.272E-04 0.000E+00

     total cpu time spent up to now is      143.5 secs

     total energy              =   -2246.22710637 Ry
     estimated scf accuracy    <       0.01884260 Ry

     iteration #  2     ecut=    80.00 Ry     beta= 0.70
     Davidson diagonalization with overlap
     ethr =  6.04E-06,  avg # of iterations =  6.0

     negative rho (up, down):  1.256E-03 0.000E+00

     total cpu time spent up to now is      154.6 secs

     total energy              =   -2246.22930548 Ry
     estimated scf accuracy    <       0.00913922 Ry

     iteration #  3     ecut=    80.00 Ry     beta= 0.70
     Davidson diagonalization with overlap
     ethr =  2.93E-06,  avg # of iterations =  4.0

     negative rho (up, down):  2.230E-03 0.000E+00

     total cpu time spent up to now is      168.6 secs

     total energy              =   -2246.22998697 Ry
     estimated scf accuracy    <       0.00094242 Ry

     iteration #  4     ecut=    80.00 Ry     beta= 0.70
     Davidson diagonalization with overlap
     ethr =  3.02E-07,  avg # of iterations =  5.0

     negative rho (up, down):  2.338E-03 0.000E+00

     total cpu time spent up to now is      178.7 secs

     total energy              =   -2246.23006778 Ry
     estimated scf accuracy    <       0.00030967 Ry

     iteration #  5     ecut=    80.00 Ry     beta= 0.70
     Davidson diagonalization with overlap
     ethr =  9.93E-08,  avg # of iterations =  2.0

     negative rho (up, down):  2.232E-03 0.000E+00

     total cpu time spent up to now is      190.8 secs

     total energy              =   -2246.23005395 Ry
     estimated scf accuracy    <       0.00014320 Ry

     iteration #  6     ecut=    80.00 Ry     beta= 0.70
     Davidson diagonalization with overlap
     ethr =  4.59E-08,  avg # of iterations =  6.0

     negative rho (up, down):  1.973E-03 0.000E+00

     total cpu time spent up to now is      201.2 secs

     total energy              =   -2246.23007339 Ry
     estimated scf accuracy    <       0.00002041 Ry

     iteration #  7     ecut=    80.00 Ry     beta= 0.70
     Davidson diagonalization with overlap
     ethr =  6.54E-09,  avg # of iterations =  5.0

     negative rho (up, down):  1.584E-03 0.000E+00

     total cpu time spent up to now is      211.1 secs

     total energy              =   -2246.23007372 Ry
     estimated scf accuracy    <       0.00000579 Ry

     iteration #  8     ecut=    80.00 Ry     beta= 0.70
     Davidson diagonalization with overlap
     ethr =  1.86E-09,  avg # of iterations =  5.0

     negative rho (up, down):  9.725E-04 0.000E+00

     total cpu time spent up to now is      221.3 secs

     total energy              =   -2246.23007099 Ry
     estimated scf accuracy    <       0.00000245 Ry

     iteration #  9     ecut=    80.00 Ry     beta= 0.70
     Davidson diagonalization with overlap
     ethr =  7.86E-10,  avg # of iterations =  5.0

     negative rho (up, down):  2.016E-04 0.000E+00

     total cpu time spent up to now is      225.5 secs

     End of self-consistent calculation

          k = 0.0000 0.0000 0.0000 (105382 PWs)   bands (ev):

   -62.9427 -62.9201 -62.9080 -62.8990 -62.8930 -62.8918 -62.8846 -62.8637
   -62.8616 -62.8540 -62.8076 -62.7594 -37.2940 -37.2316 -37.2000 -37.1905
   -37.1875 -37.1721 -37.1485 -37.1401 -37.1291 -37.1222 -37.1195 -37.0990
   -37.0882 -37.0810 -37.0720 -37.0673 -37.0616 -37.0551 -37.0494 -37.0419
   -37.0406 -37.0350 -37.0092 -36.9897 -36.9822 -36.9796 -36.9631 -36.9544
   -36.9404 -36.9305 -36.9045 -36.8942 -36.8768 -36.8623 -36.8329 -36.7640
   -21.6344 -15.9920 -15.5253 -15.1799 -15.0473 -14.9888 -14.8901 -14.7793
   -14.5411 -14.5087 -14.4621 -14.4062 -14.3852 -14.3593 -14.3133 -14.2645
   -14.1793 -14.1507 -14.1035 -13.9499 -13.9113 -13.9079 -13.9039 -13.7207
    -8.7418  -7.8255  -7.6271  -7.5309  -7.4426  -7.3606  -7.2634  -7.2509
    -7.2229  -6.9867  -6.9479  -6.8451  -6.8236  -6.7385  -6.6747  -6.6353
    -6.5739  -6.4801  -6.3883  -6.3058  -6.1683  -6.0502  -6.0068  -5.9504
    -5.8589  -5.8231  -5.8061  -5.7782  -5.7257  -5.6914  -5.6377  -5.6141
    -5.5557  -5.5146  -5.4681  -5.2921  -5.2024  -5.1554  -5.1357  -5.0906
    -5.0477  -5.0046  -4.9730  -4.8963  -4.7646  -4.5520  -4.4179  -4.3749
    -4.3500  -4.2514  -4.2093  -4.1345  -4.1136  -4.0438  -3.9065  -3.8305
    -3.8132  -3.7518  -3.6975  -3.6222  -3.5960  -3.5904  -3.5588  -3.5185
    -3.4738  -3.4458  -3.3382  -3.2370  -3.0505  -2.9942  -2.9320  -2.9007
    -2.8591  -2.8110  -2.7909  -2.7482  -2.7341  -2.6696  -2.5945  -2.3642
    -2.1135  -2.0645  -1.9570  -1.3063  -1.0582  -0.8676  -0.6244  -0.2257
    -0.1767  -0.1253  -0.0696   0.0236   0.0834   0.1094   0.1829   0.2037
     0.2434   0.3305   0.3958   0.4328   0.4718   0.5045   0.5331   0.5970
     0.6431   0.6819   0.7068   0.7144   0.7711   0.8327   0.8902   0.9116
     0.9725   1.0612   1.1340

     the Fermi energy is    -1.1824 ev

!    total energy              =   -2246.23006855 Ry
     estimated scf accuracy    <       0.00000081 Ry
     smearing contrib. (-TS)   =      -0.00494034 Ry
     internal energy E=F+TS    =   -2246.22512821 Ry

     The total energy is F=E-TS. E is the sum of the following terms:
     one-electron contribution =  -18479.31412035 Ry
     hartree contribution      =    9227.81302822 Ry
     xc contribution           =    -392.10399543 Ry
     ewald contribution        =    7407.24788952 Ry
     one-center paw contrib.   =      -9.86793017 Ry

     convergence has been achieved in   9 iterations

     negative rho (up, down):  2.016E-04 0.000E+00

     Forces acting on atoms (cartesian axes, Ry/au):

     atom    1 type  1   force =     0.01231926   -0.02355743    0.00151039
     atom    2 type  2   force =    -0.00658713    0.00639721   -0.00059930
     atom    3 type  2   force =    -0.00949416    0.00323345   -0.01308186
     atom    4 type  1   force =     0.02093935   -0.00197620   -0.03371479
     atom    5 type  2   force =     0.01385627    0.03800418   -0.00391484
     atom    6 type  2   force =    -0.00335629    0.00310762   -0.00335895
     atom    7 type  1   force =    -0.00016570   -0.01397716   -0.00249588
     atom    8 type  2   force =     0.00055062   -0.00272350   -0.01070163
     atom    9 type  2   force =     0.01351577    0.00975806   -0.00146401
     atom   10 type  1   force =    -0.00309104    0.00475692   -0.00979448
     atom   11 type  2   force =     0.00382980   -0.00163381   -0.00844461
     atom   12 type  2   force =    -0.00493088    0.00194067    0.00196207
     atom   13 type  1   force =     0.00442960    0.00440730   -0.00092911
     atom   14 type  2   force =     0.00639811   -0.00170614    0.00663777
     atom   15 type  2   force =    -0.00749062    0.00203656   -0.00761176
     atom   16 type  1   force =    -0.00292191    0.02273587    0.00585117
     atom   17 type  2   force =     0.00455957    0.00056348    0.00229595
     atom   18 type  2   force =    -0.00392131   -0.00592306    0.00980687
     atom   19 type  1   force =     0.00082641   -0.00876778   -0.00322157
     atom   20 type  2   force =     0.00394507   -0.00445775   -0.00363990
     atom   21 type  1   force =    -0.00353401    0.00386288    0.00289148
     atom   22 type  2   force =    -0.00141915   -0.00401511   -0.00497852
     atom   23 type  2   force =     0.00115744    0.00128573    0.00560068
     atom   24 type  1   force =    -0.00385596   -0.00059075   -0.00959592
     atom   25 type  2   force =     0.01101794    0.01319938    0.00084998
     atom   26 type  2   force =    -0.00682138   -0.00123751   -0.00459121
     atom   27 type  1   force =    -0.00069249   -0.00517655    0.00647089
     atom   28 type  2   force =     0.00532866   -0.00527460   -0.01301454
     atom   29 type  2   force =     0.01034137   -0.00078618   -0.01580025
     atom   30 type  1   force =     0.00456973    0.01529852   -0.00187025
     atom   31 type  2   force =     0.00059773    0.00244339    0.01110528
     atom   32 type  2   force =    -0.00649393    0.00389185    0.00196948
     atom   33 type  1   force =     0.00614035   -0.00058451    0.00041605
     atom   34 type  2   force =     0.00058012   -0.02989715   -0.01259724
     atom   35 type  2   force =    -0.00470722    0.00867649    0.00438264
     atom   36 type  3   force =    -0.05542000   -0.03331436    0.10366990
     The non-local contrib.  to forces
     atom    1 type  1   force =    -0.00469974    0.03442337   -0.02245667
     atom    2 type  2   force =    -0.00688566   -0.00427806   -0.26704031
     atom    3 type  2   force =    -0.01347391   -0.00526391    0.26589488
     atom    4 type  1   force =    -0.00016252    0.00912304    0.02058528
     atom    5 type  2   force =     0.27555960    0.28964897    0.04535688
     atom    6 type  2   force =    -0.00510445    0.00579110    0.26350131
     atom    7 type  1   force =    -0.00857069    0.01392184   -0.02420201
     atom    8 type  2   force =    -0.08949665   -0.18826951   -0.12649498
     atom    9 type  2   force =     0.00596339   -0.00999324    0.27269217
     atom   10 type  1   force =     0.01031098    0.00626728   -0.00414299
     atom   11 type  2   force =     0.01458022   -0.00009888   -0.26545670
     atom   12 type  2   force =    -0.01295878   -0.01951258    0.26228919
     atom   13 type  1   force =    -0.00873910    0.01823797   -0.00762861
     atom   14 type  2   force =     0.00785153   -0.01049764   -0.26222169
     atom   15 type  2   force =    -0.00794682   -0.01017873    0.26324159
     atom   16 type  1   force =    -0.00228793    0.00652757   -0.03641712
     atom   17 type  2   force =     0.00533253   -0.02888654   -0.25087388
     atom   18 type  2   force =    -0.00216649   -0.00197014    0.27216964
     atom   19 type  1   force =     0.01970677    0.00608111   -0.00865867
     atom   20 type  2   force =     0.00044571   -0.01748321    0.25573625
     atom   21 type  1   force =    -0.00126220    0.02384396    0.00486334
     atom   22 type  2   force =    -0.00414959    0.00268055   -0.26166804
     atom   23 type  2   force =     0.00724972   -0.01508257    0.26213996
     atom   24 type  1   force =     0.00258393    0.01686528   -0.01083249
     atom   25 type  2   force =     0.00643294    0.00501812   -0.26528641
     atom   26 type  2   force =     0.00130527   -0.01061563    0.26487083
     atom   27 type  1   force =    -0.00750426    0.00765234    0.00763700
     atom   28 type  2   force =     0.02518350   -0.03273677   -0.28042877
     atom   29 type  2   force =     0.01127109    0.00033492    0.25684149
     atom   30 type  1   force =    -0.00658545    0.00137121    0.01064254
     atom   31 type  2   force =    -0.00535231    0.00272257   -0.25481321
     atom   32 type  2   force =     0.00111651   -0.01464691    0.27062530
     atom   33 type  1   force =    -0.00111752    0.00639525    0.00468448
     atom   34 type  2   force =    -0.00452064   -0.02519480   -0.27721608
     atom   35 type  2   force =    -0.00174647   -0.00629319    0.26698839
     atom   36 type  3   force =    -0.65419117   -0.62969337   -0.87818234
     The ionic contribution  to forces
     atom    1 type  1   force =    -0.47415636   -1.01908449    3.81085666
     atom    2 type  2   force =    -0.27906004   -0.40710750   39.19162506
     atom    3 type  2   force =    -0.05025024   -0.22615747  -36.84753391
     atom    4 type  1   force =     1.37720664   -0.16115212   -7.22960276
     atom    5 type  2   force =    -4.22456166   -3.25959502   34.67194201
     atom    6 type  2   force =    -0.10103959   -0.89593317  -38.97947974
     atom    7 type  1   force =    -3.45117717   -0.38141706   -0.21012892
     atom    8 type  2   force =     1.01032021    3.64054387   34.62698242
     atom    9 type  2   force =     0.43047511    0.40063712  -39.06015402
     atom   10 type  1   force =    -0.72625151   -0.06702214    4.34204925
     atom   11 type  2   force =    -0.74366336   -0.94197371   38.83320715
     atom   12 type  2   force =     0.28006306    0.75538437  -38.37696067
     atom   13 type  1   force =     0.26177861    0.26188021    1.84626348
     atom   14 type  2   force =    -0.28118780   -0.42250337   38.39772237
     atom   15 type  2   force =     0.01267791   -0.14431997  -37.37133899
     atom   16 type  1   force =    -1.94233720    3.25367615   -2.15979286
     atom   17 type  2   force =     0.30773544    1.14258000   37.64968485
     atom   18 type  2   force =    -0.14420129   -0.72769133  -39.12673946
     atom   19 type  1   force =     2.35380098   -1.63579914   -0.76188858
     atom   20 type  2   force =    -0.02753363    0.01603258  -39.37255383
     atom   21 type  1   force =    -0.27054037    0.10314866    0.37972524
     atom   22 type  2   force =     0.35535987   -1.46337554   38.29596206
     atom   23 type  2   force =    -0.07112223    0.73663304  -38.73291104
     atom   24 type  1   force =     0.42695075   -0.23477570    4.24672148
     atom   25 type  2   force =     0.64546466   -0.04990823   39.12827542
     atom   26 type  2   force =    -0.15374319   -0.06539053  -37.77865352
     atom   27 type  1   force =     0.79275714    0.36881167   -3.53703975
     atom   28 type  2   force =     1.67384850    0.04878695   37.44421029
     atom   29 type  2   force =     0.27202950   -0.72574852  -38.30002922
     atom   30 type  1   force =     0.73657186    0.04855784   -1.96284264
     atom   31 type  2   force =     1.55385440    0.27475350   37.12378412
     atom   32 type  2   force =    -0.34074871    0.06471243  -39.25742280
     atom   33 type  1   force =     0.79814771   -0.42884639    1.37811020
     atom   34 type  2   force =     0.45590660   -0.80769345   39.16212297
     atom   35 type  2   force =    -0.16030567    0.69153839  -38.32863261
     atom   36 type  3   force =    -0.30306892    2.25781807   46.86446032
     The local contribution  to forces
     atom    1 type  1   force =     0.49157756    0.96054321   -3.78619111
     atom    2 type  2   force =     0.27898426    0.41777778  -38.94545658
     atom    3 type  2   force =     0.05357307    0.23451854   36.58949685
     atom    4 type  1   force =    -1.35585144    0.14994238    7.17582209
     atom    5 type  2   force =     3.97876090    3.02483001  -34.72358349
     atom    6 type  2   force =     0.10270083    0.89415550   38.73330777
     atom    7 type  1   force =     3.45967149    0.35340061    0.23255523
     atom    8 type  2   force =    -0.92504561   -3.46469228  -34.52429429
     atom    9 type  2   force =    -0.42284297   -0.38161802   38.80690702
     atom   10 type  1   force =     0.71281840    0.06569957   -4.34724583
     atom   11 type  2   force =     0.73359195    0.94084522  -38.59647617
     atom   12 type  2   force =    -0.27308642   -0.73517079   38.13738786
     atom   13 type  1   force =    -0.24890738   -0.27598874   -1.83899407
     atom   14 type  2   force =     0.28029118    0.43114591  -38.14890116
     atom   15 type  2   force =    -0.01266117    0.15582728   37.12112424
     atom   16 type  1   force =     1.94169834   -3.23718399    2.20272212
     atom   17 type  2   force =    -0.30826238   -1.11469301  -37.41624198
     atom   18 type  2   force =     0.14235409    0.72417743   38.88525790
     atom   19 type  1   force =    -2.37276314    1.62112927    0.76790629
     atom   20 type  2   force =     0.03098494   -0.00373126   39.13392028
     atom   21 type  1   force =     0.26816114   -0.12283071   -0.38110931
     atom   22 type  2   force =    -0.35273477    1.45727894  -38.05949062
     atom   23 type  2   force =     0.06551304   -0.72137681   38.49706111
     atom   24 type  1   force =    -0.43351350    0.21739666   -4.24498112
     atom   25 type  2   force =    -0.64081166    0.05847557  -38.88247630
     atom   26 type  2   force =     0.14585158    0.07415861   37.53011004
     atom   27 type  1   force =    -0.78617888   -0.38188192    3.53644665
     atom   28 type  2   force =    -1.69226323   -0.02375815  -37.19778338
     atom   29 type  2   force =    -0.27251897    0.72516495   38.04791551
     atom   30 type  1   force =    -0.72550243   -0.03436013    1.95105294
     atom   31 type  2   force =    -1.54825186   -0.27492671  -36.87782672
     atom   32 type  2   force =     0.33353829   -0.04693357   39.00957127
     atom   33 type  1   force =    -0.79076387    0.42180687   -1.38186846
     atom   34 type  2   force =    -0.45124070    0.80222346  -38.91829062
     atom   35 type  2   force =     0.15743353   -0.67726059   38.08706496
     atom   36 type  3   force =     0.89426854   -1.66835172  -45.89092979
     The core correction contribution to forces
     atom    1 type  1   force =     0.00000000    0.00000000    0.00000000
     atom    2 type  2   force =     0.00032937    0.00002949    0.02066863
     atom    3 type  2   force =     0.00066904    0.00014687   -0.02083617
     atom    4 type  1   force =     0.00000000    0.00000000    0.00000000
     atom    5 type  2   force =    -0.01579236   -0.01678525    0.00309239
     atom    6 type  2   force =     0.00020991   -0.00095216   -0.02083674
     atom    7 type  1   force =     0.00000000    0.00000000    0.00000000
     atom    8 type  2   force =     0.00470510    0.00964407    0.01372498
     atom    9 type  2   force =    -0.00004680    0.00069267   -0.02095719
     atom   10 type  1   force =     0.00000000    0.00000000    0.00000000
     atom   11 type  2   force =    -0.00066247   -0.00030913    0.02084613
     atom   12 type  2   force =     0.00109117    0.00139824   -0.02082568
     atom   13 type  1   force =     0.00000000    0.00000000    0.00000000
     atom   14 type  2   force =    -0.00051636    0.00002674    0.02058737
     atom   15 type  2   force =     0.00045761    0.00059429   -0.02070151
     atom   16 type  1   force =     0.00000000    0.00000000    0.00000000
     atom   17 type  2   force =    -0.00029910    0.00154067    0.02028648
     atom   18 type  2   force =     0.00001799   -0.00050669   -0.02099270
     atom   19 type  1   force =     0.00000000    0.00000000    0.00000000
     atom   20 type  2   force =     0.00003292    0.00072874   -0.02081948
     atom   21 type  1   force =     0.00000000    0.00000000    0.00000000
     atom   22 type  2   force =     0.00003324   -0.00050362    0.02071886
     atom   23 type  2   force =    -0.00054797    0.00122986   -0.02068811
     atom   24 type  1   force =     0.00000000    0.00000000    0.00000000
     atom   25 type  2   force =    -0.00006224   -0.00042513    0.02084219
     atom   26 type  2   force =    -0.00029101    0.00055754   -0.02091497
     atom   27 type  1   force =     0.00000000    0.00000000    0.00000000
     atom   28 type  2   force =    -0.00144729    0.00237066    0.02142583
     atom   29 type  2   force =    -0.00049250   -0.00063900   -0.02046624
     atom   30 type  1   force =     0.00000000    0.00000000    0.00000000
     atom   31 type  2   force =     0.00034603   -0.00004136    0.02050428
     atom   32 type  2   force =    -0.00039511    0.00080268   -0.02087982
     atom   33 type  1   force =     0.00000000    0.00000000    0.00000000
     atom   34 type  2   force =     0.00050747    0.00075197    0.02127169
     atom   35 type  2   force =    -0.00006338    0.00077781   -0.02100233
     atom   36 type  3   force =     0.00740724    0.00705763    0.00869491
     The Hubbard contrib.    to forces
     atom    1 type  1   force =     0.00000000    0.00000000    0.00000000
     atom    2 type  2   force =     0.00000000    0.00000000    0.00000000
     atom    3 type  2   force =     0.00000000    0.00000000    0.00000000
     atom    4 type  1   force =     0.00000000    0.00000000    0.00000000
     atom    5 type  2   force =     0.00000000    0.00000000    0.00000000
     atom    6 type  2   force =     0.00000000    0.00000000    0.00000000
     atom    7 type  1   force =     0.00000000    0.00000000    0.00000000
     atom    8 type  2   force =     0.00000000    0.00000000    0.00000000
     atom    9 type  2   force =     0.00000000    0.00000000    0.00000000
     atom   10 type  1   force =     0.00000000    0.00000000    0.00000000
     atom   11 type  2   force =     0.00000000    0.00000000    0.00000000
     atom   12 type  2   force =     0.00000000    0.00000000    0.00000000
     atom   13 type  1   force =     0.00000000    0.00000000    0.00000000
     atom   14 type  2   force =     0.00000000    0.00000000    0.00000000
     atom   15 type  2   force =     0.00000000    0.00000000    0.00000000
     atom   16 type  1   force =     0.00000000    0.00000000    0.00000000
     atom   17 type  2   force =     0.00000000    0.00000000    0.00000000
     atom   18 type  2   force =     0.00000000    0.00000000    0.00000000
     atom   19 type  1   force =     0.00000000    0.00000000    0.00000000
     atom   20 type  2   force =     0.00000000    0.00000000    0.00000000
     atom   21 type  1   force =     0.00000000    0.00000000    0.00000000
     atom   22 type  2   force =     0.00000000    0.00000000    0.00000000
     atom   23 type  2   force =     0.00000000    0.00000000    0.00000000
     atom   24 type  1   force =     0.00000000    0.00000000    0.00000000
     atom   25 type  2   force =     0.00000000    0.00000000    0.00000000
     atom   26 type  2   force =     0.00000000    0.00000000    0.00000000
     atom   27 type  1   force =     0.00000000    0.00000000    0.00000000
     atom   28 type  2   force =     0.00000000    0.00000000    0.00000000
     atom   29 type  2   force =     0.00000000    0.00000000    0.00000000
     atom   30 type  1   force =     0.00000000    0.00000000    0.00000000
     atom   31 type  2   force =     0.00000000    0.00000000    0.00000000
     atom   32 type  2   force =     0.00000000    0.00000000    0.00000000
     atom   33 type  1   force =     0.00000000    0.00000000    0.00000000
     atom   34 type  2   force =     0.00000000    0.00000000    0.00000000
     atom   35 type  2   force =     0.00000000    0.00000000    0.00000000
     atom   36 type  3   force =     0.00000000    0.00000000    0.00000000
     The SCF correction term to forces
     atom    1 type  1   force =    -0.00040162    0.00056037   -0.00066963
     atom    2 type  2   force =     0.00004552   -0.00002462   -0.00036724
     atom    3 type  2   force =    -0.00001154   -0.00001069   -0.00007464
     atom    4 type  1   force =    -0.00025276    0.00011038   -0.00049054
     atom    5 type  2   force =    -0.00010964   -0.00009463   -0.00069376
     atom    6 type  2   force =    -0.00012241    0.00004624    0.00017730
     atom    7 type  1   force =    -0.00008875    0.00011735   -0.00069131
     atom    8 type  2   force =     0.00006815    0.00005024   -0.00059090
     atom    9 type  2   force =    -0.00003239    0.00003942    0.00007689
     atom   10 type  1   force =     0.00003165   -0.00018791   -0.00042604
     atom   11 type  2   force =    -0.00001597   -0.00009742   -0.00053616
     atom   12 type  2   force =    -0.00003933   -0.00015869    0.00010023
     atom   13 type  1   force =     0.00029804    0.00027775   -0.00054104
     atom   14 type  2   force =    -0.00003986    0.00012210   -0.00052026
     atom   15 type  2   force =    -0.00001757    0.00011358    0.00009177
     atom   16 type  1   force =     0.00000545   -0.00028398   -0.00063211
     atom   17 type  2   force =     0.00005366    0.00002224   -0.00053065
     atom   18 type  2   force =     0.00007497    0.00006756    0.00014036
     atom   19 type  1   force =     0.00008237   -0.00017912   -0.00055174
     atom   20 type  2   force =     0.00001570   -0.00000472    0.00010575
     atom   21 type  1   force =     0.00010800   -0.00029914   -0.00055892
     atom   22 type  2   force =     0.00007267   -0.00009555   -0.00047192
     atom   23 type  2   force =     0.00006546   -0.00011790    0.00002763
     atom   24 type  1   force =     0.00012344   -0.00007710   -0.00047493
     atom   25 type  2   force =    -0.00000518    0.00003894   -0.00047606
     atom   26 type  2   force =     0.00005655    0.00005239    0.00002528
     atom   27 type  1   force =     0.00023408    0.00024126   -0.00054416
     atom   28 type  2   force =     0.00000774    0.00006260   -0.00040964
     atom   29 type  2   force =     0.00005283    0.00010137   -0.00003294
     atom   30 type  1   force =     0.00008631   -0.00027051   -0.00069422
     atom   31 type  2   force =     0.00000205   -0.00006473   -0.00051433
     atom   32 type  2   force =    -0.00000433   -0.00004289    0.00010440
     atom   33 type  1   force =    -0.00012540    0.00005965   -0.00048131
     atom   34 type  2   force =    -0.00007203    0.00001556   -0.00045634
     atom   35 type  2   force =    -0.00002466   -0.00008605   -0.00000691
     atom   36 type  3   force =     0.00016488   -0.00014508   -0.00034433

     Total force =     0.155305     Total SCF correction =     0.002915
     Energy error            =      4.3E-02 Ry
     Gradient error          =      1.0E-01 Ry/Bohr

     number of scf cycles    =   2
     number of bfgs steps    =   1

     energy             old  =   -2246.1866899006 Ry
     energy             new  =   -2246.2300685512 Ry

     CASE: energy            _new < energy            _old

     new trust radius        =       0.1776689444 bohr
     new conv_thr            =       0.0000001037 Ry


ATOMIC_POSITIONS (angstrom)
Mo            6.6011539406        1.7434346471        2.8230143350
S             8.1633494881        0.8225069421        4.4355304211
S             8.1793380719        0.8177794514        1.2670785726
Mo            8.1380349261        4.4804647424        2.6312890377
S             6.4739708354        3.7371226285        4.3258672004
S             6.5518931149        3.5209878852        1.1195838190
Mo            6.4947667003        7.1888388843        2.6651602730
S             8.0855114623        6.3747781933        4.2278802589
S             8.0968785248        6.3146147777        1.0922771723
Mo            8.1507975736        9.9072194585        2.8185050870
S             6.5011998067        8.9417040828        4.3755438258
S             6.6136879080        9.0547689731        1.1448085224
Mo            3.4272320814        1.7556304959        2.7745358191
S             4.9835264297        0.8156760407        4.3624215856
S             5.0472456165        0.8497283420        1.2162487650
Mo            4.9808506489        4.5441460022        2.6438442554
S             3.4339324193        3.6705935490        4.2833529181
S             3.4290479595        3.5386656536        1.0711737309
Mo            3.4525899139        7.2035653596        2.6216154171
S             4.9890083905        6.3213096842        1.0361033651
Mo            5.0059002480        9.9077160655        2.7442017386
S             3.4681277728        8.9397091350        4.3206368735
S             3.4093282266        9.0675129452        1.1072207870
Mo            0.2885859360        1.7464187180        2.8271025517
S             1.8684769595        0.8124259611        4.4044334598
S             1.8486283893        0.8527818307        1.2040756501
Mo            1.8615583964        4.4890973397        2.6658392113
S             0.2859911084        3.6454378522        4.3245252430
S             0.2346394625        3.5305912742        1.1624180980
Mo            0.2788396185        7.2438051399        2.6908418515
S             1.9042518773        6.3167824897        4.2409563817
S             1.8530125332        6.3159504055        1.0496034812
Mo            1.8577680432        9.9363797394        2.7665243994
S             0.2977163789        9.0435610639        4.4013658159
S             0.2686703272        9.0517833984        1.1629701083
O             7.3020936995        4.8347461474        5.2821975440



     Writing config-only to output data dir ./MoS2-V-O.save/
     NEW-OLD atomic charge density approx. for the potential

     negative rho (up, down):  1.423E-04 0.000E+00

     total cpu time spent up to now is      233.2 secs

     Self-consistent Calculation

     iteration #  1     ecut=    80.00 Ry     beta= 0.70
     Davidson diagonalization with overlap
     ethr =  1.00E-06,  avg # of iterations = 11.0

     negative rho (up, down):  4.781E-04 0.000E+00

     total cpu time spent up to now is      246.9 secs

     total energy              =   -2246.25631695 Ry
     estimated scf accuracy    <       0.01619245 Ry

     iteration #  2     ecut=    80.00 Ry     beta= 0.70
     Davidson diagonalization with overlap
     ethr =  5.19E-06,  avg # of iterations =  6.0

     negative rho (up, down):  7.314E-04 0.000E+00

     total cpu time spent up to now is      262.4 secs

     total energy              =   -2246.25896021 Ry
     estimated scf accuracy    <       0.01025458 Ry

     iteration #  3     ecut=    80.00 Ry     beta= 0.70
     Davidson diagonalization with overlap
     ethr =  3.29E-06,  avg # of iterations =  4.0

     negative rho (up, down):  1.257E-03 0.000E+00

     total cpu time spent up to now is      275.8 secs

     total energy              =   -2246.25966371 Ry
     estimated scf accuracy    <       0.00058230 Ry

     iteration #  4     ecut=    80.00 Ry     beta= 0.70
     Davidson diagonalization with overlap
     ethr =  1.87E-07,  avg # of iterations =  6.0

     negative rho (up, down):  1.339E-03 0.000E+00

     total cpu time spent up to now is      289.8 secs

     total energy              =   -2246.25975317 Ry
     estimated scf accuracy    <       0.00020200 Ry

     iteration #  5     ecut=    80.00 Ry     beta= 0.70
     Davidson diagonalization with overlap
     ethr =  6.47E-08,  avg # of iterations =  2.0

     negative rho (up, down):  1.343E-03 0.000E+00

     total cpu time spent up to now is      303.3 secs

     total energy              =   -2246.25974750 Ry
     estimated scf accuracy    <       0.00008740 Ry

     iteration #  6     ecut=    80.00 Ry     beta= 0.70
     Davidson diagonalization with overlap
     ethr =  2.80E-08,  avg # of iterations =  6.0

     negative rho (up, down):  1.191E-03 0.000E+00

     total cpu time spent up to now is      314.7 secs

     total energy              =   -2246.25975731 Ry
     estimated scf accuracy    <       0.00000727 Ry

     iteration #  7     ecut=    80.00 Ry     beta= 0.70
     Davidson diagonalization with overlap
     ethr =  2.33E-09,  avg # of iterations =  9.0

     negative rho (up, down):  1.028E-03 0.000E+00

     total cpu time spent up to now is      327.5 secs

     total energy              =   -2246.25975892 Ry
     estimated scf accuracy    <       0.00000301 Ry

     iteration #  8     ecut=    80.00 Ry     beta= 0.70
     Davidson diagonalization with overlap
     ethr =  9.65E-10,  avg # of iterations =  2.0

     negative rho (up, down):  6.729E-04 0.000E+00

     total cpu time spent up to now is      339.0 secs

     total energy              =   -2246.25975753 Ry
     estimated scf accuracy    <       0.00000147 Ry

     iteration #  9     ecut=    80.00 Ry     beta= 0.70
     Davidson diagonalization with overlap
     ethr =  4.70E-10,  avg # of iterations =  2.0

     negative rho (up, down):  5.206E-04 0.000E+00

     total cpu time spent up to now is      351.0 secs

     total energy              =   -2246.25975717 Ry
     estimated scf accuracy    <       0.00000033 Ry

     iteration # 10     ecut=    80.00 Ry     beta= 0.70
     Davidson diagonalization with overlap
     ethr =  1.04E-10,  avg # of iterations =  2.0

     negative rho (up, down):  3.257E-04 0.000E+00

     total cpu time spent up to now is      364.1 secs

     total energy              =   -2246.25975686 Ry
     estimated scf accuracy    <       0.00000015 Ry

     iteration # 11     ecut=    80.00 Ry     beta= 0.70
     Davidson diagonalization with overlap
     ethr =  4.96E-11,  avg # of iterations =  5.0

     negative rho (up, down):  2.027E-04 0.000E+00

     total cpu time spent up to now is      368.3 secs

     End of self-consistent calculation

          k = 0.0000 0.0000 0.0000 (105382 PWs)   bands (ev):

   -62.9766 -62.9632 -62.9492 -62.9289 -62.9206 -62.9169 -62.9095 -62.8868
   -62.8768 -62.8508 -62.8472 -62.7716 -37.3206 -37.2587 -37.2242 -37.2212
   -37.2131 -37.2051 -37.1853 -37.1711 -37.1572 -37.1554 -37.1474 -37.1321
   -37.1149 -37.1112 -37.0985 -37.0945 -37.0877 -37.0825 -37.0756 -37.0707
   -37.0682 -37.0574 -37.0200 -37.0121 -37.0070 -36.9965 -36.9883 -36.9778
   -36.9613 -36.9557 -36.9262 -36.9151 -36.9031 -36.8805 -36.8545 -36.7927
   -21.2342 -16.0209 -15.3935 -15.2051 -15.0460 -15.0035 -14.8741 -14.7889
   -14.5655 -14.5315 -14.4950 -14.4339 -14.4109 -14.3894 -14.3414 -14.2891
   -14.2037 -14.1837 -14.1270 -13.9779 -13.9558 -13.9376 -13.9169 -13.7608
    -8.4113  -7.7848  -7.5917  -7.5136  -7.4607  -7.3798  -7.2840  -7.2787
    -7.2513  -6.9891  -6.9413  -6.8646  -6.8326  -6.7528  -6.6918  -6.6325
    -6.6016  -6.5046  -6.4227  -6.3301  -6.1834  -6.0706  -6.0166  -5.9660
    -5.8659  -5.8561  -5.8379  -5.8002  -5.7553  -5.7093  -5.6688  -5.6488
    -5.5778  -5.5229  -5.4737  -5.2805  -5.2210  -5.1712  -5.1513  -5.1023
    -5.0792  -5.0208  -4.9987  -4.9188  -4.7882  -4.5697  -4.4412  -4.4061
    -4.3749  -4.2767  -4.2345  -4.1547  -4.1258  -4.0568  -3.9211  -3.8557
    -3.8302  -3.7743  -3.7202  -3.6464  -3.6305  -3.6088  -3.5779  -3.5345
    -3.4988  -3.4697  -3.3727  -3.2450  -3.0760  -2.9801  -2.9440  -2.9100
    -2.8685  -2.8456  -2.8122  -2.7790  -2.7516  -2.7004  -2.6213  -2.3848
    -2.1467  -2.0969  -2.0093  -1.4270  -1.0626  -0.8658  -0.6381  -0.2535
    -0.2032  -0.1481  -0.0970   0.0193   0.0626   0.0689   0.1481   0.1745
     0.2199   0.3189   0.3610   0.4144   0.4453   0.4838   0.5026   0.5836
     0.6113   0.6629   0.6692   0.6943   0.7591   0.8007   0.8586   0.8859
     0.9501   1.0234   1.1385

     the Fermi energy is    -1.2449 ev

!    total energy              =   -2246.25975691 Ry
     estimated scf accuracy    <       0.00000002 Ry
     smearing contrib. (-TS)   =      -0.00187993 Ry
     internal energy E=F+TS    =   -2246.25787698 Ry

     The total energy is F=E-TS. E is the sum of the following terms:
     one-electron contribution =  -18465.30962198 Ry
     hartree contribution      =    9220.65222775 Ry
     xc contribution           =    -392.06922707 Ry
     ewald contribution        =    7400.33693069 Ry
     one-center paw contrib.   =      -9.86818637 Ry

     convergence has been achieved in  11 iterations

     negative rho (up, down):  2.027E-04 0.000E+00

     Forces acting on atoms (cartesian axes, Ry/au):

     atom    1 type  1   force =     0.00006410   -0.00346910    0.00270869
     atom    2 type  2   force =    -0.00028818    0.00093844   -0.00096874
     atom    3 type  2   force =    -0.00625263    0.00092894   -0.01578231
     atom    4 type  1   force =     0.00387259    0.01010524    0.00437605
     atom    5 type  2   force =     0.04485219    0.05730694    0.00938569
     atom    6 type  2   force =    -0.00535123   -0.00122059   -0.00239175
     atom    7 type  1   force =    -0.00206087   -0.00111155   -0.00177535
     atom    8 type  2   force =     0.00520512   -0.02076231   -0.01046582
     atom    9 type  2   force =     0.01243944    0.01176192   -0.00962634
     atom   10 type  1   force =     0.00225377    0.00511874    0.00047378
     atom   11 type  2   force =     0.00267222   -0.00293380   -0.00984402
     atom   12 type  2   force =    -0.00640483   -0.00160575    0.00031437
     atom   13 type  1   force =     0.00467985    0.00090930   -0.00043995
     atom   14 type  2   force =     0.00526369   -0.00185271    0.00340453
     atom   15 type  2   force =    -0.00503710    0.00076382   -0.00491686
     atom   16 type  1   force =    -0.00540368    0.01520284    0.00200866
     atom   17 type  2   force =     0.00454562    0.00230507    0.00219218
     atom   18 type  2   force =     0.00047840   -0.00242692    0.00907991
     atom   19 type  1   force =     0.00277612   -0.00619144    0.00059467
     atom   20 type  2   force =     0.00228449   -0.00310300   -0.00702925
     atom   21 type  1   force =    -0.00148157    0.00229390    0.00364859
     atom   22 type  2   force =    -0.00018117   -0.00476146   -0.00494933
     atom   23 type  2   force =     0.00150286   -0.00003578    0.00207390
     atom   24 type  1   force =    -0.00285162   -0.00170016   -0.00317735
     atom   25 type  2   force =     0.00591873    0.00902253   -0.00324164
     atom   26 type  2   force =    -0.00210870   -0.00103244   -0.00339224
     atom   27 type  1   force =    -0.00088064   -0.00251850    0.00551497
     atom   28 type  2   force =    -0.00301332   -0.00210856   -0.01326996
     atom   29 type  2   force =     0.01952581   -0.00567159   -0.02278120
     atom   30 type  1   force =     0.00032814    0.00360668    0.00247120
     atom   31 type  2   force =    -0.00072256    0.00047690    0.00632063
     atom   32 type  2   force =    -0.00444598    0.00278184    0.00113507
     atom   33 type  1   force =    -0.00018670    0.00240786    0.00448819
     atom   34 type  2   force =    -0.00042625   -0.01766399   -0.01216552
     atom   35 type  2   force =    -0.00168309    0.01094951   -0.00191861
     atom   36 type  3   force =    -0.06988302   -0.05671083    0.06794516
     The non-local contrib.  to forces
     atom    1 type  1   force =    -0.00309412    0.02614541   -0.02571278
     atom    2 type  2   force =    -0.00209010   -0.00813395   -0.26572235
     atom    3 type  2   force =    -0.00983526   -0.00829192    0.26304322
     atom    4 type  1   force =     0.00321834    0.00814753    0.03353200
     atom    5 type  2   force =     0.27701642    0.28002372    0.09150455
     atom    6 type  2   force =    -0.00507808    0.00291923    0.26744370
     atom    7 type  1   force =    -0.00698994    0.00821480   -0.02575995
     atom    8 type  2   force =    -0.06835787   -0.14850567   -0.14614318
     atom    9 type  2   force =     0.00480877   -0.01051599    0.26915028
     atom   10 type  1   force =     0.01011065    0.00382355   -0.00402954
     atom   11 type  2   force =     0.01191535   -0.00133996   -0.26772596
     atom   12 type  2   force =    -0.01372701   -0.02240171    0.26287139
     atom   13 type  1   force =    -0.00848765    0.01995700   -0.00749084
     atom   14 type  2   force =     0.00667701   -0.00926776   -0.26475653
     atom   15 type  2   force =    -0.00578101   -0.01151563    0.26485917
     atom   16 type  1   force =    -0.00175993    0.01144279   -0.03636523
     atom   17 type  2   force =     0.00544011   -0.02659290   -0.25281146
     atom   18 type  2   force =     0.00109217    0.00070347    0.27094805
     atom   19 type  1   force =     0.02130824    0.00690670   -0.00962761
     atom   20 type  2   force =    -0.00166904   -0.01515239    0.25236980
     atom   21 type  1   force =    -0.00172483    0.02427148    0.00445095
     atom   22 type  2   force =    -0.00227213    0.00201402   -0.26243821
[...]
     atom   28 type  2   force =     0.00089014   -0.00799197   -0.27978970
     atom   29 type  2   force =     0.00096289   -0.00689967    0.26550971
     atom   30 type  1   force =     0.00018645    0.01968399    0.00758372
     atom   31 type  2   force =    -0.00935027   -0.00154791   -0.26971094
     atom   32 type  2   force =     0.00961052   -0.01650737    0.26998336
     atom   33 type  1   force =    -0.00164060    0.00630037    0.00167043
     atom   34 type  2   force =    -0.00181667   -0.00727583   -0.27586169
     atom   35 type  2   force =    -0.00032732   -0.01480050    0.26687512
     atom   36 type  3   force =     0.02543037   -0.06086783   -2.31736806
     The ionic contribution  to forces
     atom    1 type  1   force =    -0.03129184   -0.60106223   -1.41153502
     atom    2 type  2   force =     0.38287334   -0.86714132   38.38398002
     atom    3 type  2   force =     0.16092866   -0.15931098  -38.17426313
     atom    4 type  1   force =     0.91579307    0.81270163   -3.52985965
     atom    5 type  2   force =    -0.77652851    0.91532874   28.07959087
     atom    6 type  2   force =     0.20525360   -0.43836120  -38.65078324
     atom    7 type  1   force =    -2.71425230   -0.93355961    1.05536109
     atom    8 type  2   force =    -0.59681003    1.23396539   37.56406257
     atom    9 type  2   force =     0.36509872    0.16194241  -38.73818519
     atom   10 type  1   force =    -0.30247924   -0.84395184    2.37302102
     atom   11 type  2   force =    -0.47938065   -1.34711138   38.22985707
     atom   12 type  2   force =     0.21665595    0.40949633  -38.22629001
     atom   13 type  1   force =    -0.49542623    0.00910428    1.53011449
     atom   14 type  2   force =    -0.55245451   -1.05214167   38.05849405
     atom   15 type  2   force =    -0.12363966   -0.22490468  -38.20488035
     atom   16 type  1   force =    -0.57972155    3.82029868   -2.68842255
     atom   17 type  2   force =    -0.28648680    1.13000772   37.67043551
     atom   18 type  2   force =    -0.30230610   -0.51840608  -38.87476759
     atom   19 type  1   force =     2.34078119   -1.10780743    0.33551447
     atom   20 type  2   force =     0.03440120    0.19673985  -39.63092800
     atom   21 type  1   force =    -0.20192441   -0.73415323    0.36294095
     atom   22 type  2   force =     0.37970964   -1.46643723   38.29706684
     atom   23 type  2   force =    -0.22673609    0.41976478  -38.34545809
     atom   24 type  1   force =     0.56370297   -0.11891341    1.52174137
     atom   25 type  2   force =     0.17451137   -0.25516806   38.70744247
     atom   26 type  2   force =    -0.05623056   -0.18604819  -37.77891503
     atom   27 type  1   force =    -0.09362252    0.49025738   -0.84103877
     atom   28 type  2   force =     0.95095165    0.45290014   37.47639321
     atom   29 type  2   force =     0.03972722   -0.21811131  -38.33372645
     atom   30 type  1   force =     0.28670506   -0.08560733    0.88674990
     atom   31 type  2   force =     1.15060353    0.48513342   37.86131780
     atom   32 type  2   force =    -0.39463868    0.08783378  -38.57219958
     atom   33 type  1   force =     0.42363319   -0.46086656    2.70282597
     atom   34 type  2   force =     0.15600182   -0.46778348   38.78918831
     atom   35 type  2   force =     0.06062095    0.24229290  -37.84602378
     atom   36 type  3   force =    -0.59402347    1.21907976   49.96117845
     The local contribution  to forces
     atom    1 type  1   force =     0.03085432    0.57003722    1.40444896
     atom    2 type  2   force =    -0.38212106    0.87599147  -38.13427635
     atom    3 type  2   force =    -0.15747100    0.16847866   37.92858627
     atom    4 type  1   force =    -0.90412512   -0.80981515    3.50481761
     atom    5 type  2   force =     0.76754488   -0.91991410  -28.36853325
     atom    6 type  2   force =    -0.20444089    0.44152335   38.39520415
     atom    7 type  1   force =     2.72579682    0.93311873   -1.03144042
     atom    8 type  2   force =     0.59029611   -1.23473755  -37.31544395
     atom    9 type  2   force =    -0.35924435   -0.14823712   38.48945201
     atom   10 type  1   force =     0.29394392    0.84030605   -2.37272842
     atom   11 type  2   force =     0.47366961    1.34699213  -37.98907573
     atom   12 type  2   force =    -0.20724154   -0.39486817   37.98074013
     atom   13 type  1   force =     0.49405188   -0.03407947   -1.52305903
     atom   14 type  2   force =     0.55207934    1.06114492  -37.80644800
     atom   15 type  2   force =     0.12250910    0.23430543   37.96388052
     atom   16 type  1   force =     0.56994536   -3.84062599    2.70875829
     atom   17 type  2   force =     0.28659415   -1.11426493  -37.43111993
     atom   18 type  2   force =     0.30298788    0.51903665   38.63359885
     atom   19 type  1   force =    -2.35893515    1.09521876   -0.31604020
     atom   20 type  2   force =    -0.03335234   -0.18394350   39.38976058
     atom   21 type  1   force =     0.20266580    0.70927437   -0.36656899
     atom   22 type  2   force =    -0.37443799    1.46597729  -38.05634630
     atom   23 type  2   force =     0.21915509   -0.40413063   38.10329758
     atom   24 type  1   force =    -0.56260981    0.10318526   -1.51975713
     atom   25 type  2   force =    -0.17430487    0.26430163  -38.45953674
     atom   26 type  2   force =     0.05285325    0.19447747   37.53155258
     atom   27 type  1   force =     0.09638322   -0.50069161    0.82827274
     atom   28 type  2   force =    -0.95178939   -0.44618708  -37.21896999
     atom   29 type  2   force =    -0.04065184    0.22540385   38.08949053
     atom   30 type  1   force =    -0.28668973    0.06649628   -0.89352326
     atom   31 type  2   force =    -1.14196372   -0.48568058  -37.61166395
     atom   32 type  2   force =     0.38688674   -0.07219240   38.32360030
     atom   33 type  1   force =    -0.42205355    0.45435034   -2.70475693
     atom   34 type  2   force =    -0.15467421    0.47590519  -38.53483133
     atom   35 type  2   force =    -0.06097338   -0.22720138   37.60014701
     atom   36 type  3   force =     0.56980024   -1.15998837  -47.66921418
     The core correction contribution to forces
     atom    1 type  1   force =     0.00000000    0.00000000    0.00000000
     atom    2 type  2   force =    -0.00001329    0.00043332    0.02123130
     atom    3 type  2   force =     0.00034653    0.00040214   -0.02089792
     atom    4 type  1   force =     0.00000000    0.00000000    0.00000000
     atom    5 type  2   force =    -0.00070339   -0.00039295   -0.00995206
     atom    6 type  2   force =     0.00014865   -0.00037699   -0.02128580
     atom    7 type  1   force =     0.00000000    0.00000000    0.00000000
     atom    8 type  2   force =    -0.00037906    0.00030183    0.02122999
     atom    9 type  2   force =     0.00052706    0.00082115   -0.02104336
     atom   10 type  1   force =     0.00000000    0.00000000    0.00000000
     atom   11 type  2   force =    -0.00008733   -0.00030788    0.02069800
     atom   12 type  2   force =     0.00080563    0.00100922   -0.02086961
     atom   13 type  1   force =     0.00000000    0.00000000    0.00000000
     atom   14 type  2   force =    -0.00006726    0.00020617    0.02131683
     atom   15 type  2   force =    -0.00018245    0.00045977   -0.02065878
     atom   16 type  1   force =     0.00000000    0.00000000    0.00000000
     atom   17 type  2   force =     0.00021856    0.00075536    0.02088608
     atom   18 type  2   force =    -0.00018628   -0.00051761   -0.02074168
     atom   19 type  1   force =     0.00000000    0.00000000    0.00000000
     atom   20 type  2   force =     0.00021242    0.00070297   -0.02117280
     atom   21 type  1   force =     0.00000000    0.00000000    0.00000000
     atom   22 type  2   force =     0.00015891   -0.00042447    0.02078016
     atom   23 type  2   force =    -0.00063696    0.00118332   -0.02081229
     atom   24 type  1   force =     0.00000000    0.00000000    0.00000000
     atom   25 type  2   force =     0.00010712    0.00039480    0.02098589
     atom   26 type  2   force =    -0.00016247    0.00034921   -0.02095739
     atom   27 type  1   force =     0.00000000    0.00000000    0.00000000
     atom   28 type  2   force =    -0.00007909    0.00063425    0.02154584
     atom   29 type  2   force =    -0.00006859    0.00007013   -0.02069227
     atom   30 type  1   force =     0.00000000    0.00000000    0.00000000
     atom   31 type  2   force =     0.00051082    0.00036705    0.02110248
     atom   32 type  2   force =    -0.00087105    0.00079734   -0.02100954
     atom   33 type  1   force =     0.00000000    0.00000000    0.00000000
     atom   34 type  2   force =     0.00013205    0.00021244    0.02134582
     atom   35 type  2   force =     0.00005778    0.00089266   -0.02096434
     atom   36 type  3   force =    -0.00028586    0.00062690    0.02458866
     The Hubbard contrib.    to forces
     atom    1 type  1   force =     0.00000000    0.00000000    0.00000000
     atom    2 type  2   force =     0.00000000    0.00000000    0.00000000
     atom    3 type  2   force =     0.00000000    0.00000000    0.00000000
     atom    4 type  1   force =     0.00000000    0.00000000    0.00000000
     atom    5 type  2   force =     0.00000000    0.00000000    0.00000000
     atom    6 type  2   force =     0.00000000    0.00000000    0.00000000
     atom    7 type  1   force =     0.00000000    0.00000000    0.00000000
     atom    8 type  2   force =     0.00000000    0.00000000    0.00000000
     atom    9 type  2   force =     0.00000000    0.00000000    0.00000000
     atom   10 type  1   force =     0.00000000    0.00000000    0.00000000
     atom   11 type  2   force =     0.00000000    0.00000000    0.00000000
     atom   12 type  2   force =     0.00000000    0.00000000    0.00000000
     atom   13 type  1   force =     0.00000000    0.00000000    0.00000000
     atom   14 type  2   force =     0.00000000    0.00000000    0.00000000
     atom   15 type  2   force =     0.00000000    0.00000000    0.00000000
     atom   16 type  1   force =     0.00000000    0.00000000    0.00000000
     atom   17 type  2   force =     0.00000000    0.00000000    0.00000000
     atom   18 type  2   force =     0.00000000    0.00000000    0.00000000
     atom   19 type  1   force =     0.00000000    0.00000000    0.00000000
     atom   20 type  2   force =     0.00000000    0.00000000    0.00000000
     atom   21 type  1   force =     0.00000000    0.00000000    0.00000000
     atom   22 type  2   force =     0.00000000    0.00000000    0.00000000
     atom   23 type  2   force =     0.00000000    0.00000000    0.00000000
     atom   24 type  1   force =     0.00000000    0.00000000    0.00000000
     atom   25 type  2   force =     0.00000000    0.00000000    0.00000000
     atom   26 type  2   force =     0.00000000    0.00000000    0.00000000
     atom   27 type  1   force =     0.00000000    0.00000000    0.00000000
     atom   28 type  2   force =     0.00000000    0.00000000    0.00000000
     atom   29 type  2   force =     0.00000000    0.00000000    0.00000000
     atom   30 type  1   force =     0.00000000    0.00000000    0.00000000
     atom   31 type  2   force =     0.00000000    0.00000000    0.00000000
     atom   32 type  2   force =     0.00000000    0.00000000    0.00000000
     atom   33 type  1   force =     0.00000000    0.00000000    0.00000000
     atom   34 type  2   force =     0.00000000    0.00000000    0.00000000
     atom   35 type  2   force =     0.00000000    0.00000000    0.00000000
     atom   36 type  3   force =     0.00000000    0.00000000    0.00000000
     The SCF correction term to forces
     atom    1 type  1   force =     0.00000438    0.00000461    0.00000786
     atom    2 type  2   force =     0.00001043   -0.00000779    0.00001406
     atom    3 type  2   force =     0.00000765   -0.00001463   -0.00000293
     atom    4 type  1   force =     0.00003410    0.00009872    0.00002830
     atom    5 type  2   force =    -0.00000019    0.00006584    0.00002604
     atom    6 type  2   force =     0.00000228    0.00002244   -0.00001284
     atom    7 type  1   force =     0.00001292   -0.00002725    0.00003316
     atom    8 type  2   force =    -0.00001039   -0.00000535    0.00002367
     atom    9 type  2   force =     0.00001248   -0.00000265    0.00000003
     atom   10 type  1   force =     0.00000065   -0.00006592    0.00001641
     atom   11 type  2   force =     0.00000010   -0.00003339    0.00002299
     atom   12 type  2   force =     0.00000393   -0.00002461   -0.00000487
     atom   13 type  1   force =    -0.00001706    0.00001873    0.00002924
     atom   14 type  2   force =    -0.00001016   -0.00000625    0.00001649
     atom   15 type  2   force =    -0.00000425   -0.00000990    0.00000652
     atom   16 type  1   force =    -0.00001940    0.00007563    0.00003692
     atom   17 type  2   force =    -0.00000199    0.00002272    0.00001982
     atom   18 type  2   force =    -0.00001143    0.00002825    0.00000140
     atom   19 type  1   force =    -0.00001672   -0.00001448    0.00000816
     atom   20 type  2   force =    -0.00000682    0.00000828   -0.00000261
     atom   21 type  1   force =    -0.00000123   -0.00005161    0.00000970
     atom   22 type  2   force =     0.00000219   -0.00002230    0.00001702
     atom   23 type  2   force =    -0.00000778   -0.00003137   -0.00000478
     atom   24 type  1   force =     0.00001338    0.00002907    0.00002250
     atom   25 type  2   force =    -0.00000143   -0.00000018    0.00001684
     atom   26 type  2   force =    -0.00000168   -0.00000784   -0.00000097
     atom   27 type  1   force =    -0.00000844    0.00004766    0.00001828
     atom   28 type  2   force =     0.00000051    0.00002376    0.00000959
     atom   29 type  2   force =     0.00000241    0.00003250    0.00000762
     atom   30 type  1   force =    -0.00001649   -0.00002656    0.00000503
     atom   31 type  2   force =     0.00000255    0.00000166    0.00000695
     atom   32 type  2   force =    -0.00000052    0.00001406   -0.00000221
     atom   33 type  1   force =    -0.00000403   -0.00005387    0.00001725
     atom   34 type  2   force =    -0.00000102   -0.00002107    0.00000604
     atom   35 type  2   force =     0.00000387   -0.00003282   -0.00000283
     atom   36 type  3   force =    -0.00000287    0.00015160    0.00005946

     Total force =     0.006512     Total SCF correction =     0.000289
     Energy error            =      9.4E-05 Ry
     Gradient error          =      1.7E-03 Ry/Bohr

     bfgs converged in  25 scf cycles and  24 bfgs steps
     (criteria: energy <  1.0E-04 Ry, force <  1.0E-02 Ry/Bohr)

     End of BFGS Geometry Optimization

     Final energy             =   -2246.4442057855 Ry

     File ./MoS2-V-O.bfgs deleted, as requested
Begin final coordinates

ATOMIC_POSITIONS (angstrom)
Mo            6.5939883759        1.7504290120        2.7418366290
S             8.1614869977        0.8766451651        4.3733847158
S             8.1948837012        0.8586986359        1.1680735651
Mo            8.1636384121        4.5453271651        2.6925928450
S             6.5428115434        3.6787953514        4.2040596108
S             6.5813285067        3.5862623325        1.1144104618
Mo            6.5315241686        7.2158937150        2.6601069970
S             8.0956180408        6.3383251518        4.3021752833
S             8.1532866552        6.3768131016        1.0927601620
Mo            8.1732028968        9.9666479884        2.7721405309
S             6.5443185619        8.9747632252        4.3191927533
S             6.6185751745        9.0685747988        1.1298996893
Mo            3.4579602695        1.8019638128        2.7618244565
S             5.0210768351        0.8509337293        4.3465897192
S             5.0081585595        0.8671652229        1.1594370790
Mo            4.9904862635        4.5950739611        2.6258243134
S             3.5041251058        3.7284417059        4.3085265406
S             3.4485915735        3.5910413208        1.0959515395
Mo            3.4819304081        7.2163474182        2.6396220291
S             5.0148431008        6.3674353897        1.0112648605
Mo            5.0155970800        9.9434556267        2.7292218120
S             3.4955644453        8.9667575040        4.3153023105
S             3.4206590083        9.0770439645        1.1209320422
Mo            0.2955127900        1.7787252274        2.7724909658
S             1.8915801595        0.8900496869        4.3752650248
S             1.8787239306        0.8784481486        1.1817339492
Mo            1.8940455296        4.5275120366        2.7039561753
S             0.2875133139        3.6554390522        4.3112190200
S             0.2990262170        3.5817431649        1.1351937960
Mo            0.2798579525        7.2492313118        2.7290102563
S             1.9269704832        6.3444556802        4.2869792952
S             1.8515114664        6.3601329164        1.0955062721
Mo            1.8809690739        9.9712013824        2.7732776306
S             0.2975938576        9.0501315123        4.3640944022
S             0.2993283645        9.0856862088        1.1739839721
O             6.5313159670        3.7226436725        5.7029068712
End final coordinates



     Writing all to output data dir ./MoS2-V-O.save/
 
     init_run     :      6.90s CPU      8.00s WALL (       1 calls)
     electrons    :   2513.01s CPU   2902.53s WALL (      25 calls)
     update_pot   :     73.81s CPU     79.59s WALL (      24 calls)
     forces       :     70.33s CPU     85.43s WALL (      25 calls)

     Called by init_run:
     wfcinit      :      0.85s CPU      0.95s WALL (       1 calls)
     potinit      :      3.28s CPU      3.80s WALL (       1 calls)
     hinit0       :      0.53s CPU      0.57s WALL (       1 calls)

     Called by electrons:
     c_bands      :    362.58s CPU    371.51s WALL (     246 calls)
     sum_band     :    152.54s CPU    226.10s WALL (     246 calls)
     v_of_rho     :    257.02s CPU    323.40s WALL (     264 calls)
     newd         :     84.46s CPU    142.94s WALL (     264 calls)
     PAW_pot      :     10.42s CPU     10.47s WALL (     288 calls)
     mix_rho      :   1672.36s CPU   1859.87s WALL (     246 calls)

     Called by c_bands:
     init_us_2    :      5.67s CPU      6.07s WALL (     517 calls)
     init_us_2:cp :      5.67s CPU      6.07s WALL (     517 calls)
     regterg      :    344.08s CPU    352.58s WALL (     246 calls)

     Called by *egterg:
     rdiaghg      :     23.47s CPU     23.71s WALL (    1341 calls)
     h_psi        :    224.67s CPU    226.60s WALL (    1373 calls)
     s_psi        :     20.82s CPU     20.90s WALL (    1373 calls)
     g_psi        :      1.05s CPU      1.06s WALL (    1126 calls)

     Called by h_psi:
     h_psi:calbec :     24.53s CPU     24.67s WALL (    1373 calls)
     vloc_psi     :    176.71s CPU    178.38s WALL (    1373 calls)
     add_vuspsi   :     20.70s CPU     20.81s WALL (    1373 calls)

     General routines
     calbec       :     35.39s CPU     35.64s WALL (    1743 calls)
     fft          :    173.83s CPU    198.08s WALL (   17560 calls)
     ffts         :    745.21s CPU    926.50s WALL (  411562 calls)
     fftw         :    115.84s CPU    116.81s WALL (  150886 calls)
     interpolate  :      3.31s CPU      3.84s WALL (     264 calls)
 
     Parallel routines
 
     PWSCF        :  44m35.04s CPU  51m33.28s WALL

 
   This run was terminated on:  17:55:34   1Nov2023            

=------------------------------------------------------------------------------=
   JOB DONE.
=------------------------------------------------------------------------------=
