
     Program PWSCF v.7.2 starts on  1Nov2023 at 15:34:45 

     This program is part of the open-source Quantum ESPRESSO suite
     for quantum simulation of materials; please cite
         "P. Giannozzi et al., J. Phys.:Condens. Matter 21 395502 (2009);
         "P. Giannozzi et al., J. Phys.:Condens. Matter 29 465901 (2017);
         "P. Giannozzi et al., J. Chem. Phys. 152 154105 (2020);
          URL http://www.quantum-espresso.org", 
     in publications or presentations arising from this work. More details at
     http://www.quantum-espresso.org/quote

     Parallel version (MPI & OpenMP), running on      48 processor cores
     Number of MPI processes:                48
     Threads/MPI process:                     1

     MPI processes distributed on     1 nodes
     153590 MiB available memory on the printing compute node when the environment starts
 
     Waiting for input...
     Reading input from standard input
Warning: card &CELL ignored
Warning: card CELL_DYNAMICS = 'BFGS', ignored
Warning: card CELL_DOFREE = '2DXY' ignored
Warning: card / ignored

     Current dimensions of program PWSCF are:
     Max number of different atomic species (ntypx) = 10
     Max number of k-points (npk) =  40000
     Max angular momentum in pseudopotentials (lmaxx) =  4
     file O.pbe-n-kjpaw_psl.0.1.UPF: wavefunction(s)  2P renormalized

     IMPORTANT: XC functional enforced from input :
     Exchange-correlation= RVV10
                           (   1   4  13   4  26   0   0)
     Any further DFT definition will be discarded
     Please, verify this is what you really want


     gamma-point specific algorithms are used
     signal trapping enabled: kill the code with -SIGUSR1 to stop cleanly the simulation 
 
     R & G space division:  proc/nbgrp/npool/nimage =      48
     Subspace diagonalization in iterative solution of the eigenvalue problem:
     one sub-group per band group will be used
     scalapack distributed-memory algorithm (size of sub-group:  2*  2 procs)

 
     Parallelization info
     --------------------
     sticks:   dense  smooth     PW     G-vecs:    dense   smooth      PW
     Min         396     194     47               101632    35090    4376
     Max         398     196     50               101674    35128    4410
     Sum       19091    9389   2349              4879585  1685513  210763
 
     Using Slab Decomposition
 


     bravais-lattice index     =            0
     lattice parameter (alat)  =      17.8707  a.u.
     unit-cell volume          =   17436.2743 (a.u.)^3
     number of atoms/cell      =           36
     number of atomic types    =            3
     number of electrons       =       312.00
     number of Kohn-Sham states=          187
     kinetic-energy cutoff     =      80.0000  Ry
     charge density cutoff     =     650.0000  Ry
     scf convergence threshold =      1.0E-06
     mixing beta               =       0.7000
     number of iterations used =            8  local-TF  mixing
     energy convergence thresh.=      1.0E-04
     force convergence thresh. =      1.0E-02
     Exchange-correlation= RVV10
                           (   1   4  13   4  26   0   0)
     nstep                     =          200


     celldm(1)=  17.870686  celldm(2)=   0.000000  celldm(3)=   0.000000
     celldm(4)=   0.000000  celldm(5)=   0.000000  celldm(6)=   0.000000

     crystal axes: (cart. coord. in units of alat)
               a(1) = (   1.000000   0.000000   0.000000 )  
               a(2) = (   0.000000   1.155671   0.000000 )  
               a(3) = (   0.000000   0.000000   2.643601 )  

     reciprocal axes: (cart. coord. in units 2 pi/alat)
               b(1) = (  1.000000  0.000000  0.000000 )  
               b(2) = (  0.000000  0.865298  0.000000 )  
               b(3) = (  0.000000  0.000000  0.378272 )  


     PseudoPot. # 1 for Mo read from file:
     ../pseudo/Mo_ONCV_PBE-1.0.oncvpsp.upf
     MD5 check sum: 1b5d28e075c9ccadda658a603575cd1f
     Pseudo is Norm-conserving, Zval = 14.0
     Generated using ONCVPSP code by D. R. Hamann
     Using radial grid of 1526 points,  6 beta functions with: 
                l(1) =   0
                l(2) =   0
                l(3) =   1
                l(4) =   1
                l(5) =   2
                l(6) =   2

     PseudoPot. # 2 for S  read from file:
     ../pseudo/s_pbe_v1.4.uspp.F.UPF
     MD5 check sum: 88d86576ff6df21479756cfb9bdac1df
     Pseudo is Ultrasoft + core correction, Zval =  6.0
     Generated by new atomic code, or converted to UPF format
     Using radial grid of  907 points,  6 beta functions with: 
                l(1) =   0
                l(2) =   0
                l(3) =   1
                l(4) =   1
                l(5) =   2
                l(6) =   2
     Q(r) pseudized with  8 coefficients,  rinner =    1.300   1.300   1.300
                                                       1.300   1.300

     PseudoPot. # 3 for O  read from file:
     ../pseudo/O.pbe-n-kjpaw_psl.0.1.UPF
     MD5 check sum: 0234752ac141de4415c5fc33072bef88
     Pseudo is Projector augmented-wave + core cor, Zval =  6.0
     Generated using "atomic" code by A. Dal Corso  v.5.0.99 svn rev. 10869
     Shape of augmentation charge: BESSEL
     Using radial grid of 1095 points,  4 beta functions with: 
                l(1) =   0
                l(2) =   0
                l(3) =   1
                l(4) =   1
     Q(r) pseudized with 0 coefficients 


     atomic species   valence    mass     pseudopotential
        Mo            14.00    95.94000     Mo( 1.00)
        S              6.00    32.06500     S ( 1.00)
        O              6.00    15.99940     O ( 1.00)

     No symmetry found



   Cartesian axes

     site n.     atom                  positions (alat units)
         1           Mo  tau(   1) = (   0.6952221   0.1890506   0.2985846  )
         2           S   tau(   2) = (   0.8646417   0.0856217   0.4689279  )
         3           S   tau(   3) = (   0.8663890   0.0857843   0.1351291  )
         4           Mo  tau(   4) = (   0.8560186   0.4753274   0.2873942  )
         5           S   tau(   5) = (   0.6873294   0.3936244   0.4596353  )
         6           S   tau(   6) = (   0.6929804   0.3713468   0.1185692  )
         7           Mo  tau(   7) = (   0.6862796   0.7633098   0.2825370  )
         8           S   tau(   8) = (   0.8545980   0.6708292   0.4486168  )
         9           S   tau(   9) = (   0.8545123   0.6666874   0.1146125  )
        10           Mo  tau(  10) = (   0.8629403   1.0471007   0.3006803  )
        11           S   tau(  11) = (   0.6868280   0.9456650   0.4634891  )
        12           S   tau(  12) = (   0.6998113   0.9568511   0.1205389  )
        13           Mo  tau(  13) = (   0.3618216   0.1847309   0.2935964  )
        14           S   tau(  14) = (   0.5260962   0.0863870   0.4600448  )
        15           S   tau(  15) = (   0.5348379   0.0894875   0.1297123  )
        16           Mo  tau(  16) = (   0.5265817   0.4772436   0.2784130  )
        17           S   tau(  17) = (   0.3624753   0.3882513   0.4525556  )
        18           S   tau(  18) = (   0.3635411   0.3752055   0.1119148  )
        19           Mo  tau(  19) = (   0.3652268   0.7630864   0.2781795  )
        20           S   tau(  20) = (   0.5269494   0.6690381   0.1096838  )
        21           Mo  tau(  21) = (   0.5300192   1.0470394   0.2900995  )
        22           S   tau(  22) = (   0.3670346   0.9457522   0.4574073  )
        23           S   tau(  23) = (   0.3604225   0.9585725   0.1159032  )
        24           Mo  tau(  24) = (   0.0313099   0.1847895   0.3013130  )
        25           S   tau(  25) = (   0.1956761   0.0838230   0.4650863  )
        26           S   tau(  26) = (   0.1967693   0.0903508   0.1278874  )
        27           Mo  tau(  27) = (   0.1967578   0.4753919   0.2813011  )
        28           S   tau(  28) = (   0.0287851   0.3864324   0.4586755  )
        29           S   tau(  29) = (   0.0244514   0.3729871   0.1239344  )
        30           Mo  tau(  30) = (   0.0286728   0.7631204   0.2856894  )
        31           S   tau(  31) = (   0.2011512   0.6675435   0.4465001  )
        32           S   tau(  32) = (   0.1969214   0.6672839   0.1104564  )
        33           Mo  tau(  33) = (   0.1950294   1.0511147   0.2932237  )
        34           S   tau(  34) = (   0.0312912   0.9612169   0.4667423  )
        35           S   tau(  35) = (   0.0292670   0.9563028   0.1216485  )
        36           O   tau(  36) = (   0.7777778   0.3852236   0.5407634  )

     number of k points=     1  Gaussian smearing, width (Ry)=  0.0100
                       cart. coord. in units 2pi/alat
        k(    1) = (   0.0000000   0.0000000   0.0000000), wk =   2.0000000

     Dense  grid:  2439793 G-vectors     FFT dimensions: ( 150, 180, 384)

     Smooth grid:   842757 G-vectors     FFT dimensions: ( 108, 120, 270)

     Estimated max dynamical RAM per process >     269.22 MB

     Estimated total dynamical RAM >      12.62 GB

     Initial potential from superposition of free atoms

     starting charge     311.9873, renormalised to     312.0000

     negative rho (up, down):  2.728E-04 0.000E+00


---------------------------------------------------------------------------------
Carrying out rVV10 run using the following parameters:
Nqs =      20    Nr_points =    1024   r_max =   100.000
b_value =  6.30000    beta =  0.00901
     q_mesh =  0.00010000  0.00030000  0.00058939  0.00100810
               0.00161396  0.00249058  0.00375900  0.00559430
               0.00824984  0.01209221  0.01765183  0.02569619
               0.03733578  0.05417739  0.07854596  0.11380545
               0.16482331  0.23864234  0.34545298  0.50000000

Gradients computed in Reciprocal space

---------------------------------------------------------------------------------


     Starting wfcs are  216 randomized atomic wfcs
     Checking if some PAW data can be deallocated... 

     total cpu time spent up to now is        5.1 secs

     Self-consistent Calculation

     iteration #  1     ecut=    80.00 Ry     beta= 0.70
     Davidson diagonalization with overlap
     ethr =  1.00E-02,  avg # of iterations =  2.0

     Threshold (ethr) on eigenvalues was too large:
     Diagonalizing with lowered threshold

     Davidson diagonalization with overlap
     ethr =  5.26E-04,  avg # of iterations =  3.0

     negative rho (up, down):  3.979E-08 0.000E+00

     total cpu time spent up to now is       26.0 secs

     total energy              =   -2245.74850773 Ry
     estimated scf accuracy    <       1.88551288 Ry

     iteration #  2     ecut=    80.00 Ry     beta= 0.70
     Davidson diagonalization with overlap
     ethr =  6.04E-04,  avg # of iterations =  4.0

     total cpu time spent up to now is       30.3 secs

     total energy              =   -2245.74638122 Ry
     estimated scf accuracy    <       0.59438697 Ry

     iteration #  3     ecut=    80.00 Ry     beta= 0.70
     Davidson diagonalization with overlap
     ethr =  1.91E-04,  avg # of iterations =  2.0

     total cpu time spent up to now is       34.1 secs

     total energy              =   -2245.76557121 Ry
     estimated scf accuracy    <       0.11478476 Ry

     iteration #  4     ecut=    80.00 Ry     beta= 0.70
     Davidson diagonalization with overlap
     ethr =  3.68E-05,  avg # of iterations = 18.0

     total cpu time spent up to now is       38.8 secs

     total energy              =   -2245.78255130 Ry
     estimated scf accuracy    <       0.02572852 Ry

     iteration #  5     ecut=    80.00 Ry     beta= 0.70
     Davidson diagonalization with overlap
     ethr =  8.25E-06,  avg # of iterations =  2.0

     total cpu time spent up to now is       42.4 secs

     total energy              =   -2245.78175294 Ry
     estimated scf accuracy    <       0.01663659 Ry

     iteration #  6     ecut=    80.00 Ry     beta= 0.70
     Davidson diagonalization with overlap
     ethr =  5.33E-06,  avg # of iterations =  1.0

     total cpu time spent up to now is       45.7 secs

     total energy              =   -2245.78060262 Ry
     estimated scf accuracy    <       0.01074343 Ry

     iteration #  7     ecut=    80.00 Ry     beta= 0.70
     Davidson diagonalization with overlap
     ethr =  3.44E-06,  avg # of iterations =  2.0

     negative rho (up, down):  4.599E-05 0.000E+00

     total cpu time spent up to now is       50.4 secs

     total energy              =   -2245.77969193 Ry
     estimated scf accuracy    <       0.00626252 Ry

     iteration #  8     ecut=    80.00 Ry     beta= 0.70
     Davidson diagonalization with overlap
     ethr =  2.01E-06,  avg # of iterations =  2.0

     negative rho (up, down):  1.213E-02 0.000E+00

     total cpu time spent up to now is       55.8 secs

     total energy              =   -2245.77877792 Ry
     estimated scf accuracy    <       0.00390009 Ry

     iteration #  9     ecut=    80.00 Ry     beta= 0.70
     Davidson diagonalization with overlap
     ethr =  1.25E-06,  avg # of iterations =  2.0

     negative rho (up, down):  3.348E-02 0.000E+00

     total cpu time spent up to now is       61.3 secs

     total energy              =   -2245.77862904 Ry
     estimated scf accuracy    <       0.00217276 Ry

     iteration # 10     ecut=    80.00 Ry     beta= 0.70
     Davidson diagonalization with overlap
     ethr =  6.96E-07,  avg # of iterations =  2.0

     negative rho (up, down):  2.727E-02 0.000E+00

     total cpu time spent up to now is       67.5 secs

     total energy              =   -2245.77859377 Ry
     estimated scf accuracy    <       0.00085436 Ry

     iteration # 11     ecut=    80.00 Ry     beta= 0.70
     Davidson diagonalization with overlap
     ethr =  2.74E-07,  avg # of iterations =  2.0

     negative rho (up, down):  1.274E-02 0.000E+00

     total cpu time spent up to now is       74.9 secs

     total energy              =   -2245.77856214 Ry
     estimated scf accuracy    <       0.00013023 Ry

     iteration # 12     ecut=    80.00 Ry     beta= 0.70
     Davidson diagonalization with overlap
     ethr =  4.17E-08,  avg # of iterations = 12.0

     negative rho (up, down):  5.653E-03 0.000E+00

     total cpu time spent up to now is       85.2 secs

     total energy              =   -2245.77861577 Ry
     estimated scf accuracy    <       0.00003512 Ry

     iteration # 13     ecut=    80.00 Ry     beta= 0.70
     Davidson diagonalization with overlap
     ethr =  1.13E-08,  avg # of iterations =  2.0

     negative rho (up, down):  7.973E-04 0.000E+00

     total cpu time spent up to now is      104.7 secs

     total energy              =   -2245.77862878 Ry
     estimated scf accuracy    <       0.00000677 Ry

     iteration # 14     ecut=    80.00 Ry     beta= 0.70
     Davidson diagonalization with overlap
     ethr =  2.17E-09,  avg # of iterations =  4.0

     negative rho (up, down):  2.458E-04 0.000E+00

     total cpu time spent up to now is      108.1 secs

     End of self-consistent calculation

          k = 0.0000 0.0000 0.0000 (105382 PWs)   bands (ev):

   -62.8506 -62.8408 -62.8259 -62.8217 -62.8111 -62.8013 -62.7862 -62.7775
   -62.7662 -62.7539 -62.6245 -62.6108 -37.2077 -37.1758 -37.1079 -37.1021
   -37.0857 -37.0776 -37.0484 -37.0418 -37.0250 -37.0237 -37.0106 -37.0026
   -36.9918 -36.9868 -36.9812 -36.9771 -36.9693 -36.9646 -36.9630 -36.9515
   -36.9335 -36.9266 -36.9141 -36.8975 -36.8872 -36.8667 -36.8481 -36.8291
   -36.8164 -36.8109 -36.7980 -36.7853 -36.7558 -36.7309 -36.7061 -36.6761
   -28.4578 -15.9004 -15.1043 -15.0930 -14.9068 -14.8766 -14.7269 -14.4719
   -14.4282 -14.4106 -14.3546 -14.3149 -14.3045 -14.2734 -14.2198 -14.0970
   -14.0829 -14.0598 -14.0011 -13.8601 -13.8160 -13.8093 -13.7662 -12.9894
   -10.8155 -10.6102  -8.7649  -7.5583  -7.4064  -7.2302  -7.2078  -7.1767
    -7.1502  -7.0634  -6.9861  -6.7613  -6.7463  -6.6742  -6.6130  -6.5665
    -6.4354  -6.3992  -6.3194  -6.2427  -6.1676  -6.0708  -5.9337  -5.8691
    -5.7902  -5.7316  -5.7086  -5.6949  -5.6569  -5.6215  -5.5566  -5.5420
    -5.4666  -5.4064  -5.3730  -5.2182  -5.1766  -5.1363  -5.0799  -5.0427
    -4.9441  -4.9328  -4.8509  -4.7992  -4.6646  -4.5866  -4.3808  -4.3298
    -4.2620  -4.1966  -4.1286  -4.0571  -4.0183  -3.9348  -3.8689  -3.7596
    -3.7336  -3.6237  -3.5821  -3.5681  -3.5366  -3.4699  -3.4299  -3.4073
    -3.3686  -3.3310  -3.2997  -3.1444  -3.0816  -2.9955  -2.8968  -2.8252
    -2.7542  -2.7068  -2.6547  -2.6408  -2.5980  -2.5853  -2.4059  -2.3357
    -2.0593  -1.9008  -1.8563  -1.7191  -1.0884  -0.7366  -0.4116  -0.1099
    -0.0415  -0.0102   0.0044   0.0901   0.1862   0.2637   0.3067   0.3172
     0.3771   0.4498   0.4880   0.5408   0.5806   0.6050   0.6358   0.7025
     0.7324   0.7677   0.7866   0.8471   0.8859   0.9267   0.9425   0.9914
     1.0611   1.1378   1.3369

     the Fermi energy is    -1.4037 ev

!    total energy              =   -2245.77862977 Ry
     estimated scf accuracy    <       0.00000091 Ry
     smearing contrib. (-TS)   =      -0.00005252 Ry
     internal energy E=F+TS    =   -2245.77857724 Ry

     The total energy is F=E-TS. E is the sum of the following terms:
     one-electron contribution =  -18505.72652128 Ry
     hartree contribution      =    9241.58910400 Ry
     xc contribution           =    -392.80061821 Ry
     ewald contribution        =    7420.98914873 Ry
     one-center paw contrib.   =      -9.82969049 Ry

     convergence has been achieved in  14 iterations

     negative rho (up, down):  2.458E-04 0.000E+00

     Forces acting on atoms (cartesian axes, Ry/au):

     atom    1 type  1   force =     0.00720962   -0.02711652   -0.00642134
     atom    2 type  2   force =    -0.01343728    0.01458300    0.00291295
     atom    3 type  2   force =    -0.00916018    0.00908944   -0.00449222
     atom    4 type  1   force =     0.00062267    0.04554504   -0.11504254
     atom    5 type  2   force =    -1.45181605    0.08109889   -1.43688417
     atom    6 type  2   force =    -0.00041792    0.01054277   -0.00097253
     atom    7 type  1   force =     0.00587388   -0.02616786   -0.01229127
     atom    8 type  2   force =     0.00024678   -0.00564911    0.02715715
     atom    9 type  2   force =     0.01654759    0.00277803    0.01527680
     atom   10 type  1   force =    -0.01351348    0.00767146   -0.02739925
     atom   11 type  2   force =     0.00526945   -0.00204678   -0.00681158
     atom   12 type  2   force =    -0.00021593    0.00266099    0.00658852
     atom   13 type  1   force =     0.00246363    0.00180285   -0.00083396
     atom   14 type  2   force =     0.00672941   -0.00008413    0.01393752
     atom   15 type  2   force =    -0.01710392    0.00184904   -0.00880697
     atom   16 type  1   force =     0.01871156    0.04340461    0.02771275
     atom   17 type  2   force =    -0.00405890   -0.00520474   -0.00431073
     atom   18 type  2   force =    -0.00477436   -0.00814344    0.00977875
     atom   19 type  1   force =    -0.00024637   -0.00761255   -0.00396344
     atom   20 type  2   force =     0.00242204   -0.00977998   -0.00009964
     atom   21 type  1   force =    -0.00536971    0.00551927    0.00029104
     atom   22 type  2   force =    -0.00337400   -0.00200515   -0.00537210
     atom   23 type  2   force =    -0.00075584    0.00090554    0.00888709
     atom   24 type  1   force =    -0.00899939   -0.00103107   -0.01868113
     atom   25 type  2   force =     0.01630129    0.01842834    0.00669506
     atom   26 type  2   force =    -0.01094376   -0.00066097   -0.00521534
     atom   27 type  1   force =    -0.00405915   -0.00136512    0.00530003
     atom   28 type  2   force =     0.03858876   -0.00073092   -0.01904662
     atom   29 type  2   force =     0.00565575    0.00012274    0.00095255
     atom   30 type  1   force =    -0.00127294    0.01267500   -0.00728392
     atom   31 type  2   force =    -0.00064000    0.00022910    0.01655481
     atom   32 type  2   force =    -0.00668713    0.00812397    0.00763083
     atom   33 type  1   force =     0.01307622   -0.00637407   -0.00719344
     atom   34 type  2   force =     0.00342662   -0.04286847   -0.00985598
     atom   35 type  2   force =    -0.00777146    0.00784898    0.01435398
     atom   36 type  3   force =     1.42147249   -0.12803820    1.53694833
     The non-local contrib.  to forces
     atom    1 type  1   force =    -0.01268487    0.07515279    0.00989996
     atom    2 type  2   force =    -0.00578898   -0.00454444   -0.26782029
     atom    3 type  2   force =    -0.01091169   -0.00573160    0.26864805
     atom    4 type  1   force =    -0.03910677   -0.02764117    0.03468779
     atom    5 type  2   force =    -0.78924250    0.07771759   -0.81177041
     atom    6 type  2   force =    -0.00617764    0.00933984    0.26407270
     atom    7 type  1   force =    -0.00850744    0.00024405   -0.01846104
     atom    8 type  2   force =    -0.00232638    0.00370654   -0.25024934
     atom    9 type  2   force =     0.00403774   -0.00756363    0.27860647
     atom   10 type  1   force =     0.00856907    0.00499683   -0.00393367
     atom   11 type  2   force =     0.01310248    0.00410217   -0.25831164
     atom   12 type  2   force =    -0.01352732   -0.01806351    0.26304327
     atom   13 type  1   force =    -0.00555220    0.01617457   -0.00785747
     atom   14 type  2   force =     0.01900662   -0.00232031   -0.26081570
     atom   15 type  2   force =    -0.01871065   -0.00813475    0.25642634
     atom   16 type  1   force =    -0.00143407    0.01757479   -0.00100349
     atom   17 type  2   force =    -0.00406896   -0.03251270   -0.24477880
     atom   18 type  2   force =    -0.00648855   -0.00459187    0.26854069
     atom   19 type  1   force =     0.00405825    0.00593561   -0.01850838
     atom   20 type  2   force =    -0.00184963   -0.02486400    0.26871776
     atom   21 type  1   force =     0.00820462    0.03185109    0.00621139
     atom   22 type  2   force =    -0.00743095    0.00285921   -0.25590665
     atom   23 type  2   force =     0.00609614   -0.01466400    0.26622976
     atom   24 type  1   force =     0.00596832    0.01293531   -0.01140418
     atom   25 type  2   force =     0.01419371    0.00484017   -0.26285572
     atom   26 type  2   force =    -0.00224405   -0.01189802    0.26403368
     atom   27 type  1   force =    -0.01004910    0.00825176    0.01009110
     atom   28 type  2   force =     0.06467526   -0.02380997   -0.27203911
     atom   29 type  2   force =     0.01133218   -0.00689989    0.25815301
     atom   30 type  1   force =    -0.00083418    0.01280774    0.01065694
     atom   31 type  2   force =    -0.00790141    0.00180664   -0.25250292
     atom   32 type  2   force =    -0.00184615   -0.00886915    0.27512050
     atom   33 type  1   force =    -0.00522052    0.01014002    0.00449367
     atom   34 type  2   force =    -0.00188474   -0.03603241   -0.27190234
     atom   35 type  2   force =    -0.00329859   -0.01237850    0.27129695
     atom   36 type  3   force =    -1.81897384    0.25350693   -1.14776787
     The ionic contribution  to forces
     atom    1 type  1   force =    -0.74946801   -2.59573751    1.69176908
     atom    2 type  2   force =    -0.13412785   -1.44697335   38.76659682
     atom    3 type  2   force =    -0.06458078   -0.33864833  -36.91728095
     atom    4 type  1   force =     1.80308619    2.62947512   -5.59508047
     atom    5 type  2   force =   -12.15858297    2.54001312   28.60616139
     atom    6 type  2   force =     0.16586211   -0.53382714  -39.33979244
     atom    7 type  1   force =    -2.96897963   -1.40341989    0.93122553
     atom    8 type  2   force =    -0.46384473    2.00122185   36.65934846
     atom    9 type  2   force =     0.42438714    0.29073503  -38.85069215
     atom   10 type  1   force =    -0.89940680   -0.91656175    4.53489934
     atom   11 type  2   force =    -0.67002544   -1.52666778   38.97537030
     atom   12 type  2   force =     0.40696834    0.70246360  -38.39758404
     atom   13 type  1   force =    -0.07161729    0.27744453    1.48299083
     atom   14 type  2   force =    -0.61706231   -0.91230323   38.19675368
     atom   15 type  2   force =    -0.00946751   -0.32004378  -37.50307234
     atom   16 type  1   force =    -1.97757757    4.79202251   -2.42878140
     atom   17 type  2   force =     0.19263455    1.50928241   37.58956077
     atom   18 type  2   force =    -0.28410516   -0.65573956  -39.28010435
     atom   19 type  1   force =     2.46020194   -1.86209545   -0.38429093
     atom   20 type  2   force =     0.07437701    0.03294559  -39.17201785
     atom   21 type  1   force =    -0.31498371   -0.36357966    0.16224589
     atom   22 type  2   force =     0.36556804   -1.68052129   38.30355526
     atom   23 type  2   force =    -0.12126499    0.67030227  -38.75122659
     atom   24 type  1   force =     0.97294271   -0.29212703    3.63153207
     atom   25 type  2   force =     0.90191672   -0.15614491   39.09201432
     atom   26 type  2   force =    -0.21559467   -0.10755437  -37.90490659
     atom   27 type  1   force =     0.69525912    0.79233137   -3.85487334
     atom   28 type  2   force =     2.82863597    1.02066248   37.16998208
     atom   29 type  2   force =     0.04148701   -0.44814880  -38.25292094
     atom   30 type  1   force =     0.23378211    0.03898222   -1.32228362
     atom   31 type  2   force =     1.47082513    0.37929569   37.09690684
     atom   32 type  2   force =    -0.41137200    0.15600007  -39.21522159
     atom   33 type  1   force =     0.96158607   -1.14399230    1.20958716
     atom   34 type  2   force =     0.42318630   -1.43446107   39.22239146
     atom   35 type  2   force =    -0.22686894    0.48628464  -38.31467836
     atom   36 type  3   force =     7.93622390   -0.18091531   52.16191669
     The local contribution  to forces
     atom    1 type  1   force =     0.76940574    2.49342640   -1.70724921
     atom    2 type  2   force =     0.12636484    1.46607261  -38.51641910
     atom    3 type  2   force =     0.06586201    0.35329877   36.66566092
     atom    4 type  1   force =    -1.76313163   -2.55616293    5.44630284
     atom    5 type  2   force =    11.44305438   -2.53157680  -29.29052522
     atom    6 type  2   force =    -0.16070609    0.53607543   39.09630334
     atom    7 type  1   force =     2.98365387    1.37707793   -0.92420506
     atom    8 type  2   force =     0.46606923   -2.01106282  -36.40200493
     atom    9 type  2   force =    -0.41185548   -0.28073877   38.60911579
     atom   10 type  1   force =     0.87732994    0.91913900   -4.55740058
     atom   11 type  2   force =     0.66283844    1.52100314  -38.74451193
     atom   12 type  2   force =    -0.39485264   -0.68324512   38.16269207
     atom   13 type  1   force =     0.07972895   -0.29164225   -1.47524009
     atom   14 type  2   force =     0.60583576    0.91499632  -37.94251911
     atom   15 type  2   force =     0.01001946    0.32957735   37.25890994
     atom   16 type  1   force =     1.99763795   -4.76637703    2.45817416
     atom   17 type  2   force =    -0.19269520   -1.48370455  -37.36916304
     atom   18 type  2   force =     0.28570841    0.65268567   39.04286588
     atom   19 type  1   force =    -2.46467073    1.84863296    0.39961152
     atom   20 type  2   force =    -0.07029288   -0.01897153   38.92512889
     atom   21 type  1   force =     0.30152987    0.33723826   -0.16729330
     atom   22 type  2   force =    -0.36171327    1.67610371  -38.07348315
     atom   23 type  2   force =     0.11493071   -0.65603824   38.51535497
     atom   24 type  1   force =    -0.98800699    0.27829195   -3.63780393
     atom   25 type  2   force =    -0.89954392    0.17015135  -38.84330266
     atom   26 type  2   force =     0.20711526    0.11817287   37.65726015
     atom   27 type  1   force =    -0.68938858   -0.80197671    3.85095114
     atom   28 type  2   force =    -2.85154958   -0.99937279  -36.93797915
     atom   29 type  2   force =    -0.04626951    0.45539585   38.01673697
     atom   30 type  1   force =    -0.23434714   -0.03915191    1.30529578
     atom   31 type  2   force =    -1.46416359   -0.38090632  -36.84834248
     atom   32 type  2   force =     0.40672659   -0.13955980   38.96949491
     atom   33 type  1   force =    -0.94338271    1.12736244   -1.22039050
     atom   34 type  2   force =    -0.41833288    1.42648472  -38.98145174
     atom   35 type  2   force =     0.22244477   -0.46716887   38.07956827
     atom   36 type  3   force =    -4.70363244   -0.19897539  -49.47844526
     The core correction contribution to forces
     atom    1 type  1   force =     0.00000000    0.00000000    0.00000000
     atom    2 type  2   force =     0.00013512    0.00007432    0.02056924
     atom    3 type  2   force =     0.00043617    0.00019769   -0.02078432
     atom    4 type  1   force =     0.00000000    0.00000000    0.00000000
     atom    5 type  2   force =     0.05292594   -0.00508636    0.05935006
     atom    6 type  2   force =     0.00056425   -0.00102396   -0.02090143
     atom    7 type  1   force =     0.00000000    0.00000000    0.00000000
     atom    8 type  2   force =     0.00042824    0.00044146    0.02003581
     atom    9 type  2   force =     0.00001303    0.00034868   -0.02102318
     atom   10 type  1   force =     0.00000000    0.00000000    0.00000000
     atom   11 type  2   force =    -0.00056143   -0.00046097    0.02056509
     atom   12 type  2   force =     0.00120470    0.00145662   -0.02085005
     atom   13 type  1   force =     0.00000000    0.00000000    0.00000000
     atom   14 type  2   force =    -0.00097173   -0.00044092    0.02041706
     atom   15 type  2   force =     0.00107518    0.00049594   -0.02035037
     atom   16 type  1   force =     0.00000000    0.00000000    0.00000000
     atom   17 type  2   force =     0.00006070    0.00171302    0.01993173
     atom   18 type  2   force =     0.00016108   -0.00044124   -0.02082804
     atom   19 type  1   force =     0.00000000    0.00000000    0.00000000
     atom   20 type  2   force =     0.00022010    0.00105208   -0.02131672
     atom   21 type  1   force =     0.00000000    0.00000000    0.00000000
     atom   22 type  2   force =     0.00017689   -0.00038804    0.02042773
     atom   23 type  2   force =    -0.00052244    0.00129593   -0.02080905
     atom   24 type  1   force =     0.00000000    0.00000000    0.00000000
     atom   25 type  2   force =    -0.00037158   -0.00041096    0.02080429
     atom   26 type  2   force =    -0.00020645    0.00064088   -0.02090705
     atom   27 type  1   force =     0.00000000    0.00000000    0.00000000
     atom   28 type  2   force =    -0.00325741    0.00181024    0.02100790
     atom   29 type  2   force =    -0.00089145   -0.00014295   -0.02029427
     atom   30 type  1   force =     0.00000000    0.00000000    0.00000000
     atom   31 type  2   force =     0.00041834    0.00001322    0.02045342
     atom   32 type  2   force =    -0.00025261    0.00052529   -0.02110027
     atom   33 type  1   force =     0.00000000    0.00000000    0.00000000
     atom   34 type  2   force =     0.00040408    0.00112092    0.02106477
     atom   35 type  2   force =    -0.00005535    0.00102813   -0.02110202
     atom   36 type  3   force =     0.00782106   -0.00169750    0.00112192
     The Hubbard contrib.    to forces
     atom    1 type  1   force =     0.00000000    0.00000000    0.00000000
     atom    2 type  2   force =     0.00000000    0.00000000    0.00000000
     atom    3 type  2   force =     0.00000000    0.00000000    0.00000000
     atom    4 type  1   force =     0.00000000    0.00000000    0.00000000
     atom    5 type  2   force =     0.00000000    0.00000000    0.00000000
     atom    6 type  2   force =     0.00000000    0.00000000    0.00000000
     atom    7 type  1   force =     0.00000000    0.00000000    0.00000000
     atom    8 type  2   force =     0.00000000    0.00000000    0.00000000
     atom    9 type  2   force =     0.00000000    0.00000000    0.00000000
     atom   10 type  1   force =     0.00000000    0.00000000    0.00000000
     atom   11 type  2   force =     0.00000000    0.00000000    0.00000000
     atom   12 type  2   force =     0.00000000    0.00000000    0.00000000
     atom   13 type  1   force =     0.00000000    0.00000000    0.00000000
     atom   14 type  2   force =     0.00000000    0.00000000    0.00000000
     atom   15 type  2   force =     0.00000000    0.00000000    0.00000000
     atom   16 type  1   force =     0.00000000    0.00000000    0.00000000
     atom   17 type  2   force =     0.00000000    0.00000000    0.00000000
     atom   18 type  2   force =     0.00000000    0.00000000    0.00000000
     atom   19 type  1   force =     0.00000000    0.00000000    0.00000000
     atom   20 type  2   force =     0.00000000    0.00000000    0.00000000
     atom   21 type  1   force =     0.00000000    0.00000000    0.00000000
     atom   22 type  2   force =     0.00000000    0.00000000    0.00000000
     atom   23 type  2   force =     0.00000000    0.00000000    0.00000000
     atom   24 type  1   force =     0.00000000    0.00000000    0.00000000
     atom   25 type  2   force =     0.00000000    0.00000000    0.00000000
     atom   26 type  2   force =     0.00000000    0.00000000    0.00000000
     atom   27 type  1   force =     0.00000000    0.00000000    0.00000000
     atom   28 type  2   force =     0.00000000    0.00000000    0.00000000
     atom   29 type  2   force =     0.00000000    0.00000000    0.00000000
     atom   30 type  1   force =     0.00000000    0.00000000    0.00000000
     atom   31 type  2   force =     0.00000000    0.00000000    0.00000000
     atom   32 type  2   force =     0.00000000    0.00000000    0.00000000
     atom   33 type  1   force =     0.00000000    0.00000000    0.00000000
     atom   34 type  2   force =     0.00000000    0.00000000    0.00000000
     atom   35 type  2   force =     0.00000000    0.00000000    0.00000000
     atom   36 type  3   force =     0.00000000    0.00000000    0.00000000
     The SCF correction term to forces
     atom    1 type  1   force =    -0.00004105    0.00004174   -0.00080952
     atom    2 type  2   force =    -0.00001822   -0.00004620    0.00001793
     atom    3 type  2   force =     0.00003630   -0.00002714   -0.00070426
     atom    4 type  1   force =    -0.00022294   -0.00012605   -0.00092105
     atom    5 type  2   force =     0.00003128    0.00003128   -0.00006833
     atom    6 type  2   force =     0.00004164   -0.00002145   -0.00062304
     atom    7 type  1   force =    -0.00029073   -0.00007000   -0.00081905
     atom    8 type  2   force =    -0.00007739    0.00004380    0.00005881
     atom    9 type  2   force =    -0.00003265   -0.00000332   -0.00069848
     atom   10 type  1   force =    -0.00000351    0.00009733   -0.00093269
     atom   11 type  2   force =    -0.00008242   -0.00002341    0.00010824
     atom   12 type  2   force =    -0.00000682    0.00004934   -0.00068108
     atom   13 type  1   force =    -0.00009364   -0.00017406   -0.00069559
     atom   14 type  2   force =    -0.00007673   -0.00001605    0.00013324
     atom   15 type  2   force =    -0.00001822   -0.00004578   -0.00068889
     atom   16 type  1   force =     0.00008744    0.00018427   -0.00064487
     atom   17 type  2   force =     0.00001220    0.00001702    0.00017026
     atom   18 type  2   force =    -0.00004795   -0.00005649   -0.00066377
     atom   19 type  1   force =     0.00016635   -0.00008572   -0.00074400
     atom   20 type  2   force =    -0.00003037    0.00005782   -0.00058007
     atom   21 type  1   force =    -0.00011831    0.00000952   -0.00084129
     atom   22 type  2   force =     0.00002748   -0.00005880    0.00006637
     atom   23 type  2   force =     0.00000693    0.00000952   -0.00063035
     atom   24 type  1   force =     0.00009876   -0.00013136   -0.00097343
     atom   25 type  2   force =     0.00010855   -0.00000738    0.00006647
     atom   26 type  2   force =    -0.00001168   -0.00002240   -0.00066387
     atom   27 type  1   force =     0.00012159    0.00002841   -0.00083720
     atom   28 type  2   force =     0.00008671   -0.00002094    0.00001332
     atom   29 type  2   force =    -0.00000028   -0.00008152   -0.00069056
     atom   30 type  1   force =     0.00012845    0.00003689   -0.00092136
     atom   31 type  2   force =     0.00018371    0.00001982    0.00007159
     atom   32 type  2   force =     0.00005923    0.00002750   -0.00063107
     atom   33 type  1   force =     0.00009556    0.00011570   -0.00085211
     atom   34 type  2   force =     0.00005605    0.00001930    0.00007352
     atom   35 type  2   force =     0.00000884    0.00008352   -0.00069921
     atom   36 type  3   force =     0.00003599    0.00004301    0.00015450

     Total force =     2.934088     Total SCF correction =     0.003787

     BFGS Geometry Optimization
     Energy error            =      0.0E+00 Ry
     Gradient error          =      1.5E+00 Ry/Bohr

     number of scf cycles    =   1
     number of bfgs steps    =   0

     energy             new  =   -2245.7786297678 Ry

     new trust radius        =       0.5000000000 bohr
     new conv_thr            =       0.0000010000 Ry


ATOMIC_POSITIONS (angstrom)
Mo            6.5754578966        1.7843854991        2.8228329842
S             8.1750142352        0.8115436602        4.4349058195
S             8.1920775361        0.8123883715        1.2773167358
Mo            8.0952411139        4.5008024195        2.7033058569
S             6.3167636646        3.7326420564        4.1653987033
S             6.5532970783        3.5130675187        1.1211575439
Mo            6.4907226828        7.2151362264        2.6703339495
S             8.0817588598        6.3431583614        4.2458874193
S             8.0830051148        6.3050527636        1.0857901564
Mo            8.1589143318        9.9031481631        2.8400053643
S             6.4958323334        8.9426686141        4.3822462572
S             6.6179199600        9.0490468948        1.1407384399
Mo            3.4219704480        1.7471832795        2.7763659588
S             4.9760144012        0.8169305961        4.3522913010
S             5.0556761068        0.8464953645        1.2255474674
Mo            4.9821171316        4.5186534642        2.6363804928
S             3.4273296351        3.6709431117        4.2791657841
S             3.4373182985        3.5472014089        1.0595852648
Mo            3.4538306609        7.2153642207        2.6301768765
S             4.9835397317        6.3256985487        1.0372411614
Mo            5.0115865352        9.9022963036        2.7434376752
S             3.4705324899        8.9434983211        4.3249136259
S             3.4083338174        9.0651042164        1.0971893995
Mo            0.2949552207        1.7473794627        2.8470880978
S             1.8525186086        0.7950187290        4.3990540158
S             1.8594194860        0.8543425368        1.2087429433
Mo            1.8601792500        4.4954945525        2.6608659754
S             0.2770817942        3.6543066216        4.3351813820
S             0.2319446766        3.5272647105        1.1721380479
Mo            0.2709915706        7.2182450369        2.7007775660
S             1.9021575120        6.3128277356        4.2245324990
S             1.8613946380        6.3113686452        1.0455219065
Mo            1.8459962183        9.9393350687        2.7720388048
S             0.2963451653        9.0845899993        4.4126261402
S             0.2757910355        9.0445158574        1.1522115240
O             7.5345755503        3.6268147368        5.3077544363



     Writing config-only to output data dir ./MoS2-V-O.save/
     NEW-OLD atomic charge density approx. for the potential

     negative rho (up, down):  1.950E-04 0.000E+00

     total cpu time spent up to now is      114.9 secs

     Self-consistent Calculation

     iteration #  1     ecut=    80.00 Ry     beta= 0.70
     Davidson diagonalization with overlap
     ethr =  1.00E-06,  avg # of iterations = 18.0

     negative rho (up, down):  6.735E-03 0.000E+00

     total cpu time spent up to now is      129.5 secs

     total energy              =   -2246.22654210 Ry
     estimated scf accuracy    <       0.25377640 Ry

     iteration #  2     ecut=    80.00 Ry     beta= 0.70
     Davidson diagonalization with overlap
     ethr =  8.13E-05,  avg # of iterations =  4.0

     negative rho (up, down):  1.069E-02 0.000E+00

     total cpu time spent up to now is      144.7 secs

     total energy              =   -2246.23426551 Ry
     estimated scf accuracy    <       0.12813361 Ry

     iteration #  3     ecut=    80.00 Ry     beta= 0.70
     Davidson diagonalization with overlap
     ethr =  4.11E-05,  avg # of iterations =  3.0

     negative rho (up, down):  1.644E-02 0.000E+00

     total cpu time spent up to now is      157.5 secs

     total energy              =   -2246.24054574 Ry
     estimated scf accuracy    <       0.02435948 Ry

     iteration #  4     ecut=    80.00 Ry     beta= 0.70
     Davidson diagonalization with overlap
     ethr =  7.81E-06,  avg # of iterations =  3.0

     negative rho (up, down):  1.822E-02 0.000E+00

     total cpu time spent up to now is      168.9 secs

     total energy              =   -2246.24168158 Ry
     estimated scf accuracy    <       0.00751350 Ry

     iteration #  5     ecut=    80.00 Ry     beta= 0.70
     Davidson diagonalization with overlap
     ethr =  2.41E-06,  avg # of iterations =  2.0

     negative rho (up, down):  1.793E-02 0.000E+00

     total cpu time spent up to now is      181.9 secs

     total energy              =   -2246.24114840 Ry
     estimated scf accuracy    <       0.00359163 Ry

     iteration #  6     ecut=    80.00 Ry     beta= 0.70
     Davidson diagonalization with overlap
     ethr =  1.15E-06,  avg # of iterations =  5.0

     negative rho (up, down):  1.626E-02 0.000E+00

     total cpu time spent up to now is      192.9 secs

     total energy              =   -2246.24157863 Ry
     estimated scf accuracy    <       0.00063271 Ry

     iteration #  7     ecut=    80.00 Ry     beta= 0.70
     Davidson diagonalization with overlap
     ethr =  2.03E-07,  avg # of iterations =  4.0

     negative rho (up, down):  1.276E-02 0.000E+00

     total cpu time spent up to now is      203.4 secs

     total energy              =   -2246.24151900 Ry
     estimated scf accuracy    <       0.00019206 Ry

     iteration #  8     ecut=    80.00 Ry     beta= 0.70
     Davidson diagonalization with overlap
     ethr =  6.16E-08,  avg # of iterations =  4.0

     negative rho (up, down):  9.455E-03 0.000E+00

     total cpu time spent up to now is      214.2 secs

     total energy              =   -2246.24149149 Ry
     estimated scf accuracy    <       0.00006866 Ry

     iteration #  9     ecut=    80.00 Ry     beta= 0.70
     Davidson diagonalization with overlap
     ethr =  2.20E-08,  avg # of iterations =  2.0

     negative rho (up, down):  5.625E-03 0.000E+00

     total cpu time spent up to now is      223.0 secs

     total energy              =   -2246.24143972 Ry
     estimated scf accuracy    <       0.00004320 Ry

     iteration # 10     ecut=    80.00 Ry     beta= 0.70
     Davidson diagonalization with overlap
     ethr =  1.38E-08,  avg # of iterations =  2.0

     negative rho (up, down):  3.235E-03 0.000E+00

     total cpu time spent up to now is      232.3 secs

     total energy              =   -2246.24141922 Ry
     estimated scf accuracy    <       0.00001020 Ry

     iteration # 11     ecut=    80.00 Ry     beta= 0.70
     Davidson diagonalization with overlap
     ethr =  3.27E-09,  avg # of iterations =  5.0

     negative rho (up, down):  2.271E-03 0.000E+00

     total cpu time spent up to now is      239.3 secs

     total energy              =   -2246.24141189 Ry
     estimated scf accuracy    <       0.00000565 Ry

     iteration # 12     ecut=    80.00 Ry     beta= 0.70
     Davidson diagonalization with overlap
     ethr =  1.81E-09,  avg # of iterations =  2.0

     negative rho (up, down):  5.859E-04 0.000E+00

     total cpu time spent up to now is      249.1 secs

     total energy              =   -2246.24140064 Ry
     estimated scf accuracy    <       0.00000280 Ry

     iteration # 13     ecut=    80.00 Ry     beta= 0.70
     Davidson diagonalization with overlap
     ethr =  8.96E-10,  avg # of iterations =  2.0

     negative rho (up, down):  1.922E-04 0.000E+00

     total cpu time spent up to now is      252.3 secs

     End of self-consistent calculation

          k = 0.0000 0.0000 0.0000 (105382 PWs)   bands (ev):

   -62.9973 -62.9820 -62.9753 -62.9711 -62.9472 -62.9204 -62.9186 -62.9140
   -62.9074 -62.9012 -62.8936 -62.8831 -37.3643 -37.3430 -37.2765 -37.2566
   -37.2459 -37.2278 -37.2141 -37.1909 -37.1794 -37.1746 -37.1682 -37.1582
   -37.1497 -37.1373 -37.1342 -37.1201 -37.1187 -37.1101 -37.1076 -37.0959
   -37.0905 -37.0888 -37.0783 -37.0688 -37.0521 -37.0415 -37.0356 -37.0211
   -37.0167 -36.9886 -36.9797 -36.9534 -36.9367 -36.9197 -36.8867 -36.8724
   -20.6732 -16.0511 -15.3006 -15.2297 -15.0987 -15.0368 -14.8553 -14.6930
   -14.6246 -14.5637 -14.4937 -14.4682 -14.4474 -14.4332 -14.3691 -14.2787
   -14.2318 -14.1799 -14.1548 -14.0007 -13.9720 -13.9681 -13.9410 -13.8344
    -7.9662  -7.8493  -7.7408  -7.5369  -7.4501  -7.3588  -7.3210  -7.2774
    -7.2733  -7.0437  -7.0144  -6.9073  -6.8512  -6.7802  -6.7043  -6.5931
    -6.5549  -6.5378  -6.4625  -6.3467  -6.1883  -6.1308  -6.0404  -6.0077
    -5.8802  -5.8686  -5.8499  -5.8128  -5.7972  -5.7639  -5.6914  -5.6805
    -5.6024  -5.5192  -5.5101  -5.3501  -5.2643  -5.2049  -5.1615  -5.1234
    -5.0764  -5.0634  -4.9768  -4.8984  -4.7061  -4.6454  -4.4547  -4.4351
    -4.3456  -4.2695  -4.1905  -4.1063  -4.0288  -4.0176  -3.9526  -3.9105
    -3.8469  -3.7459  -3.7133  -3.6940  -3.6533  -3.6380  -3.5816  -3.5273
    -3.4937  -3.4824  -3.3895  -3.2633  -3.1208  -3.0824  -3.0177  -2.9592
    -2.8945  -2.8737  -2.7905  -2.7816  -2.7777  -2.7323  -2.4801  -2.4398
    -2.1762  -2.0801  -2.0317  -1.6379  -1.2452  -0.8870  -0.5043  -0.2705
    -0.2246  -0.1845  -0.1326  -0.0453   0.0417   0.1018   0.1164   0.1421
     0.2235   0.2617   0.3498   0.3910   0.4305   0.4341   0.4695   0.5402
     0.5972   0.6245   0.6348   0.6969   0.7488   0.7731   0.8011   0.8352
     0.9020   0.9727   1.1631

     the Fermi energy is    -1.4415 ev

!    total energy              =   -2246.24140024 Ry
     estimated scf accuracy    <       0.00000047 Ry
     smearing contrib. (-TS)   =      -0.00140502 Ry
     internal energy E=F+TS    =   -2246.23999521 Ry

     The total energy is F=E-TS. E is the sum of the following terms:
     one-electron contribution =  -18482.86859944 Ry
     hartree contribution      =    9229.23322182 Ry
     xc contribution           =    -392.11824787 Ry
     ewald contribution        =    7409.37988672 Ry
     one-center paw contrib.   =      -9.86625645 Ry

     convergence has been achieved in  13 iterations

     negative rho (up, down):  1.922E-04 0.000E+00

     Forces acting on atoms (cartesian axes, Ry/au):

     atom    1 type  1   force =     0.00103630   -0.03626231   -0.01857728
     atom    2 type  2   force =    -0.01317922    0.01559041   -0.00045886
     atom    3 type  2   force =    -0.01028117    0.00816232   -0.00481358
     atom    4 type  1   force =     0.01363575    0.02742770   -0.04314505
     atom    5 type  2   force =     0.17657136   -0.07348683    0.14681689
     atom    6 type  2   force =    -0.00019779    0.00641465   -0.01237959
     atom    7 type  1   force =     0.00548798   -0.01828929   -0.00883724
     atom    8 type  2   force =     0.00158956   -0.01002528    0.01911161
     atom    9 type  2   force =     0.01569595    0.00127911    0.00879231
     atom   10 type  1   force =    -0.00918111    0.00649351   -0.02332935
     atom   11 type  2   force =     0.00669435   -0.00165476   -0.00722813
     atom   12 type  2   force =    -0.00112496    0.00192241    0.00474226
     atom   13 type  1   force =     0.00219531    0.00195424   -0.00427944
     atom   14 type  2   force =     0.00677790   -0.00246405    0.01534880
     atom   15 type  2   force =    -0.01275855    0.00201465   -0.00772706
     atom   16 type  1   force =    -0.04987440    0.06925546   -0.06000334
     atom   17 type  2   force =    -0.01357824   -0.00776116    0.00059953
     atom   18 type  2   force =    -0.00640599   -0.00817158    0.00857936
     atom   19 type  1   force =    -0.00102427   -0.00185071   -0.00400193
     atom   20 type  2   force =     0.00298895   -0.00345819   -0.00214845
     atom   21 type  1   force =    -0.00454905    0.00266363    0.00060794
     atom   22 type  2   force =    -0.00331825   -0.00218969   -0.00390775
     atom   23 type  2   force =    -0.00104310    0.00082085    0.00734325
     atom   24 type  1   force =    -0.00820314    0.00023615   -0.01418489
     atom   25 type  2   force =     0.01504373    0.01720390    0.00603619
     atom   26 type  2   force =    -0.00917578   -0.00146278   -0.00600583
     atom   27 type  1   force =    -0.00122427    0.00345918   -0.00132008
     atom   28 type  2   force =     0.01272836    0.00042499   -0.02321678
     atom   29 type  2   force =     0.00523544    0.00266258   -0.00016865
     atom   30 type  1   force =    -0.00451945    0.01023990   -0.00060453
     atom   31 type  2   force =    -0.00177820   -0.00004781    0.01569208
     atom   32 type  2   force =    -0.00509237    0.00545100    0.00544815
     atom   33 type  1   force =     0.01151460   -0.00588708   -0.00584271
     atom   34 type  2   force =     0.00173421   -0.03919034   -0.00980016
     atom   35 type  2   force =    -0.00726719    0.00767105    0.01185054
     atom   36 type  3   force =    -0.11515326    0.02085418    0.01101178
     The non-local contrib.  to forces
     atom    1 type  1   force =    -0.00670231    0.04576736   -0.00594141
     atom    2 type  2   force =     0.00020199   -0.01130991   -0.27366349
     atom    3 type  2   force =    -0.01029481   -0.00495932    0.26603713
     atom    4 type  1   force =     0.00460122   -0.00390489    0.01163623
     atom    5 type  2   force =     0.40100355   -0.01239926    0.28047246
     atom    6 type  2   force =    -0.00749297    0.00620931    0.25769953
     atom    7 type  1   force =    -0.00722569    0.00085780   -0.01556540
     atom    8 type  2   force =    -0.00169329    0.01172500   -0.26069739
     atom    9 type  2   force =     0.00494246   -0.01214748    0.27973608
     atom   10 type  1   force =     0.00698257    0.00550044   -0.00241051
     atom   11 type  2   force =     0.01301737    0.00391151   -0.26139234
     atom   12 type  2   force =    -0.01336651   -0.01921545    0.26317299
     atom   13 type  1   force =    -0.00780037    0.01619014   -0.00871853
     atom   14 type  2   force =     0.01345395   -0.00690401   -0.26845574
     atom   15 type  2   force =    -0.01184287   -0.00630715    0.26013442
     atom   16 type  1   force =     0.01046780    0.02416577    0.01747586
     atom   17 type  2   force =    -0.01683663   -0.02816454   -0.25068763
     atom   18 type  2   force =    -0.00730767   -0.00821979    0.26921899
     atom   19 type  1   force =     0.00105742    0.00193776   -0.01738472
     atom   20 type  2   force =    -0.00005631   -0.02116161    0.26586561
     atom   21 type  1   force =     0.00537179    0.03191553    0.00616039
     atom   22 type  2   force =    -0.00640580    0.00361742   -0.25757552
     atom   23 type  2   force =     0.00654291   -0.01554104    0.26639532
     atom   24 type  1   force =     0.00608195    0.01172678   -0.00996882
     atom   25 type  2   force =     0.01251489    0.00405905   -0.26497066
     atom   26 type  2   force =    -0.00188481   -0.01174792    0.26548986
     atom   27 type  1   force =    -0.01479894   -0.00049557    0.01253833
     atom   28 type  2   force =     0.01878664   -0.02700218   -0.25138829
     atom   29 type  2   force =     0.00594861   -0.00082425    0.26040410
     atom   30 type  1   force =    -0.00257507    0.01397552    0.00851475
     atom   31 type  2   force =    -0.00695551    0.00297392   -0.25376290
     atom   32 type  2   force =    -0.00108234   -0.00599823    0.27386713
     atom   33 type  1   force =    -0.00564453    0.01076255    0.00584609
     atom   34 type  2   force =    -0.00159348   -0.03340502   -0.27432332
     atom   35 type  2   force =    -0.00315316   -0.01059606    0.26931604
     atom   36 type  3   force =    -1.28646385    0.18807738   -1.11176679
     The ionic contribution  to forces
     atom    1 type  1   force =    -0.15632703   -2.67047012    2.16010318
     atom    2 type  2   force =    -0.22166173   -1.32646005   38.72144040
     atom    3 type  2   force =    -0.05239389   -0.31973087  -36.89124019
     atom    4 type  1   force =     1.67927052    2.09812811   -4.92075643
     atom    5 type  2   force =    -4.73936732    1.82185325   32.70920619
     atom    6 type  2   force =     0.21023824   -0.61484106  -39.39949025
     atom    7 type  1   force =    -2.87423251   -1.26685199    1.04894516
     atom    8 type  2   force =    -0.58947020    1.72952642   36.72204879
     atom    9 type  2   force =     0.44666743    0.35996132  -38.85128981
     atom   10 type  1   force =    -0.86331117   -0.86935395    4.51501585
     atom   11 type  2   force =    -0.65180930   -1.53698995   38.96722709
     atom   12 type  2   force =     0.39170832    0.69551957  -38.36613290
     atom   13 type  1   force =    -0.17548183    0.13462523    1.49470283
     atom   14 type  2   force =    -0.52594714   -0.89397333   38.29415719
     atom   15 type  2   force =     0.00085214   -0.34402783  -37.51436853
     atom   16 type  1   force =    -2.78879859    5.43285487   -3.16945132
     atom   17 type  2   force =     0.06533846    1.48383691   37.68761199
     atom   18 type  2   force =    -0.30648857   -0.65034515  -39.28343843
     atom   19 type  1   force =     2.43012601   -1.76688330   -0.36599047
     atom   20 type  2   force =     0.05126071    0.08660584  -39.22084509
     atom   21 type  1   force =    -0.26381890   -0.38766599    0.24991769
     atom   22 type  2   force =     0.38041191   -1.67580064   38.31643361
     atom   23 type  2   force =    -0.11384945    0.66764589  -38.73893268
     atom   24 type  1   force =     0.76210617   -0.22922733    3.65616538
     atom   25 type  2   force =     0.85578858   -0.18955633   39.07926113
     atom   26 type  2   force =    -0.22595445   -0.11404494  -37.88871269
     atom   27 type  1   force =     0.55661876    0.80974962   -3.80799953
     atom   28 type  2   force =     2.62890740    1.04816691   36.82517953
     atom   29 type  2   force =     0.04904067   -0.48198207  -38.20516110
     atom   30 type  1   force =     0.18466323   -0.00725025   -1.24699087
     atom   31 type  2   force =     1.43661179    0.39763882   37.11864765
     atom   32 type  2   force =    -0.41829747    0.15327988  -39.20035916
     atom   33 type  1   force =     0.88423852   -1.08165918    1.25642439
     atom   34 type  2   force =     0.38640181   -1.38177689   39.19904866
     atom   35 type  2   force =    -0.22148374    0.50055707  -38.28535312
     atom   36 type  3   force =     1.78844263    0.38894152   47.33497587
     The local contribution  to forces
     atom    1 type  1   force =     0.16378469    2.58860780   -2.17263905
     atom    2 type  2   force =     0.20853175    1.35251976  -38.46912628
     atom    3 type  2   force =     0.05187271    0.33272875   36.64087962
     atom    4 type  1   force =    -1.67057694   -2.06657331    4.86604699
     atom    5 type  2   force =     4.53673557   -1.88350732  -32.83602153
     atom    6 type  2   force =    -0.20360780    0.61601946   39.14982152
     atom    7 type  1   force =     2.88686846    1.24745173   -1.04192469
     atom    8 type  2   force =     0.59243513   -1.75078706  -36.46293704
     atom    9 type  2   force =    -0.43594898   -0.34727678   38.60128005
     atom   10 type  1   force =     0.84699329    0.87034524   -4.53566518
     atom   11 type  2   force =     0.64602814    1.53182204  -38.73365323
     atom   12 type  2   force =    -0.38067126   -0.67590923   38.12829860
     atom   13 type  1   force =     0.18577534   -0.14853562   -1.49003592
     atom   14 type  2   force =     0.51998275    0.89866045  -38.03111024
     atom   15 type  2   force =    -0.00241611    0.35201091   37.26686568
     atom   16 type  1   force =     2.72857243   -5.38774527    3.09229599
     atom   17 type  2   force =    -0.06262678   -1.46487607  -37.45648346
     atom   18 type  2   force =     0.30726683    0.65070856   39.04343630
     atom   19 type  1   force =    -2.43188624    1.76273745    0.37951546
     atom   20 type  2   force =    -0.04828716   -0.06986083   38.97387606
     atom   21 type  1   force =     0.25407688    0.35837565   -0.25531471
     atom   22 type  2   force =    -0.37733968    1.67037840  -38.08319306
     atom   23 type  2   force =     0.10685632   -0.65265159   38.50041309
     atom   24 type  1   force =    -0.77643494    0.21782550   -3.66006187
     atom   25 type  2   force =    -0.85295297    0.20317480  -38.82902380
     atom   26 type  2   force =     0.21889127    0.12374455   37.63790780
     atom   27 type  1   force =    -0.54281098   -0.80576055    3.79440299
     atom   28 type  2   force =    -2.63302987   -1.02268552  -36.61711444
     atom   29 type  2   force =    -0.04924559    0.48603254   37.96477879
     atom   30 type  1   force =    -0.18684342    0.00333307    1.23801370
     atom   31 type  2   force =    -1.43176416   -0.40073945  -36.86958957
     atom   32 type  2   force =     0.41457533   -0.14224182   38.95272541
     atom   33 type  1   force =    -0.86710508    1.06496650   -1.26803033
     atom   34 type  2   force =    -0.38353888    1.37492289  -38.95557134
     atom   35 type  2   force =     0.21738892   -0.48329330   38.04860836
     atom   36 type  3   force =    -0.63152366   -0.55397146  -46.22351084
     The core correction contribution to forces
     atom    1 type  1   force =     0.00000000    0.00000000    0.00000000
     atom    2 type  2   force =    -0.00029260    0.00084796    0.02117503
     atom    3 type  2   force =     0.00047339    0.00012710   -0.02072129
     atom    4 type  1   force =     0.00000000    0.00000000    0.00000000
     atom    5 type  2   force =    -0.02201469    0.00070917   -0.00678819
     atom    6 type  2   force =     0.00053767   -0.00089739   -0.02057833
     atom    7 type  1   force =     0.00000000    0.00000000    0.00000000
     atom    8 type  2   force =     0.00022302   -0.00047190    0.02098217
     atom    9 type  2   force =    -0.00001430    0.00075396   -0.02118187
     atom   10 type  1   force =     0.00000000    0.00000000    0.00000000
     atom   11 type  2   force =    -0.00053875   -0.00047448    0.02074993
     atom   12 type  2   force =     0.00117965    0.00148931   -0.02085310
     atom   13 type  1   force =     0.00000000    0.00000000    0.00000000
     atom   14 type  2   force =    -0.00065549   -0.00017340    0.02095290
     atom   15 type  2   force =     0.00068685    0.00038094   -0.02056191
     atom   16 type  1   force =     0.00000000    0.00000000    0.00000000
     atom   17 type  2   force =     0.00067640    0.00153233    0.02027810
     atom   18 type  2   force =     0.00022471   -0.00023471   -0.02081629
     atom   19 type  1   force =     0.00000000    0.00000000    0.00000000
     atom   20 type  2   force =     0.00009588    0.00087140   -0.02122897
     atom   21 type  1   force =     0.00000000    0.00000000    0.00000000
     atom   22 type  2   force =     0.00012524   -0.00043770    0.02055184
     atom   23 type  2   force =    -0.00053775    0.00132283   -0.02083258
     atom   24 type  1   force =     0.00000000    0.00000000    0.00000000
     atom   25 type  2   force =    -0.00032983   -0.00038316    0.02094716
     atom   26 type  2   force =    -0.00021883    0.00061586   -0.02096339
     atom   27 type  1   force =     0.00000000    0.00000000    0.00000000
     atom   28 type  2   force =    -0.00190121    0.00197499    0.02041800
     atom   29 type  2   force =    -0.00050056   -0.00052244   -0.02045522
     atom   30 type  1   force =     0.00000000    0.00000000    0.00000000
     atom   31 type  2   force =     0.00034084   -0.00003006    0.02054188
     atom   32 type  2   force =    -0.00027266    0.00038397   -0.02104657
     atom   33 type  1   force =     0.00000000    0.00000000    0.00000000
     atom   34 type  2   force =     0.00035960    0.00102220    0.02120649
     atom   35 type  2   force =    -0.00005873    0.00094401   -0.02101778
     atom   36 type  3   force =     0.01456788   -0.00215820    0.01186139
     The Hubbard contrib.    to forces
     atom    1 type  1   force =     0.00000000    0.00000000    0.00000000
     atom    2 type  2   force =     0.00000000    0.00000000    0.00000000
     atom    3 type  2   force =     0.00000000    0.00000000    0.00000000
     atom    4 type  1   force =     0.00000000    0.00000000    0.00000000
     atom    5 type  2   force =     0.00000000    0.00000000    0.00000000
     atom    6 type  2   force =     0.00000000    0.00000000    0.00000000
     atom    7 type  1   force =     0.00000000    0.00000000    0.00000000
     atom    8 type  2   force =     0.00000000    0.00000000    0.00000000
     atom    9 type  2   force =     0.00000000    0.00000000    0.00000000
     atom   10 type  1   force =     0.00000000    0.00000000    0.00000000
     atom   11 type  2   force =     0.00000000    0.00000000    0.00000000
     atom   12 type  2   force =     0.00000000    0.00000000    0.00000000
     atom   13 type  1   force =     0.00000000    0.00000000    0.00000000
     atom   14 type  2   force =     0.00000000    0.00000000    0.00000000
     atom   15 type  2   force =     0.00000000    0.00000000    0.00000000
     atom   16 type  1   force =     0.00000000    0.00000000    0.00000000
     atom   17 type  2   force =     0.00000000    0.00000000    0.00000000
     atom   18 type  2   force =     0.00000000    0.00000000    0.00000000
     atom   19 type  1   force =     0.00000000    0.00000000    0.00000000
     atom   20 type  2   force =     0.00000000    0.00000000    0.00000000
     atom   21 type  1   force =     0.00000000    0.00000000    0.00000000
     atom   22 type  2   force =     0.00000000    0.00000000    0.00000000
     atom   23 type  2   force =     0.00000000    0.00000000    0.00000000
     atom   24 type  1   force =     0.00000000    0.00000000    0.00000000
     atom   25 type  2   force =     0.00000000    0.00000000    0.00000000
     atom   26 type  2   force =     0.00000000    0.00000000    0.00000000
     atom   27 type  1   force =     0.00000000    0.00000000    0.00000000
     atom   28 type  2   force =     0.00000000    0.00000000    0.00000000
     atom   29 type  2   force =     0.00000000    0.00000000    0.00000000
     atom   30 type  1   force =     0.00000000    0.00000000    0.00000000
     atom   31 type  2   force =     0.00000000    0.00000000    0.00000000
     atom   32 type  2   force =     0.00000000    0.00000000    0.00000000
     atom   33 type  1   force =     0.00000000    0.00000000    0.00000000
     atom   34 type  2   force =     0.00000000    0.00000000    0.00000000
     atom   35 type  2   force =     0.00000000    0.00000000    0.00000000
     atom   36 type  3   force =     0.00000000    0.00000000    0.00000000
     The SCF correction term to forces
     atom    1 type  1   force =     0.00027801   -0.00016697   -0.00011800
     atom    2 type  2   force =     0.00003843   -0.00000697   -0.00030253
     atom    3 type  2   force =     0.00005848   -0.00000296    0.00021315
     atom    4 type  1   force =     0.00033801   -0.00022183   -0.00008983
     atom    5 type  2   force =     0.00021132   -0.00014230   -0.00007002
     atom    6 type  2   force =     0.00012414   -0.00007527    0.00014995
     atom    7 type  1   force =     0.00007478    0.00025354   -0.00031031
     atom    8 type  2   force =     0.00009196   -0.00001736   -0.00030292
     atom    9 type  2   force =     0.00004640   -0.00001153    0.00022987
     atom   10 type  1   force =     0.00015126    0.00000216   -0.00028751
     atom   11 type  2   force =    -0.00000604    0.00007650   -0.00017758
     atom   12 type  2   force =     0.00002189    0.00003859    0.00023867
     atom   13 type  1   force =    -0.00030076   -0.00032513   -0.00024580
     atom   14 type  2   force =    -0.00005911   -0.00007338   -0.00021330
     atom   15 type  2   force =    -0.00004149   -0.00004184    0.00018529
     atom   16 type  1   force =    -0.00011897   -0.00001953   -0.00034186
     atom   17 type  2   force =    -0.00013263   -0.00008941   -0.00013746
     atom   18 type  2   force =    -0.00010423   -0.00008011    0.00016080
     atom   19 type  1   force =    -0.00032440    0.00035776   -0.00016019
     atom   20 type  2   force =    -0.00002711    0.00008739    0.00016595
     atom   21 type  1   force =    -0.00018176    0.00003882   -0.00017341
     atom   22 type  2   force =    -0.00011286    0.00005322   -0.00014261
     atom   23 type  2   force =    -0.00005807    0.00004515    0.00028212
     atom   24 type  1   force =     0.00004075   -0.00008843   -0.00033757
     atom   25 type  2   force =     0.00002012   -0.00009007   -0.00019563
     atom   26 type  2   force =    -0.00001190   -0.00002994    0.00025459
     atom   27 type  1   force =    -0.00023603   -0.00003394   -0.00027987
     atom   28 type  2   force =    -0.00003754   -0.00002884   -0.00032957
     atom   29 type  2   force =    -0.00001064   -0.00004082    0.00024679
     atom   30 type  1   force =     0.00023286    0.00018195   -0.00016011
     atom   31 type  2   force =    -0.00001410    0.00010935   -0.00016297
     atom   32 type  2   force =    -0.00001816    0.00002758    0.00024335
     atom   33 type  1   force =     0.00002275    0.00004343   -0.00010085
     atom   34 type  2   force =     0.00010222    0.00004686   -0.00017864
     atom   35 type  2   force =     0.00003659    0.00005972    0.00027905
     atom   36 type  3   force =    -0.00017919   -0.00003466   -0.00056584

     Total force =     0.309052     Total SCF correction =     0.001835
     Energy error            =      4.6E-01 Ry
     Gradient error          =      1.8E-01 Ry/Bohr

     number of scf cycles    =   2
     number of bfgs steps    =   1

     energy             old  =   -2245.7786297678 Ry
     energy             new  =   -2246.2414002378 Ry

     CASE: energy            _new < energy            _old

     new trust radius        =       0.1206668481 bohr
     new conv_thr            =       0.0000001766 Ry


ATOMIC_POSITIONS (angstrom)
Mo            6.5761817264        1.7656625011        2.8134602888
S             8.1681044431        0.8196791148        4.4347644168
S             8.1867259656        0.8166903409        1.2748051953
Mo            8.1020006849        4.5156983300        2.6786007929
S             6.3614682480        3.6986903656        4.1958311677
S             6.5531870332        3.5165480997        1.1150087362
Mo            6.4936081668        7.2053266391        2.6656043839
S             8.0825519535        6.3380362972        4.2561325683
S             8.0912503805        6.3057666298        1.0905850880
Mo            8.1539789109        9.9065834973        2.8276679241
S             6.4992964978        8.9417904842        4.3784729588
S             6.6173574605        9.0500753659        1.1432762144
Mo            3.4231280468        1.7482023108        2.7742258054
S             4.9795627003        0.8157099411        4.3602883730
S             5.0488667278        0.8475456173        1.2214689726
Mo            4.9580089095        4.5541655860        2.6075287308
S             3.4204976952        3.6669534299        4.2793357250
S             3.4340112162        3.5429226128        1.0641136308
Mo            3.4533170521        7.2142259397        2.6280821142
S             4.9850884741        6.3237019737        1.0361760786
Mo            5.0091800310        9.9037750715        2.7437467701
S             3.4687930191        8.9423569522        4.3228241044
S             3.4077959527        9.0655365982        1.1010804972
Mo            0.2906357137        1.7474659648        2.8395272909
S             1.8604342030        0.8040646747        4.4022346178
S             1.8545620813        0.8535999723        1.2056207613
Mo            1.8594549149        4.4971646720        2.6603688284
S             0.2845065143        3.6544952865        4.3231446261
S             0.2346989102        3.5285846504        1.1720826138
Mo            0.2687198829        7.2236793105        2.7002650180
S             1.9012596242        6.3128108222        4.2327760618
S             1.8586808807        6.3143018531        1.0484392410
Mo            1.8520724537        9.9362376013        2.7689392380
S             0.2973030510        9.0639573369        4.4074919625
S             0.2719702717        9.0485385612        1.1584913276
O             7.5193449922        3.6333686727        5.3582854518



     Writing config-only to output data dir ./MoS2-V-O.save/
     NEW-OLD atomic charge density approx. for the potential

     negative rho (up, down):  1.569E-04 0.000E+00

     total cpu time spent up to now is      259.3 secs

     Self-consistent Calculation

     iteration #  1     ecut=    80.00 Ry     beta= 0.70
     Davidson diagonalization with overlap
     c_bands:  1 eigenvalues not converged
     ethr =  1.00E-06,  avg # of iterations = 20.0

     negative rho (up, down):  3.222E-04 0.000E+00

     total cpu time spent up to now is      272.8 secs

     total energy              =   -2246.28509571 Ry
     estimated scf accuracy    <       0.01429999 Ry

     iteration #  2     ecut=    80.00 Ry     beta= 0.70
     Davidson diagonalization with overlap
     ethr =  4.58E-06,  avg # of iterations =  4.0

     negative rho (up, down):  4.782E-04 0.000E+00

     total cpu time spent up to now is      284.6 secs

     total energy              =   -2246.28661670 Ry
     estimated scf accuracy    <       0.00401305 Ry

     iteration #  3     ecut=    80.00 Ry     beta= 0.70
     Davidson diagonalization with overlap
     ethr =  1.29E-06,  avg # of iterations =  3.0

     negative rho (up, down):  6.533E-04 0.000E+00

     total cpu time spent up to now is      297.7 secs

     total energy              =   -2246.28690384 Ry
     estimated scf accuracy    <       0.00040221 Ry

     iteration #  4     ecut=    80.00 Ry     beta= 0.70
     Davidson diagonalization with overlap
     ethr =  1.29E-07,  avg # of iterations =  4.0

     negative rho (up, down):  6.816E-04 0.000E+00

     total cpu time spent up to now is      311.3 secs

     total energy              =   -2246.28696926 Ry
     estimated scf accuracy    <       0.00003938 Ry

     iteration #  5     ecut=    80.00 Ry     beta= 0.70
     Davidson diagonalization with overlap
     ethr =  1.26E-08,  avg # of iterations =  5.0

     negative rho (up, down):  6.588E-04 0.000E+00

     total cpu time spent up to now is      327.6 secs

     total energy              =   -2246.28698159 Ry
     estimated scf accuracy    <       0.00001398 Ry

     iteration #  6     ecut=    80.00 Ry     beta= 0.70
     Davidson diagonalization with overlap
     ethr =  4.48E-09,  avg # of iterations =  2.0

     negative rho (up, down):  5.963E-04 0.000E+00

     total cpu time spent up to now is      337.4 secs

     total energy              =   -2246.28698222 Ry
     estimated scf accuracy    <       0.00000342 Ry

     iteration #  7     ecut=    80.00 Ry     beta= 0.70
     Davidson diagonalization with overlap
     ethr =  1.10E-09,  avg # of iterations =  3.0

     negative rho (up, down):  5.321E-04 0.000E+00

     total cpu time spent up to now is      347.9 secs

     total energy              =   -2246.28698273 Ry
     estimated scf accuracy    <       0.00000064 Ry

     iteration #  8     ecut=    80.00 Ry     beta= 0.70
     Davidson diagonalization with overlap
     ethr =  2.06E-10,  avg # of iterations =  5.0

     negative rho (up, down):  4.287E-04 0.000E+00

     total cpu time spent up to now is      360.8 secs

     total energy              =   -2246.28698274 Ry
     estimated scf accuracy    <       0.00000025 Ry

     iteration #  9     ecut=    80.00 Ry     beta= 0.70
     Davidson diagonalization with overlap
     ethr =  8.09E-11,  avg # of iterations =  2.0

     negative rho (up, down):  1.958E-04 0.000E+00

     total cpu time spent up to now is      364.1 secs

     End of self-consistent calculation

          k = 0.0000 0.0000 0.0000 (105382 PWs)   bands (ev):

   -63.0066 -62.9929 -62.9840 -62.9638 -62.9584 -62.9449 -62.9295 -62.9285
   -62.9185 -62.9125 -62.9046 -62.8834 -37.3706 -37.3370 -37.2754 -37.2595
   -37.2515 -37.2326 -37.2217 -37.2019 -37.1990 -37.1834 -37.1758 -37.1681
   -37.1574 -37.1441 -37.1406 -37.1281 -37.1237 -37.1182 -37.1143 -37.1080
   -37.0993 -37.0952 -37.0822 -37.0649 -37.0579 -37.0518 -37.0430 -37.0270
   -37.0206 -37.0072 -36.9843 -36.9660 -36.9524 -36.9317 -36.9139 -36.8812
   -20.8559 -16.0599 -15.2889 -15.2438 -15.0856 -15.0443 -14.8620 -14.6488
   -14.6099 -14.5736 -14.5072 -14.4816 -14.4584 -14.4480 -14.3849 -14.2734
   -14.2412 -14.1871 -14.1646 -13.9906 -13.9871 -13.9708 -13.9672 -13.8031
    -7.9065  -7.7875  -7.6781  -7.5315  -7.4549  -7.3624  -7.3343  -7.3020
    -7.2908  -7.0426  -6.9851  -6.9203  -6.8527  -6.7941  -6.7201  -6.6182
    -6.5639  -6.5469  -6.4713  -6.3546  -6.1825  -6.1340  -6.0546  -6.0125
    -5.8949  -5.8827  -5.8611  -5.8289  -5.8196  -5.7738  -5.7169  -5.6900
    -5.6170  -5.5177  -5.5075  -5.3181  -5.2739  -5.2002  -5.1693  -5.1300
    -5.1071  -5.0804  -4.9867  -4.9025  -4.7247  -4.6531  -4.4694  -4.4369
    -4.3544  -4.2940  -4.2081  -4.1374  -4.0560  -4.0146  -3.9616  -3.9139
    -3.8625  -3.7629  -3.7161  -3.6978  -3.6550  -3.6463  -3.5802  -3.5559
    -3.5139  -3.4910  -3.4021  -3.2795  -3.0879  -3.0797  -3.0355  -2.9423
    -2.8990  -2.8726  -2.8147  -2.8066  -2.7881  -2.7336  -2.5008  -2.4562
    -2.1963  -2.0925  -2.0515  -1.7089  -1.1855  -0.9097  -0.5295  -0.3005
    -0.2162  -0.1771  -0.1435  -0.0297   0.0350   0.1054   0.1162   0.1337
     0.2151   0.2562   0.3362   0.3883   0.4173   0.4346   0.4618   0.5587
     0.5970   0.6255   0.6330   0.6586   0.7369   0.7623   0.7926   0.8278
     0.9230   0.9875   1.1533

     the Fermi energy is    -1.4472 ev

!    total energy              =   -2246.28698280 Ry
     estimated scf accuracy    <       0.00000010 Ry
     smearing contrib. (-TS)   =      -0.00027911 Ry
     internal energy E=F+TS    =   -2246.28670370 Ry

     The total energy is F=E-TS. E is the sum of the following terms:
     one-electron contribution =  -18469.79168210 Ry
     hartree contribution      =    9222.60311965 Ry
     xc contribution           =    -392.09791289 Ry
     ewald contribution        =    7402.86429673 Ry
     one-center paw contrib.   =      -9.86452509 Ry

     convergence has been achieved in   9 iterations

     negative rho (up, down):  1.958E-04 0.000E+00

     Forces acting on atoms (cartesian axes, Ry/au):

     atom    1 type  1   force =     0.00015678   -0.02189744   -0.01084389
     atom    2 type  2   force =    -0.00980367    0.01079048   -0.00374668
     atom    3 type  2   force =    -0.00769680    0.00585853   -0.01136696
     atom    4 type  1   force =     0.00245181    0.01246767   -0.02459430
     atom    5 type  2   force =     0.15133362   -0.04222513    0.09276692
     atom    6 type  2   force =    -0.00406420    0.00747607   -0.00770456
     atom    7 type  1   force =     0.00571447   -0.01260872   -0.00136958
     atom    8 type  2   force =     0.00007662   -0.01073033    0.01151486
     atom    9 type  2   force =     0.01450381    0.00921604   -0.00116979
     atom   10 type  1   force =    -0.00293082    0.00627347   -0.00855204
     atom   11 type  2   force =     0.00543362   -0.00303033   -0.00966529
     atom   12 type  2   force =    -0.00323727   -0.00000480    0.00153490
     atom   13 type  1   force =     0.00431944    0.00287794   -0.00066021
     atom   14 type  2   force =     0.00484474   -0.00240423    0.00879083
     atom   15 type  2   force =    -0.01285114   -0.00094686   -0.00982804
     atom   16 type  1   force =    -0.01180566    0.02494345    0.00316721
     atom   17 type  2   force =    -0.00355480   -0.00025784   -0.00357539
     atom   18 type  2   force =    -0.00647131   -0.00589811    0.00259840
     atom   19 type  1   force =    -0.00060150   -0.00682716   -0.00301728
     atom   20 type  2   force =    -0.00029325    0.00673679   -0.01522456
     atom   21 type  1   force =    -0.00372222    0.00306800    0.00246203
     atom   22 type  2   force =    -0.00182025   -0.00249504   -0.00374717
     atom   23 type  2   force =     0.00024577    0.00089182    0.00443372
     atom   24 type  1   force =    -0.00613291   -0.00039697   -0.00782256
     atom   25 type  2   force =     0.01011042    0.01250132    0.00088425
     atom   26 type  2   force =    -0.00679014   -0.00181985   -0.00538039
     atom   27 type  1   force =     0.00084044    0.00229560    0.00291460
     atom   28 type  2   force =     0.00402851    0.00235776   -0.02156740
     atom   29 type  2   force =     0.00604509    0.00125183   -0.00771448
     atom   30 type  1   force =    -0.00458372    0.00405181    0.00382698
     atom   31 type  2   force =    -0.00168438   -0.00015863    0.01163205
     atom   32 type  2   force =    -0.00544478    0.00731271    0.00322202
     atom   33 type  1   force =     0.00499959   -0.00118877    0.00021144
     atom   34 type  2   force =    -0.00045069   -0.02912941   -0.01294906
     atom   35 type  2   force =    -0.00501048    0.00788735    0.00650651
     atom   36 type  3   force =    -0.11615473    0.01376098    0.01403290
     The non-local contrib.  to forces
     atom    1 type  1   force =    -0.00609319    0.03982501   -0.00804493
     atom    2 type  2   force =     0.00161957   -0.01381601   -0.27532940
     atom    3 type  2   force =    -0.00891042   -0.00678141    0.26206763
     atom    4 type  1   force =     0.00019729   -0.00073463    0.01944764
     atom    5 type  2   force =     0.35344843    0.01926609    0.25275555
     atom    6 type  2   force =    -0.01076820    0.00948154    0.26613997
     atom    7 type  1   force =    -0.00687416   -0.00059688   -0.01976343
     atom    8 type  2   force =    -0.00099970    0.01272508   -0.26354419
     atom    9 type  2   force =     0.00305496   -0.00681173    0.27222399
     atom   10 type  1   force =     0.00694936    0.00559142   -0.00390054
     atom   11 type  2   force =     0.01132981    0.00183043   -0.26348162
     atom   12 type  2   force =    -0.01469580   -0.02057152    0.26256182
     atom   13 type  1   force =    -0.00594121    0.01758011   -0.00884382
     atom   14 type  2   force =     0.01145113   -0.00751152   -0.27098530
     atom   15 type  2   force =    -0.01211919   -0.00873643    0.25821400
     atom   16 type  1   force =    -0.00218458    0.03092431   -0.00393352
[...]
     atom   28 type  2   force =     0.00255555   -0.00600223   -0.27886902
     atom   29 type  2   force =     0.00008984   -0.00821749    0.26498604
     atom   30 type  1   force =     0.00075823    0.01981917    0.00751217
     atom   31 type  2   force =    -0.00808391   -0.00091927   -0.27062641
     atom   32 type  2   force =     0.00754535   -0.01645217    0.26951874
     atom   33 type  1   force =    -0.00259112    0.00636301    0.00251600
     atom   34 type  2   force =    -0.00060665   -0.00932225   -0.27492153
     atom   35 type  2   force =    -0.00058383   -0.01359684    0.26759039
     atom   36 type  3   force =    -0.02954954   -0.01915906   -2.31886053
     The ionic contribution  to forces
     atom    1 type  1   force =    -0.18003353   -0.48548489   -1.92676572
     atom    2 type  2   force =     0.42180818   -0.92980708   38.19523128
     atom    3 type  2   force =     0.16308875   -0.14209718  -38.42911797
     atom    4 type  1   force =     0.75973934    0.92472193   -3.78344051
     atom    5 type  2   force =    -0.95069907    1.03560572   28.08315021
     atom    6 type  2   force =     0.11974091   -0.35283205  -38.60754229
     atom    7 type  1   force =    -2.68532268   -0.99069291    1.17234535
     atom    8 type  2   force =    -0.64583988    1.24230419   37.54695564
     atom    9 type  2   force =     0.31645631    0.15495319  -38.74162828
     atom   10 type  1   force =    -0.29966496   -0.92691041    1.46575459
     atom   11 type  2   force =    -0.43966048   -1.34929370   38.23079301
     atom   12 type  2   force =     0.15274123    0.33216938  -38.31669627
     atom   13 type  1   force =    -0.49876877    0.04325248    1.78273672
     atom   14 type  2   force =    -0.55943317   -1.03567240   38.06076400
     atom   15 type  2   force =    -0.18172051   -0.20618411  -38.20476915
     atom   16 type  1   force =    -0.52248368    3.82425261   -1.79970665
     atom   17 type  2   force =    -0.25157355    1.08795715   37.81496050
     atom   18 type  2   force =    -0.26372604   -0.46482279  -38.69549533
     atom   19 type  1   force =     2.41256618   -1.13838694    1.33784199
     atom   20 type  2   force =    -0.00084391    0.16513658  -39.45232384
     atom   21 type  1   force =    -0.24637024   -0.79194105    0.62212587
     atom   22 type  2   force =     0.36782929   -1.39978495   38.38830743
     atom   23 type  2   force =    -0.20127837    0.34896492  -38.28057597
     atom   24 type  1   force =     0.63812295   -0.14709552    0.75101718
     atom   25 type  2   force =     0.17068818   -0.25784116   38.60262421
     atom   26 type  2   force =     0.03560226   -0.15727615  -37.85857592
     atom   27 type  1   force =     0.00902851    0.52835591   -0.34468909
     atom   28 type  2   force =     0.97004509    0.41013810   37.44496212
     atom   29 type  2   force =     0.10221250   -0.14393079  -38.42630907
     atom   30 type  1   force =     0.30941996   -0.08815366    0.87445582
     atom   31 type  2   force =     1.10018339    0.51228066   38.02351887
     atom   32 type  2   force =    -0.34641029    0.05977653  -38.42010272
     atom   33 type  1   force =     0.46332557   -0.46831623    2.23977599
     atom   34 type  2   force =     0.12029226   -0.44371142   38.67044563
     atom   35 type  2   force =     0.09183092    0.17012929  -38.00940940
     atom   36 type  3   force =    -0.45089269    1.08023678   49.98938175
     The local contribution  to forces
     atom    1 type  1   force =     0.17950783    0.45688168    1.91925033
     atom    2 type  2   force =    -0.42078714    0.93852944  -37.94518741
     atom    3 type  2   force =    -0.15990749    0.15144880   38.18387630
     atom    4 type  1   force =    -0.75247661   -0.92122473    3.75882270
     atom    5 type  2   force =     0.93604127   -1.03584082  -28.37295551
     atom    6 type  2   force =    -0.12013237    0.35690977   38.35195408
     atom    7 type  1   force =     2.69679226    0.98961948   -1.14910946
     atom    8 type  2   force =     0.63936237   -1.24235389  -37.29824482
     atom    9 type  2   force =    -0.31086423   -0.14179508   38.49271959
     atom   10 type  1   force =     0.29193495    0.92207010   -1.46535326
     atom   11 type  2   force =     0.43525761    1.34949126  -37.99082006
     atom   12 type  2   force =    -0.14437079   -0.31869544   38.07160563
     atom   13 type  1   force =     0.49639864   -0.06847429   -1.77599064
     atom   14 type  2   force =     0.55962126    1.04458309  -37.80860378
     atom   15 type  2   force =     0.17986287    0.21604540   37.96333003
     atom   16 type  1   force =     0.51459250   -3.84705819    1.82210060
     atom   17 type  2   force =     0.25081168   -1.07308631  -37.57561373
     atom   18 type  2   force =     0.26476187    0.46622453   38.45359984
     atom   19 type  1   force =    -2.43037636    1.12491573   -1.31806244
     atom   20 type  2   force =     0.00114497   -0.15279698   39.21105777
     atom   21 type  1   force =     0.24786673    0.76812824   -0.62560888
     atom   22 type  2   force =    -0.36291337    1.40010625  -38.14847186
     atom   23 type  2   force =     0.19449821   -0.33434691   38.03851003
     atom   24 type  1   force =    -0.63579615    0.13112389   -0.74981286
     atom   25 type  2   force =    -0.17136742    0.26646009  -38.35418193
     atom   26 type  2   force =    -0.03765821    0.16638404   37.61091009
     atom   27 type  1   force =    -0.00566318   -0.53799897    0.33231846
     atom   28 type  2   force =    -0.97227383   -0.40429355  -37.18743438
     atom   29 type  2   force =    -0.10232117    0.15209721   38.18196561
     atom   30 type  1   force =    -0.31017458    0.06830051   -0.88126996
     atom   31 type  2   force =    -1.09278123   -0.51175431  -37.77451654
     atom   32 type  2   force =     0.33933038   -0.04431492   38.17112193
     atom   33 type  1   force =    -0.46019276    0.46222840   -2.24167477
     atom   34 type  2   force =    -0.11923206    0.45276044  -38.41622325
     atom   35 type  2   force =    -0.09128028   -0.15637222   37.76396832
     atom   36 type  3   force =     0.47913441   -1.06110988  -47.69567626
     The core correction contribution to forces
     atom    1 type  1   force =     0.00000000    0.00000000    0.00000000
     atom    2 type  2   force =     0.00003452    0.00043006    0.02122210
     atom    3 type  2   force =     0.00029483    0.00048591   -0.02091093
     atom    4 type  1   force =     0.00000000    0.00000000    0.00000000
     atom    5 type  2   force =    -0.00101977   -0.00015209   -0.00993554
     atom    6 type  2   force =     0.00000935   -0.00026075   -0.02129262
     atom    7 type  1   force =     0.00000000    0.00000000    0.00000000
     atom    8 type  2   force =    -0.00035244    0.00027340    0.02122357
     atom    9 type  2   force =     0.00051575    0.00077843   -0.02104990
     atom   10 type  1   force =     0.00000000    0.00000000    0.00000000
     atom   11 type  2   force =     0.00006100   -0.00020984    0.02071556
     atom   12 type  2   force =     0.00063127    0.00096437   -0.02089591
     atom   13 type  1   force =     0.00000000    0.00000000    0.00000000
     atom   14 type  2   force =     0.00009878    0.00022098    0.02132182
     atom   15 type  2   force =    -0.00022561    0.00044179   -0.02065028
     atom   16 type  1   force =     0.00000000    0.00000000    0.00000000
     atom   17 type  2   force =     0.00018670    0.00067666    0.02085542
     atom   18 type  2   force =    -0.00013530   -0.00045705   -0.02072318
     atom   19 type  1   force =     0.00000000    0.00000000    0.00000000
     atom   20 type  2   force =     0.00006778    0.00066462   -0.02116539
     atom   21 type  1   force =     0.00000000    0.00000000    0.00000000
     atom   22 type  2   force =     0.00002264   -0.00025157    0.02076371
     atom   23 type  2   force =    -0.00056926    0.00105044   -0.02081409
     atom   24 type  1   force =     0.00000000    0.00000000    0.00000000
     atom   25 type  2   force =    -0.00002827    0.00033057    0.02096244
     atom   26 type  2   force =    -0.00005652    0.00040857   -0.02094539
     atom   27 type  1   force =     0.00000000    0.00000000    0.00000000
     atom   28 type  2   force =    -0.00019385    0.00047504    0.02154957
     atom   29 type  2   force =     0.00002996    0.00018218   -0.02069217
     atom   30 type  1   force =     0.00000000    0.00000000    0.00000000
     atom   31 type  2   force =     0.00037688    0.00033701    0.02111886
     atom   32 type  2   force =    -0.00073280    0.00078109   -0.02099756
     atom   33 type  1   force =     0.00000000    0.00000000    0.00000000
     atom   34 type  2   force =     0.00002817    0.00034978    0.02132136
     atom   35 type  2   force =     0.00007742    0.00078535   -0.02099064
     atom   36 type  3   force =     0.00030812    0.00017831    0.02460583
     The Hubbard contrib.    to forces
     atom    1 type  1   force =     0.00000000    0.00000000    0.00000000
     atom    2 type  2   force =     0.00000000    0.00000000    0.00000000
     atom    3 type  2   force =     0.00000000    0.00000000    0.00000000
     atom    4 type  1   force =     0.00000000    0.00000000    0.00000000
     atom    5 type  2   force =     0.00000000    0.00000000    0.00000000
     atom    6 type  2   force =     0.00000000    0.00000000    0.00000000
     atom    7 type  1   force =     0.00000000    0.00000000    0.00000000
     atom    8 type  2   force =     0.00000000    0.00000000    0.00000000
     atom    9 type  2   force =     0.00000000    0.00000000    0.00000000
     atom   10 type  1   force =     0.00000000    0.00000000    0.00000000
     atom   11 type  2   force =     0.00000000    0.00000000    0.00000000
     atom   12 type  2   force =     0.00000000    0.00000000    0.00000000
     atom   13 type  1   force =     0.00000000    0.00000000    0.00000000
     atom   14 type  2   force =     0.00000000    0.00000000    0.00000000
     atom   15 type  2   force =     0.00000000    0.00000000    0.00000000
     atom   16 type  1   force =     0.00000000    0.00000000    0.00000000
     atom   17 type  2   force =     0.00000000    0.00000000    0.00000000
     atom   18 type  2   force =     0.00000000    0.00000000    0.00000000
     atom   19 type  1   force =     0.00000000    0.00000000    0.00000000
     atom   20 type  2   force =     0.00000000    0.00000000    0.00000000
     atom   21 type  1   force =     0.00000000    0.00000000    0.00000000
     atom   22 type  2   force =     0.00000000    0.00000000    0.00000000
     atom   23 type  2   force =     0.00000000    0.00000000    0.00000000
     atom   24 type  1   force =     0.00000000    0.00000000    0.00000000
     atom   25 type  2   force =     0.00000000    0.00000000    0.00000000
     atom   26 type  2   force =     0.00000000    0.00000000    0.00000000
     atom   27 type  1   force =     0.00000000    0.00000000    0.00000000
     atom   28 type  2   force =     0.00000000    0.00000000    0.00000000
     atom   29 type  2   force =     0.00000000    0.00000000    0.00000000
     atom   30 type  1   force =     0.00000000    0.00000000    0.00000000
     atom   31 type  2   force =     0.00000000    0.00000000    0.00000000
     atom   32 type  2   force =     0.00000000    0.00000000    0.00000000
     atom   33 type  1   force =     0.00000000    0.00000000    0.00000000
     atom   34 type  2   force =     0.00000000    0.00000000    0.00000000
     atom   35 type  2   force =     0.00000000    0.00000000    0.00000000
     atom   36 type  3   force =     0.00000000    0.00000000    0.00000000
     The SCF correction term to forces
     atom    1 type  1   force =     0.00002854   -0.00002448    0.00004761
     atom    2 type  2   force =    -0.00000167    0.00000469    0.00001248
     atom    3 type  2   force =     0.00000168   -0.00001353    0.00001123
     atom    4 type  1   force =     0.00002442    0.00002017    0.00004098
     atom    5 type  2   force =     0.00002551   -0.00000280    0.00003431
     atom    6 type  2   force =     0.00001258    0.00000594    0.00000976
     atom    7 type  1   force =     0.00000424    0.00001298    0.00001477
     atom    8 type  2   force =     0.00000487   -0.00000732    0.00000682
     atom    9 type  2   force =     0.00000705    0.00000492    0.00000876
     atom   10 type  1   force =     0.00001637   -0.00001344    0.00000735
     atom   11 type  2   force =    -0.00000303   -0.00000025   -0.00000017
     atom   12 type  2   force =     0.00000614   -0.00000230    0.00001040
     atom   13 type  1   force =    -0.00001387   -0.00001789    0.00003605
     atom   14 type  2   force =     0.00000406   -0.00000785    0.00001121
     atom   15 type  2   force =     0.00000042   -0.00001434    0.00001683
     atom   16 type  1   force =    -0.00001391    0.00003285    0.00004210
     atom   17 type  2   force =    -0.00000729    0.00000515    0.00000437
     atom   18 type  2   force =    -0.00001073    0.00001004    0.00001605
     atom   19 type  1   force =    -0.00001260    0.00001083    0.00001622
     atom   20 type  2   force =    -0.00000629    0.00001473    0.00001885
     atom   21 type  1   force =     0.00000242   -0.00002487    0.00002738
     atom   22 type  2   force =    -0.00000324   -0.00000543   -0.00000646
     atom   23 type  2   force =    -0.00000965   -0.00001157    0.00001789
     atom   24 type  1   force =    -0.00000485    0.00000088    0.00004221
     atom   25 type  2   force =    -0.00000614   -0.00000483    0.00000661
     atom   26 type  2   force =    -0.00000632   -0.00001417    0.00001192
     atom   27 type  1   force =    -0.00002477    0.00002405    0.00003451
     atom   28 type  2   force =    -0.00000646    0.00000391    0.00001412
     atom   29 type  2   force =    -0.00000287    0.00001073    0.00001579
     atom   30 type  1   force =     0.00000119    0.00000696    0.00000976
     atom   31 type  2   force =     0.00000124    0.00000201   -0.00000221
     atom   32 type  2   force =     0.00000335    0.00001303    0.00001474
     atom   33 type  1   force =     0.00000144   -0.00002974    0.00001152
     atom   34 type  2   force =     0.00000054    0.00000081   -0.00000338
     atom   35 type  2   force =    -0.00000092   -0.00000247    0.00000509
     atom   36 type  3   force =     0.00007829   -0.00001804    0.00001447

     Total force =     0.006261     Total SCF correction =     0.000182
     Energy error            =      8.7E-05 Ry
     Gradient error          =      2.1E-03 Ry/Bohr

     bfgs converged in  24 scf cycles and  23 bfgs steps
     (criteria: energy <  1.0E-04 Ry, force <  1.0E-02 Ry/Bohr)

     End of BFGS Geometry Optimization

     Final energy             =   -2246.4442491593 Ry

     File ./MoS2-V-O.bfgs deleted, as requested
Begin final coordinates

ATOMIC_POSITIONS (angstrom)
Mo            6.5936391328        1.7158528146        2.7324069425
S             8.1611971697        0.8427290616        4.3562332081
S             8.1884006882        0.8323844101        1.1496281029
Mo            8.1707964518        4.5109518191        2.6890074159
S             6.5576811782        3.6365311388        4.2076410730
S             6.5764645704        3.5612402682        1.1166571093
Mo            6.5328121361        7.1851496394        2.6626533513
S             8.1001596799        6.3025526958        4.3012160890
S             8.1549273202        6.3445075156        1.0923197207
Mo            8.1663665654        9.9366834630        2.7543565423
S             6.5473073233        8.9477043907        4.3185182482
S             6.6041311885        9.0343386610        1.1224507370
Mo            3.4589286550        1.7672116974        2.7659342665
S             5.0281424551        0.8179173579        4.3461820558
S             5.0030129030        0.8302715431        1.1599915823
Mo            4.9929510686        4.5663930088        2.6421376464
S             3.5074043562        3.6911390292        4.3194678499
S             3.4540848423        3.5610817478        1.1106444377
Mo            3.4797219438        7.1844552243        2.6585930065
S             5.0072488584        6.3344200251        1.0263489984
Mo            5.0101109959        9.9088095262        2.7328980802
S             3.4809584390        8.9462900000        4.3220772465
S             3.4179452977        9.0360839283        1.1263613277
Mo            0.2928474615        1.7462074670        2.7579003711
S             1.8807728101        0.8540418736        4.3657230652
S             1.8813589295        0.8471683989        1.1753079555
Mo            1.8954153662        4.4927059965        2.7146099705
S             0.2858347230        3.6120188706        4.3078005767
S             0.3067870885        3.5561244622        1.1313903727
Mo            0.2792111037        7.2180182848        2.7289870776
S             1.9194475163        6.3083136416        4.3013918621
S             1.8602127021        6.3265465564        1.1087876095
Mo            1.8727822124        9.9382089538        2.7645937500
S             0.2850999903        9.0254069701        4.3527153090
S             0.2941346093        9.0493516371        1.1609845412
O             6.5793070571        3.6551009987        5.7068300774
End final coordinates



     Writing all to output data dir ./MoS2-V-O.save/
 
     init_run     :      4.61s CPU      4.91s WALL (       1 calls)
     electrons    :   2212.72s CPU   2433.40s WALL (      24 calls)
     update_pot   :     70.45s CPU     73.62s WALL (      23 calls)
     forces       :     65.31s CPU     70.41s WALL (      24 calls)

     Called by init_run:
     wfcinit      :      0.50s CPU      0.54s WALL (       1 calls)
     potinit      :      2.35s CPU      2.51s WALL (       1 calls)
     hinit0       :      0.45s CPU      0.47s WALL (       1 calls)

     Called by electrons:
     c_bands      :    326.00s CPU    331.74s WALL (     220 calls)
     sum_band     :    134.83s CPU    150.38s WALL (     220 calls)
     v_of_rho     :    205.71s CPU    235.87s WALL (     236 calls)
     newd         :     70.87s CPU     83.66s WALL (     236 calls)
     PAW_pot      :      9.49s CPU      9.56s WALL (     259 calls)
     mix_rho      :   1490.22s CPU   1645.61s WALL (     220 calls)

     Called by c_bands:
     init_us_2    :      5.25s CPU      5.44s WALL (     464 calls)
     init_us_2:cp :      5.25s CPU      5.43s WALL (     464 calls)
     regterg      :    310.11s CPU    315.64s WALL (     220 calls)

     Called by *egterg:
     rdiaghg      :     20.57s CPU     20.74s WALL (    1155 calls)
     h_psi        :    203.91s CPU    205.52s WALL (    1187 calls)
     s_psi        :     18.50s CPU     18.56s WALL (    1187 calls)
     g_psi        :      1.01s CPU      1.02s WALL (     966 calls)

     Called by h_psi:
     h_psi:calbec :     20.45s CPU     20.53s WALL (    1187 calls)
     vloc_psi     :    162.65s CPU    164.08s WALL (    1187 calls)
     add_vuspsi   :     18.21s CPU     18.29s WALL (    1187 calls)

     General routines
     calbec       :     29.80s CPU     29.93s WALL (    1526 calls)
     fft          :    140.89s CPU    162.74s WALL (   15795 calls)
     ffts         :    666.52s CPU    816.08s WALL (  362414 calls)
     fftw         :     99.15s CPU     99.92s WALL (  136036 calls)
     interpolate  :      3.01s CPU      3.49s WALL (     236 calls)
 
     Parallel routines
 
     PWSCF        :  39m23.60s CPU  43m15.54s WALL

 
   This run was terminated on:  16:18: 1   1Nov2023            

=------------------------------------------------------------------------------=
   JOB DONE.
=------------------------------------------------------------------------------=
