
     Program PWSCF v.7.2 starts on  1Nov2023 at 18:10:41 

     This program is part of the open-source Quantum ESPRESSO suite
     for quantum simulation of materials; please cite
         "P. Giannozzi et al., J. Phys.:Condens. Matter 21 395502 (2009);
         "P. Giannozzi et al., J. Phys.:Condens. Matter 29 465901 (2017);
         "P. Giannozzi et al., J. Chem. Phys. 152 154105 (2020);
          URL http://www.quantum-espresso.org", 
     in publications or presentations arising from this work. More details at
     http://www.quantum-espresso.org/quote

     Parallel version (MPI & OpenMP), running on      48 processor cores
     Number of MPI processes:                48
     Threads/MPI process:                     1

     MPI processes distributed on     1 nodes
     45236 MiB available memory on the printing compute node when the environment starts
 
     Waiting for input...
     Reading input from standard input
Warning: card &CELL ignored
Warning: card CELL_DYNAMICS = 'BFGS', ignored
Warning: card CELL_DOFREE = '2DXY' ignored
Warning: card / ignored

     Current dimensions of program PWSCF are:
     Max number of different atomic species (ntypx) = 10
     Max number of k-points (npk) =  40000
     Max angular momentum in pseudopotentials (lmaxx) =  4
     file O.pbe-n-kjpaw_psl.0.1.UPF: wavefunction(s)  2P renormalized

     IMPORTANT: XC functional enforced from input :
     Exchange-correlation= RVV10
                           (   1   4  13   4  26   0   0)
     Any further DFT definition will be discarded
     Please, verify this is what you really want


     gamma-point specific algorithms are used
     signal trapping enabled: kill the code with -SIGUSR1 to stop cleanly the simulation 
 
     R & G space division:  proc/nbgrp/npool/nimage =      48
     Subspace diagonalization in iterative solution of the eigenvalue problem:
     one sub-group per band group will be used
     scalapack distributed-memory algorithm (size of sub-group:  2*  2 procs)

 
     Parallelization info
     --------------------
     sticks:   dense  smooth     PW     G-vecs:    dense   smooth      PW
     Min         396     194     47               101632    35090    4376
     Max         398     196     50               101674    35128    4410
     Sum       19091    9389   2349              4879585  1685513  210763
 
     Using Slab Decomposition
 


     bravais-lattice index     =            0
     lattice parameter (alat)  =      17.8707  a.u.
     unit-cell volume          =   17436.2743 (a.u.)^3
     number of atoms/cell      =           36
     number of atomic types    =            3
     number of electrons       =       312.00
     number of Kohn-Sham states=          187
     kinetic-energy cutoff     =      80.0000  Ry
     charge density cutoff     =     650.0000  Ry
     scf convergence threshold =      1.0E-06
     mixing beta               =       0.7000
     number of iterations used =            8  local-TF  mixing
     energy convergence thresh.=      1.0E-04
     force convergence thresh. =      1.0E-02
     Exchange-correlation= RVV10
                           (   1   4  13   4  26   0   0)
     nstep                     =          200


     celldm(1)=  17.870686  celldm(2)=   0.000000  celldm(3)=   0.000000
     celldm(4)=   0.000000  celldm(5)=   0.000000  celldm(6)=   0.000000

     crystal axes: (cart. coord. in units of alat)
               a(1) = (   1.000000   0.000000   0.000000 )  
               a(2) = (   0.000000   1.155671   0.000000 )  
               a(3) = (   0.000000   0.000000   2.643601 )  

     reciprocal axes: (cart. coord. in units 2 pi/alat)
               b(1) = (  1.000000  0.000000  0.000000 )  
               b(2) = (  0.000000  0.865298  0.000000 )  
               b(3) = (  0.000000  0.000000  0.378272 )  


     PseudoPot. # 1 for Mo read from file:
     ../pseudo/Mo_ONCV_PBE-1.0.oncvpsp.upf
     MD5 check sum: 1b5d28e075c9ccadda658a603575cd1f
     Pseudo is Norm-conserving, Zval = 14.0
     Generated using ONCVPSP code by D. R. Hamann
     Using radial grid of 1526 points,  6 beta functions with: 
                l(1) =   0
                l(2) =   0
                l(3) =   1
                l(4) =   1
                l(5) =   2
                l(6) =   2

     PseudoPot. # 2 for S  read from file:
     ../pseudo/s_pbe_v1.4.uspp.F.UPF
     MD5 check sum: 88d86576ff6df21479756cfb9bdac1df
     Pseudo is Ultrasoft + core correction, Zval =  6.0
     Generated by new atomic code, or converted to UPF format
     Using radial grid of  907 points,  6 beta functions with: 
                l(1) =   0
                l(2) =   0
                l(3) =   1
                l(4) =   1
                l(5) =   2
                l(6) =   2
     Q(r) pseudized with  8 coefficients,  rinner =    1.300   1.300   1.300
                                                       1.300   1.300

     PseudoPot. # 3 for O  read from file:
     ../pseudo/O.pbe-n-kjpaw_psl.0.1.UPF
     MD5 check sum: 0234752ac141de4415c5fc33072bef88
     Pseudo is Projector augmented-wave + core cor, Zval =  6.0
     Generated using "atomic" code by A. Dal Corso  v.5.0.99 svn rev. 10869
     Shape of augmentation charge: BESSEL
     Using radial grid of 1095 points,  4 beta functions with: 
                l(1) =   0
                l(2) =   0
                l(3) =   1
                l(4) =   1
     Q(r) pseudized with 0 coefficients 


     atomic species   valence    mass     pseudopotential
        Mo            14.00    95.94000     Mo( 1.00)
        S              6.00    32.06500     S ( 1.00)
        O              6.00    15.99940     O ( 1.00)

     No symmetry found



   Cartesian axes

     site n.     atom                  positions (alat units)
         1           Mo  tau(   1) = (   0.6952221   0.1890506   0.2985846  )
         2           S   tau(   2) = (   0.8646417   0.0856217   0.4689279  )
         3           S   tau(   3) = (   0.8663890   0.0857843   0.1351291  )
         4           Mo  tau(   4) = (   0.8560186   0.4753274   0.2873942  )
         5           S   tau(   5) = (   0.6873294   0.3936244   0.4596353  )
         6           S   tau(   6) = (   0.6929804   0.3713468   0.1185692  )
         7           Mo  tau(   7) = (   0.6862796   0.7633098   0.2825370  )
         8           S   tau(   8) = (   0.8545980   0.6708292   0.4486168  )
         9           S   tau(   9) = (   0.8545123   0.6666874   0.1146125  )
        10           Mo  tau(  10) = (   0.8629403   1.0471007   0.3006803  )
        11           S   tau(  11) = (   0.6868280   0.9456650   0.4634891  )
        12           S   tau(  12) = (   0.6998113   0.9568511   0.1205389  )
        13           Mo  tau(  13) = (   0.3618216   0.1847309   0.2935964  )
        14           S   tau(  14) = (   0.5260962   0.0863870   0.4600448  )
        15           S   tau(  15) = (   0.5348379   0.0894875   0.1297123  )
        16           Mo  tau(  16) = (   0.5265817   0.4772436   0.2784130  )
        17           S   tau(  17) = (   0.3624753   0.3882513   0.4525556  )
        18           S   tau(  18) = (   0.3635411   0.3752055   0.1119148  )
        19           Mo  tau(  19) = (   0.3652268   0.7630864   0.2781795  )
        20           S   tau(  20) = (   0.5269494   0.6690381   0.1096838  )
        21           Mo  tau(  21) = (   0.5300192   1.0470394   0.2900995  )
        22           S   tau(  22) = (   0.3670346   0.9457522   0.4574073  )
        23           S   tau(  23) = (   0.3604225   0.9585725   0.1159032  )
        24           Mo  tau(  24) = (   0.0313099   0.1847895   0.3013130  )
        25           S   tau(  25) = (   0.1956761   0.0838230   0.4650863  )
        26           S   tau(  26) = (   0.1967693   0.0903508   0.1278874  )
        27           Mo  tau(  27) = (   0.1967578   0.4753919   0.2813011  )
        28           S   tau(  28) = (   0.0287851   0.3864324   0.4586755  )
        29           S   tau(  29) = (   0.0244514   0.3729871   0.1239344  )
        30           Mo  tau(  30) = (   0.0286728   0.7631204   0.2856894  )
        31           S   tau(  31) = (   0.2011512   0.6675435   0.4465001  )
        32           S   tau(  32) = (   0.1969214   0.6672839   0.1104564  )
        33           Mo  tau(  33) = (   0.1950294   1.0511147   0.2932237  )
        34           S   tau(  34) = (   0.0312912   0.9612169   0.4667423  )
        35           S   tau(  35) = (   0.0292670   0.9563028   0.1216485  )
        36           O   tau(  36) = (   0.6666667   0.6420393   0.5656742  )

     number of k points=     1  Gaussian smearing, width (Ry)=  0.0100
                       cart. coord. in units 2pi/alat
        k(    1) = (   0.0000000   0.0000000   0.0000000), wk =   2.0000000

     Dense  grid:  2439793 G-vectors     FFT dimensions: ( 150, 180, 384)

     Smooth grid:   842757 G-vectors     FFT dimensions: ( 108, 120, 270)

     Estimated max dynamical RAM per process >     269.22 MB

     Estimated total dynamical RAM >      12.62 GB

     Initial potential from superposition of free atoms

     starting charge     311.9873, renormalised to     312.0000

     negative rho (up, down):  2.743E-04 0.000E+00


---------------------------------------------------------------------------------
Carrying out rVV10 run using the following parameters:
Nqs =      20    Nr_points =    1024   r_max =   100.000
b_value =  6.30000    beta =  0.00901
     q_mesh =  0.00010000  0.00030000  0.00058939  0.00100810
               0.00161396  0.00249058  0.00375900  0.00559430
               0.00824984  0.01209221  0.01765183  0.02569619
               0.03733578  0.05417739  0.07854596  0.11380545
               0.16482331  0.23864234  0.34545298  0.50000000

Gradients computed in Reciprocal space

---------------------------------------------------------------------------------


     Starting wfcs are  216 randomized atomic wfcs
     Checking if some PAW data can be deallocated... 

     total cpu time spent up to now is        5.3 secs

     Self-consistent Calculation

     iteration #  1     ecut=    80.00 Ry     beta= 0.70
     Davidson diagonalization with overlap
     ethr =  1.00E-02,  avg # of iterations =  2.0

     Threshold (ethr) on eigenvalues was too large:
     Diagonalizing with lowered threshold

     Davidson diagonalization with overlap
     ethr =  6.19E-04,  avg # of iterations =  2.0

     negative rho (up, down):  1.278E-05 0.000E+00

     total cpu time spent up to now is       26.0 secs

     total energy              =   -2246.02487031 Ry
     estimated scf accuracy    <       2.11940096 Ry

     iteration #  2     ecut=    80.00 Ry     beta= 0.70
     Davidson diagonalization with overlap
     ethr =  6.79E-04,  avg # of iterations =  7.0

     negative rho (up, down):  1.993E-06 0.000E+00

     total cpu time spent up to now is       35.0 secs

     total energy              =   -2245.86954122 Ry
     estimated scf accuracy    <       8.35688167 Ry

     iteration #  3     ecut=    80.00 Ry     beta= 0.70
     Davidson diagonalization with overlap
     ethr =  6.79E-04,  avg # of iterations =  5.0

     total cpu time spent up to now is       39.3 secs

     total energy              =   -2246.16293882 Ry
     estimated scf accuracy    <       0.50266504 Ry

     iteration #  4     ecut=    80.00 Ry     beta= 0.70
     Davidson diagonalization with overlap
     ethr =  1.61E-04,  avg # of iterations =  2.0

     total cpu time spent up to now is       43.3 secs

     total energy              =   -2246.22629250 Ry
     estimated scf accuracy    <       0.04448814 Ry

     iteration #  5     ecut=    80.00 Ry     beta= 0.70
     Davidson diagonalization with overlap
     ethr =  1.43E-05,  avg # of iterations = 15.0

     total cpu time spent up to now is       48.0 secs

     total energy              =   -2246.22831691 Ry
     estimated scf accuracy    <       0.01989094 Ry

     iteration #  6     ecut=    80.00 Ry     beta= 0.70
     Davidson diagonalization with overlap
     ethr =  6.38E-06,  avg # of iterations =  2.0

     total cpu time spent up to now is       51.6 secs

     total energy              =   -2246.22763640 Ry
     estimated scf accuracy    <       0.01419657 Ry

     iteration #  7     ecut=    80.00 Ry     beta= 0.70
     Davidson diagonalization with overlap
     ethr =  4.55E-06,  avg # of iterations =  1.0

     total cpu time spent up to now is       55.1 secs

     total energy              =   -2246.22704622 Ry
     estimated scf accuracy    <       0.00819664 Ry

     iteration #  8     ecut=    80.00 Ry     beta= 0.70
     Davidson diagonalization with overlap
     ethr =  2.63E-06,  avg # of iterations =  2.0

     negative rho (up, down):  3.432E-04 0.000E+00

     total cpu time spent up to now is       61.9 secs

     total energy              =   -2246.22600848 Ry
     estimated scf accuracy    <       0.00604074 Ry

     iteration #  9     ecut=    80.00 Ry     beta= 0.70
     Davidson diagonalization with overlap
     ethr =  1.94E-06,  avg # of iterations =  2.0

     negative rho (up, down):  1.406E-02 0.000E+00

     total cpu time spent up to now is       68.2 secs

     total energy              =   -2246.22541491 Ry
     estimated scf accuracy    <       0.00352401 Ry

     iteration # 10     ecut=    80.00 Ry     beta= 0.70
     Davidson diagonalization with overlap
     ethr =  1.13E-06,  avg # of iterations =  2.0

     negative rho (up, down):  1.801E-02 0.000E+00

     total cpu time spent up to now is       75.1 secs

     total energy              =   -2246.22531663 Ry
     estimated scf accuracy    <       0.00172411 Ry

     iteration # 11     ecut=    80.00 Ry     beta= 0.70
     Davidson diagonalization with overlap
     ethr =  5.53E-07,  avg # of iterations =  2.0

     negative rho (up, down):  1.795E-02 0.000E+00

     total cpu time spent up to now is       82.0 secs

     total energy              =   -2246.22536724 Ry
     estimated scf accuracy    <       0.00058073 Ry

     iteration # 12     ecut=    80.00 Ry     beta= 0.70
     Davidson diagonalization with overlap
     ethr =  1.86E-07,  avg # of iterations =  2.0

     negative rho (up, down):  8.082E-03 0.000E+00

     total cpu time spent up to now is       89.8 secs

     total energy              =   -2246.22532694 Ry
     estimated scf accuracy    <       0.00017622 Ry

     iteration # 13     ecut=    80.00 Ry     beta= 0.70
     Davidson diagonalization with overlap
     ethr =  5.65E-08,  avg # of iterations =  2.0

     negative rho (up, down):  2.675E-03 0.000E+00

     total cpu time spent up to now is       98.4 secs

     total energy              =   -2246.22539194 Ry
     estimated scf accuracy    <       0.00005470 Ry

     iteration # 14     ecut=    80.00 Ry     beta= 0.70
     Davidson diagonalization with overlap
     ethr =  1.75E-08,  avg # of iterations =  5.0

     negative rho (up, down):  1.472E-03 0.000E+00

     total cpu time spent up to now is      106.2 secs

     total energy              =   -2246.22541359 Ry
     estimated scf accuracy    <       0.00001618 Ry

     iteration # 15     ecut=    80.00 Ry     beta= 0.70
     Davidson diagonalization with overlap
     ethr =  5.19E-09,  avg # of iterations =  2.0

     negative rho (up, down):  1.046E-03 0.000E+00

     total cpu time spent up to now is      114.1 secs

     total energy              =   -2246.22542943 Ry
     estimated scf accuracy    <       0.00000813 Ry

     iteration # 16     ecut=    80.00 Ry     beta= 0.70
     Davidson diagonalization with overlap
     ethr =  2.60E-09,  avg # of iterations =  3.0

     negative rho (up, down):  5.026E-04 0.000E+00

     total cpu time spent up to now is      122.5 secs

     total energy              =   -2246.22543013 Ry
     estimated scf accuracy    <       0.00000190 Ry

     iteration # 17     ecut=    80.00 Ry     beta= 0.70
     Davidson diagonalization with overlap
     ethr =  6.10E-10,  avg # of iterations =  5.0

     negative rho (up, down):  1.728E-04 0.000E+00

     total cpu time spent up to now is      126.2 secs

     End of self-consistent calculation

          k = 0.0000 0.0000 0.0000 (105382 PWs)   bands (ev):

   -63.0413 -63.0341 -63.0100 -63.0063 -62.9959 -62.9912 -62.9857 -62.9756
   -62.9704 -62.9643 -62.9338 -62.8813 -37.3959 -37.3366 -37.3122 -37.2865
   -37.2833 -37.2630 -37.2472 -37.2340 -37.2207 -37.2156 -37.2148 -37.2022
   -37.1951 -37.1856 -37.1801 -37.1742 -37.1674 -37.1649 -37.1618 -37.1549
   -37.1507 -37.1440 -37.1256 -37.1078 -37.0961 -37.0840 -37.0720 -37.0628
   -37.0478 -37.0441 -37.0233 -37.0102 -36.9881 -36.9484 -36.9237 -36.8974
   -17.9606 -16.0851 -15.3174 -15.2712 -15.0950 -15.0446 -14.9012 -14.6488
   -14.6105 -14.5829 -14.5380 -14.5187 -14.4746 -14.4515 -14.4064 -14.2758
   -14.2617 -14.2460 -14.2177 -14.1648 -14.0114 -14.0029 -13.9698 -13.9459
    -7.8088  -7.6325  -7.4603  -7.4455  -7.3999  -7.3424  -7.3272  -7.2593
    -6.9988  -6.9646  -6.9217  -6.8909  -6.8110  -6.7170  -6.6748  -6.5790
    -6.5419  -6.4155  -6.4020  -6.1918  -6.0778  -6.0588  -5.9997  -5.9680
    -5.9080  -5.8890  -5.8644  -5.8222  -5.7981  -5.7799  -5.6714  -5.6602
    -5.6247  -5.5724  -5.5689  -5.3038  -5.2811  -5.2473  -5.1809  -5.1108
    -5.0666  -5.0474  -4.9917  -4.8447  -4.7019  -4.5067  -4.4610  -4.3974
    -4.3815  -4.3528  -4.1985  -4.1573  -4.0694  -3.9540  -3.9313  -3.8774
    -3.8534  -3.8154  -3.7292  -3.6878  -3.6603  -3.6397  -3.6174  -3.5760
    -3.5660  -3.5183  -3.3872  -3.2859  -3.1681  -3.0329  -2.9890  -2.9288
    -2.9082  -2.8685  -2.8359  -2.8041  -2.7985  -2.7524  -2.7140  -2.3997
    -2.2166  -2.1386  -1.9200  -1.6559  -1.5848  -0.9920  -0.7055  -0.3223
    -0.2768  -0.2227  -0.1280  -0.1037  -0.0103   0.0237   0.1119   0.1297
     0.1647   0.2400   0.2652   0.3432   0.3758   0.3988   0.4198   0.4517
     0.5390   0.5804   0.6051   0.6491   0.6760   0.7037   0.7463   0.7654
     0.8455   0.9223   1.0008

     the Fermi energy is    -1.6202 ev

!    total energy              =   -2246.22542799 Ry
     estimated scf accuracy    <       0.00000036 Ry
     smearing contrib. (-TS)   =      -0.01058417 Ry
     internal energy E=F+TS    =   -2246.21484382 Ry

     The total energy is F=E-TS. E is the sum of the following terms:
     one-electron contribution =  -18432.66254126 Ry
     hartree contribution      =    9204.02430217 Ry
     xc contribution           =    -391.74745149 Ry
     ewald contribution        =    7384.04730887 Ry
     one-center paw contrib.   =      -9.87646210 Ry

     convergence has been achieved in  17 iterations

     negative rho (up, down):  1.728E-04 0.000E+00

     Forces acting on atoms (cartesian axes, Ry/au):

     atom    1 type  1   force =     0.01803175   -0.02805564   -0.00086953
     atom    2 type  2   force =    -0.01630618    0.01762021   -0.00056864
     atom    3 type  2   force =    -0.01141623    0.00871638   -0.00150977
     atom    4 type  1   force =     0.00187413    0.00278837    0.00140137
     atom    5 type  2   force =    -0.00146007   -0.00960000   -0.00988730
     atom    6 type  2   force =     0.00109249    0.00963251   -0.00263457
     atom    7 type  1   force =     0.02224382   -0.02268649    0.03312289
     atom    8 type  2   force =    -0.05934959   -0.02025518    0.04466586
     atom    9 type  2   force =     0.01184181    0.00562626    0.01165540
     atom   10 type  1   force =    -0.01357665    0.00609719   -0.02437766
     atom   11 type  2   force =     0.01176340    0.00503578   -0.01209168
     atom   12 type  2   force =    -0.00407408    0.00091984    0.00528359
     atom   13 type  1   force =     0.00483740    0.00690896   -0.00505686
     atom   14 type  2   force =     0.00905621    0.00168986    0.01309954
     atom   15 type  2   force =    -0.01328678    0.00260720   -0.00953127
     atom   16 type  1   force =     0.00378802    0.00884338    0.01870900
     atom   17 type  2   force =     0.00727773   -0.00153225    0.00194496
     atom   18 type  2   force =    -0.00183526   -0.00720575    0.01288073
     atom   19 type  1   force =    -0.01304709   -0.01123596   -0.00577780
     atom   20 type  2   force =     0.00171614   -0.00459026    0.00098763
     atom   21 type  1   force =    -0.00661197    0.00678824   -0.00035234
     atom   22 type  2   force =    -0.00310055   -0.00019767   -0.00346486
     atom   23 type  2   force =     0.00125529    0.00364315    0.01018782
     atom   24 type  1   force =    -0.00937928   -0.00120294   -0.02153091
     atom   25 type  2   force =     0.01666974    0.01930419    0.00453151
     atom   26 type  2   force =    -0.01122301   -0.00055463   -0.00171660
     atom   27 type  1   force =    -0.00268445    0.00155373    0.00611070
     atom   28 type  2   force =     0.00108491   -0.00321469   -0.00331409
     atom   29 type  2   force =     0.00585270   -0.00157180   -0.00408423
     atom   30 type  1   force =     0.01346265    0.00819224   -0.00476192
     atom   31 type  2   force =     0.00442747    0.00385133    0.01038136
     atom   32 type  2   force =    -0.00888633    0.00833633    0.00996077
     atom   33 type  1   force =     0.01378791   -0.00976796   -0.00957529
     atom   34 type  2   force =     0.00287955   -0.04015628   -0.01169175
     atom   35 type  2   force =    -0.00982829    0.01090594    0.01204688
     atom   36 type  3   force =     0.03312271    0.02276644   -0.06417292
     The non-local contrib.  to forces
     atom    1 type  1   force =    -0.00159298    0.04956418   -0.00620382
     atom    2 type  2   force =    -0.00805235   -0.00067030   -0.27558422
     atom    3 type  2   force =    -0.01182902   -0.00266266    0.26614057
     atom    4 type  1   force =     0.00085985    0.01361045    0.01018655
     atom    5 type  2   force =     0.00755261   -0.00648549   -0.27375366
     atom    6 type  2   force =    -0.00430554    0.01349440    0.26458513
     atom    7 type  1   force =    -0.00657331   -0.00562439   -0.01986881
     atom    8 type  2   force =    -0.20998248   -0.05325892   -0.10136564
     atom    9 type  2   force =     0.00546520   -0.00248805    0.28180561
     atom   10 type  1   force =     0.00027901    0.01609375   -0.00401888
     atom   11 type  2   force =     0.01687302    0.01569677   -0.27014405
     atom   12 type  2   force =    -0.01194668   -0.01982803    0.26514367
     atom   13 type  1   force =    -0.00375937    0.01684510   -0.00504430
     atom   14 type  2   force =     0.01079014   -0.01149927   -0.26546374
     atom   15 type  2   force =    -0.01473599   -0.00751532    0.25967479
     atom   16 type  1   force =     0.00553042    0.00908040   -0.03732987
     atom   17 type  2   force =     0.00357821   -0.03014538   -0.25540716
     atom   18 type  2   force =     0.00024028   -0.00335515    0.27640333
     atom   19 type  1   force =     0.01653140   -0.00144748   -0.02225213
     atom   20 type  2   force =    -0.00049561   -0.02231346    0.26498459
     atom   21 type  1   force =     0.00134932    0.02624845    0.00612172
     atom   22 type  2   force =    -0.00688773    0.00543694   -0.26167461
     atom   23 type  2   force =     0.00549285   -0.01583000    0.26895461
     atom   24 type  1   force =     0.00631868    0.00990679   -0.01034683
     atom   25 type  2   force =     0.00973376    0.00428476   -0.26387584
     atom   26 type  2   force =    -0.00307777   -0.01267493    0.25952571
     atom   27 type  1   force =    -0.00023655    0.00615481    0.00925630
     atom   28 type  2   force =    -0.00849320   -0.02022235   -0.27348102
     atom   29 type  2   force =     0.01111568    0.00137173    0.26020412
     atom   30 type  1   force =    -0.00778212   -0.00112455    0.00025650
     atom   31 type  2   force =    -0.00509292   -0.00311734   -0.24883201
     atom   32 type  2   force =    -0.00518531   -0.00085991    0.27396045
     atom   33 type  1   force =    -0.00367813    0.01569528    0.00338406
     atom   34 type  2   force =     0.00340392   -0.03279059   -0.27135037
     atom   35 type  2   force =    -0.00287044   -0.01196715    0.27081077
     atom   36 type  3   force =     0.40172308    0.05097313   -0.50755603
     The ionic contribution  to forces
     atom    1 type  1   force =     0.46408291   -0.62813309    4.34773345
     atom    2 type  2   force =    -0.48590258    0.32874518   39.08534363
     atom    3 type  2   force =    -0.09567457   -0.00975579  -36.60433756
     atom    4 type  1   force =     1.59839883   -0.89341579   -2.36936398
     atom    5 type  2   force =    -0.74997208   -1.15515726   37.50429682
     atom    6 type  2   force =     0.37247571   -0.79946900  -38.87803166
     atom    7 type  1   force =    -2.30279552   -0.75451204   -2.72397821
     atom    8 type  2   force =     2.61694948    0.60037027   34.96878390
     atom    9 type  2   force =     0.57669593    0.00361252  -39.01995922
     atom   10 type  1   force =    -0.62173198    0.60556595    4.33357198
     atom   11 type  2   force =    -0.44053312    0.24872102   38.39972384
     atom   12 type  2   force =     0.47148838    0.97692864  -38.62802139
     atom   13 type  1   force =     0.13680217    0.51015381    1.79856625
     atom   14 type  2   force =    -0.08702846   -0.09565916   38.29219429
     atom   15 type  2   force =     0.10547575   -0.09586424  -37.34194163
     atom   16 type  1   force =    -1.33953788    2.27643262   -3.02880709
     atom   17 type  2   force =     0.12553421    0.77817130   37.49856157
     atom   18 type  2   force =    -0.29201363   -0.82765233  -39.21959104
     atom   19 type  1   force =     1.42848674   -1.74135717   -1.56871036
     atom   20 type  2   force =     0.03258173   -0.15071611  -39.55944984
     atom   21 type  1   force =    -0.34272132    1.06300451   -0.28953915
     atom   22 type  2   force =    -0.07162687   -1.04614948   38.07847758
     atom   23 type  2   force =    -0.19935735    0.84353733  -38.89926087
     atom   24 type  1   force =    -0.27698599    0.72025238    4.86297807
     atom   25 type  2   force =     0.62623598    0.24636726   39.10979288
     atom   26 type  2   force =    -0.30139834    0.04460986  -37.79418926
     atom   27 type  1   force =    -0.16198087   -0.10701363   -3.69033405
     atom   28 type  2   force =     0.54041672    0.46081374   37.87385789
     atom   29 type  2   force =    -0.15400163   -0.59853060  -37.88488296
     atom   30 type  1   force =     0.62150726   -0.34156520   -1.86259890
     atom   31 type  2   force =     1.00223444    0.01091275   36.92685053
     atom   32 type  2   force =    -0.51841767    0.01562083  -39.30774830
     atom   33 type  1   force =     0.71938019   -0.39590302    1.07975130
     atom   34 type  2   force =     0.58779895   -0.94900054   39.09831586
     atom   35 type  2   force =    -0.20798630    0.64103625  -38.39563724
     atom   36 type  3   force =    -3.37687922    0.21499824   43.80758285
     The local contribution  to forces
     atom    1 type  1   force =    -0.44450817    0.55067947   -4.34253909
     atom    2 type  2   force =     0.47756784   -0.31046533  -38.83151473
     atom    3 type  2   force =     0.09563124    0.02110610   36.35720064
     atom    4 type  1   force =    -1.59729645    0.88249045    2.36009912
     atom    5 type  2   force =     0.74173592    1.15033651  -37.26266135
     atom    6 type  2   force =    -0.36758855    0.79694185   38.63155631
     atom    7 type  1   force =     2.33119604    0.73723820    2.77624957
     atom    8 type  2   force =    -2.47598439   -0.57017451  -34.83631729
     atom    9 type  2   force =    -0.57025243    0.00425901   38.77077847
     atom   10 type  1   force =     0.60793142   -0.61542761   -4.35413673
     atom   11 type  2   force =     0.43632616   -0.25777193  -38.16340466
     atom   12 type  2   force =    -0.46477876   -0.95773798   38.38886329
     atom   13 type  1   force =    -0.12831136   -0.51990998   -1.79869445
     atom   14 type  2   force =     0.08576726    0.10870356  -38.03457840
     atom   15 type  2   force =    -0.10490578    0.10557064   37.09306774
     atom   16 type  1   force =     1.33752439   -2.27645738    3.08425930
     atom   17 type  2   force =    -0.12189289   -0.75120092  -37.26209588
     atom   18 type  2   force =     0.29014988    0.82443935   38.97715043
     atom   19 type  1   force =    -1.45807288    1.73127982    1.58481383
     atom   20 type  2   force =    -0.03059278    0.16739737   39.31654504
     atom   21 type  1   force =     0.33456949   -1.08239437    0.28285872
     atom   22 type  2   force =     0.07509177    1.04114698  -37.84126167
     atom   23 type  2   force =     0.19560040   -0.82542191   38.66125689
     atom   24 type  1   force =     0.26147657   -0.73120117   -4.87429382
     atom   25 type  2   force =    -0.61917204   -0.23093534  -38.86245084
     atom   26 type  2   force =     0.29338705   -0.03312055   37.55351035
     atom   27 type  1   force =     0.15968880    0.10240113    3.68692560
     atom   28 type  2   force =    -0.53117730   -0.44542808  -37.62483489
     atom   29 type  2   force =     0.14959360    0.59621309   37.64084845
     atom   30 type  1   force =    -0.59988981    0.35074660    1.85719972
     atom   31 type  2   force =    -0.99315063   -0.00417536  -36.68826380
     atom   32 type  2   force =     0.51475886   -0.00666283   39.06463480
     atom   33 type  1   force =    -0.70178503    0.37041563   -1.09277431
     atom   34 type  2   force =    -0.58837746    0.94060392  -38.85989213
     atom   35 type  2   force =     0.20109356   -0.61922370   38.15776815
     atom   36 type  3   force =     3.01267678   -0.24264094  -43.37009582
     The core correction contribution to forces
     atom    1 type  1   force =     0.00000000    0.00000000    0.00000000
     atom    2 type  2   force =     0.00012050    0.00003504    0.02104274
     atom    3 type  2   force =     0.00047990    0.00005735   -0.02069657
     atom    4 type  1   force =     0.00000000    0.00000000    0.00000000
     atom    5 type  2   force =    -0.00082478    0.00161470    0.02196129
     atom    6 type  2   force =     0.00043367   -0.00122892   -0.02091407
     atom    7 type  1   force =     0.00000000    0.00000000    0.00000000
     atom    8 type  2   force =     0.00981435    0.00272355    0.01338994
     atom    9 type  2   force =    -0.00003197    0.00016371   -0.02124620
     atom   10 type  1   force =     0.00000000    0.00000000    0.00000000
     atom   11 type  2   force =    -0.00094169   -0.00143077    0.02157804
     atom   12 type  2   force =     0.00111555    0.00156305   -0.02095049
     atom   13 type  1   force =     0.00000000    0.00000000    0.00000000
     atom   14 type  2   force =    -0.00053352    0.00012363    0.02080253
     atom   15 type  2   force =     0.00084070    0.00042682   -0.02050019
     atom   16 type  1   force =     0.00000000    0.00000000    0.00000000
     atom   17 type  2   force =    -0.00000351    0.00163051    0.02064238
     atom   18 type  2   force =    -0.00017752   -0.00052772   -0.02118230
     atom   19 type  1   force =     0.00000000    0.00000000    0.00000000
     atom   20 type  2   force =     0.00015822    0.00089465   -0.02122480
     atom   21 type  1   force =     0.00000000    0.00000000    0.00000000
     atom   22 type  2   force =     0.00023398   -0.00057768    0.02082890
     atom   23 type  2   force =    -0.00046897    0.00132201   -0.02091382
     atom   24 type  1   force =     0.00000000    0.00000000    0.00000000
     atom   25 type  2   force =    -0.00011240   -0.00038325    0.02092691
     atom   26 type  2   force =    -0.00013477    0.00067495   -0.02071965
     atom   27 type  1   force =     0.00000000    0.00000000    0.00000000
     atom   28 type  2   force =     0.00044533    0.00158817    0.02096136
     atom   29 type  2   force =    -0.00081504   -0.00059610   -0.02040979
     atom   30 type  1   force =     0.00000000    0.00000000    0.00000000
     atom   31 type  2   force =     0.00044768    0.00020255    0.02043301
     atom   32 type  2   force =    -0.00001704    0.00018611   -0.02103611
     atom   33 type  1   force =     0.00000000    0.00000000    0.00000000
     atom   34 type  2   force =     0.00017093    0.00104240    0.02112268
     atom   35 type  2   force =    -0.00002514    0.00101754   -0.02109003
     atom   36 type  3   force =    -0.00432873   -0.00064266    0.00555179
     The Hubbard contrib.    to forces
     atom    1 type  1   force =     0.00000000    0.00000000    0.00000000
     atom    2 type  2   force =     0.00000000    0.00000000    0.00000000
     atom    3 type  2   force =     0.00000000    0.00000000    0.00000000
     atom    4 type  1   force =     0.00000000    0.00000000    0.00000000
     atom    5 type  2   force =     0.00000000    0.00000000    0.00000000
     atom    6 type  2   force =     0.00000000    0.00000000    0.00000000
     atom    7 type  1   force =     0.00000000    0.00000000    0.00000000
     atom    8 type  2   force =     0.00000000    0.00000000    0.00000000
     atom    9 type  2   force =     0.00000000    0.00000000    0.00000000
     atom   10 type  1   force =     0.00000000    0.00000000    0.00000000
     atom   11 type  2   force =     0.00000000    0.00000000    0.00000000
     atom   12 type  2   force =     0.00000000    0.00000000    0.00000000
     atom   13 type  1   force =     0.00000000    0.00000000    0.00000000
     atom   14 type  2   force =     0.00000000    0.00000000    0.00000000
     atom   15 type  2   force =     0.00000000    0.00000000    0.00000000
     atom   16 type  1   force =     0.00000000    0.00000000    0.00000000
     atom   17 type  2   force =     0.00000000    0.00000000    0.00000000
     atom   18 type  2   force =     0.00000000    0.00000000    0.00000000
     atom   19 type  1   force =     0.00000000    0.00000000    0.00000000
     atom   20 type  2   force =     0.00000000    0.00000000    0.00000000
     atom   21 type  1   force =     0.00000000    0.00000000    0.00000000
     atom   22 type  2   force =     0.00000000    0.00000000    0.00000000
     atom   23 type  2   force =     0.00000000    0.00000000    0.00000000
     atom   24 type  1   force =     0.00000000    0.00000000    0.00000000
     atom   25 type  2   force =     0.00000000    0.00000000    0.00000000
     atom   26 type  2   force =     0.00000000    0.00000000    0.00000000
     atom   27 type  1   force =     0.00000000    0.00000000    0.00000000
     atom   28 type  2   force =     0.00000000    0.00000000    0.00000000
     atom   29 type  2   force =     0.00000000    0.00000000    0.00000000
     atom   30 type  1   force =     0.00000000    0.00000000    0.00000000
     atom   31 type  2   force =     0.00000000    0.00000000    0.00000000
     atom   32 type  2   force =     0.00000000    0.00000000    0.00000000
     atom   33 type  1   force =     0.00000000    0.00000000    0.00000000
     atom   34 type  2   force =     0.00000000    0.00000000    0.00000000
     atom   35 type  2   force =     0.00000000    0.00000000    0.00000000
     atom   36 type  3   force =     0.00000000    0.00000000    0.00000000
     The SCF correction term to forces
     atom    1 type  1   force =     0.00004896   -0.00016668    0.00012024
     atom    2 type  2   force =    -0.00004062   -0.00002487    0.00012425
     atom    3 type  2   force =    -0.00002481   -0.00002910    0.00016347
     atom    4 type  1   force =    -0.00008913    0.00010278    0.00046000
     atom    5 type  2   force =     0.00004723    0.00009106    0.00024992
     atom    6 type  2   force =     0.00007617   -0.00010631    0.00015003
     atom    7 type  1   force =     0.00041558    0.00021125    0.00070065
     atom    8 type  2   force =    -0.00014757    0.00008394    0.00015526
     atom    9 type  2   force =    -0.00003595    0.00007858    0.00025705
     atom   10 type  1   force =    -0.00005612   -0.00013538    0.00018629
     atom   11 type  2   force =     0.00003800   -0.00017979    0.00013546
     atom   12 type  2   force =     0.00004641   -0.00000632    0.00022883
     atom   13 type  1   force =     0.00010493   -0.00018047    0.00009596
     atom   14 type  2   force =     0.00005976    0.00002061    0.00012517
     atom   15 type  2   force =     0.00003752   -0.00001120    0.00014833
     atom   16 type  1   force =     0.00027006   -0.00021275    0.00056698
     atom   17 type  2   force =     0.00006068    0.00001175    0.00022437
     atom   18 type  2   force =    -0.00003530   -0.00011039    0.00008063
     atom   19 type  1   force =     0.00000663    0.00028838    0.00035117
     atom   20 type  2   force =     0.00006356    0.00014680    0.00011295
     atom   21 type  1   force =     0.00018952   -0.00007084    0.00018669
     atom   22 type  2   force =     0.00008728   -0.00005492    0.00014525
     atom   23 type  2   force =    -0.00001266    0.00003524    0.00013133
     atom   24 type  1   force =    -0.00018955   -0.00016143    0.00011199
     atom   25 type  2   force =    -0.00001658   -0.00002973    0.00011872
     atom   26 type  2   force =    -0.00000021   -0.00004445    0.00013657
     atom   27 type  1   force =    -0.00015685    0.00001093    0.00024317
     atom   28 type  2   force =    -0.00010767    0.00003335    0.00016288
     atom   29 type  2   force =    -0.00004094   -0.00003040    0.00013627
     atom   30 type  1   force =    -0.00037371    0.00013491    0.00036108
     atom   31 type  2   force =    -0.00001213    0.00002824    0.00017393
     atom   32 type  2   force =    -0.00002620    0.00005164    0.00013025
     atom   33 type  1   force =    -0.00013014    0.00002366    0.00004397
     atom   34 type  2   force =    -0.00011782   -0.00001196    0.00009253
     atom   35 type  2   force =    -0.00004100    0.00004251    0.00017554
     atom   36 type  3   force =    -0.00007022    0.00007818    0.00032459

     Total force =     0.154980     Total SCF correction =     0.001789

     BFGS Geometry Optimization
     Energy error            =      0.0E+00 Ry
     Gradient error          =      6.4E-02 Ry/Bohr

     number of scf cycles    =   1
     number of bfgs steps    =   0

     energy             new  =   -2246.2254279859 Ry

     new trust radius        =       0.0769914553 bohr
     new conv_thr            =       0.0000010000 Ry


ATOMIC_POSITIONS (angstrom)
Mo            6.5840903989        1.7729598252        2.8231828941
S             8.1680804776        0.8190282366        4.4342374406
S             8.1871918759        0.8158542520        1.2770844879
Mo            8.0961543098        4.4965324874        2.7185599684
S             6.4991366188        3.7173313839        4.3414285145
S             6.5539279180        3.5168348614        1.1198860717
Mo            6.5017526185        7.2064321084        2.6894123626
S             8.0503212800        6.3331524135        4.2660977159
S             8.0871840609        6.3076796027        1.0900307718
Mo            8.1534345969        9.9054069075        2.8305616588
S             6.5013925171        8.9455916340        4.3767068898
S             6.6157912899        9.0491979718        1.1427032600
Mo            3.4242195041        1.7506119125        2.7737951867
S             4.9799578301        0.8178354471        4.3574650709
S             5.0508026924        0.8476417777        1.2216147307
Mo            4.9817612171        4.5178577162        2.6427849262
S             3.4316928709        3.6707888516        4.2807388093
S             3.4369494022        3.5444155797        1.0651678693
Mo            3.4469575195        7.2103787262        2.6276193839
S             4.9841423342        6.3245032270        1.0377763610
Mo            5.0087650150        9.9051922311        2.7432145103
S             3.4693173790        8.9436466673        4.3237577881
S             3.4090934368        9.0669178567        1.1014594617
Mo            0.2911271860        1.7468729604        2.8380510444
S             1.8592834601        0.8029093448        4.4006074084
S             1.8548610724        0.8541324186        1.2084924691
Mo            1.8592707591        4.4964889584        2.6634310254
S             0.2727879591        3.6526976860        4.3358303563
S             0.2343283212        3.5264174659        1.1698566007
Mo            0.2782762774        7.2209812416        2.6991765301
S             1.9045811650        6.3148368720        4.2279376984
S             1.8575357695        6.3147552070        1.0498302948
Mo            1.8516429112        9.9349701698        2.7678792248
S             0.2974366914        9.0687480368        4.4076824594
S             0.2715704909        9.0492968889        1.1567757126
O             6.3220344517        6.0836585939        5.3154858609



     Writing config-only to output data dir ./MoS2-V-O.save/
     NEW-OLD atomic charge density approx. for the potential

     negative rho (up, down):  1.844E-04 0.000E+00

     total cpu time spent up to now is      133.4 secs

     Self-consistent Calculation

     iteration #  1     ecut=    80.00 Ry     beta= 0.70
     Davidson diagonalization with overlap
     ethr =  1.00E-06,  avg # of iterations = 11.0

     negative rho (up, down):  8.747E-05 0.000E+00

     total cpu time spent up to now is      147.9 secs

     total energy              =   -2246.24633260 Ry
     estimated scf accuracy    <       0.01040823 Ry

     iteration #  2     ecut=    80.00 Ry     beta= 0.70
     Davidson diagonalization with overlap
     ethr =  3.34E-06,  avg # of iterations =  2.0

     negative rho (up, down):  7.748E-05 0.000E+00

     total cpu time spent up to now is      161.3 secs

     total energy              =   -2246.24665636 Ry
     estimated scf accuracy    <       0.00985546 Ry

     iteration #  3     ecut=    80.00 Ry     beta= 0.70
     Davidson diagonalization with overlap
     ethr =  3.16E-06,  avg # of iterations =  2.0

     negative rho (up, down):  6.082E-05 0.000E+00

     total cpu time spent up to now is      179.5 secs

     total energy              =   -2246.24748962 Ry
     estimated scf accuracy    <       0.00247067 Ry

     iteration #  4     ecut=    80.00 Ry     beta= 0.70
     Davidson diagonalization with overlap
     ethr =  7.92E-07,  avg # of iterations =  1.0

     negative rho (up, down):  4.725E-05 0.000E+00

     total cpu time spent up to now is      193.9 secs

     total energy              =   -2246.24757618 Ry
     estimated scf accuracy    <       0.00018680 Ry

     iteration #  5     ecut=    80.00 Ry     beta= 0.70
     Davidson diagonalization with overlap
     ethr =  5.99E-08,  avg # of iterations =  5.0

     negative rho (up, down):  3.890E-05 0.000E+00

     total cpu time spent up to now is      207.6 secs

     total energy              =   -2246.24759278 Ry
     estimated scf accuracy    <       0.00002883 Ry

     iteration #  6     ecut=    80.00 Ry     beta= 0.70
     Davidson diagonalization with overlap
     ethr =  9.24E-09,  avg # of iterations =  5.0

     negative rho (up, down):  3.423E-05 0.000E+00

     total cpu time spent up to now is      219.2 secs

     total energy              =   -2246.24759866 Ry
     estimated scf accuracy    <       0.00001015 Ry

     iteration #  7     ecut=    80.00 Ry     beta= 0.70
     Davidson diagonalization with overlap
     ethr =  3.25E-09,  avg # of iterations =  2.0

     negative rho (up, down):  3.188E-05 0.000E+00

     total cpu time spent up to now is      230.3 secs

     total energy              =   -2246.24759958 Ry
     estimated scf accuracy    <       0.00000330 Ry

     iteration #  8     ecut=    80.00 Ry     beta= 0.70
     Davidson diagonalization with overlap
     ethr =  1.06E-09,  avg # of iterations =  2.0

     negative rho (up, down):  3.630E-05 0.000E+00

     total cpu time spent up to now is      241.0 secs

     total energy              =   -2246.24760036 Ry
     estimated scf accuracy    <       0.00000108 Ry

     iteration #  9     ecut=    80.00 Ry     beta= 0.70
     Davidson diagonalization with overlap
     ethr =  3.45E-10,  avg # of iterations =  5.0

     negative rho (up, down):  1.751E-04 0.000E+00

     total cpu time spent up to now is      244.4 secs

     End of self-consistent calculation

          k = 0.0000 0.0000 0.0000 (105382 PWs)   bands (ev):

   -63.0286 -63.0217 -62.9966 -62.9924 -62.9841 -62.9815 -62.9735 -62.9650
   -62.9609 -62.9544 -62.8962 -62.8804 -37.3826 -37.3213 -37.2999 -37.2706
   -37.2688 -37.2507 -37.2313 -37.2228 -37.2093 -37.2056 -37.1996 -37.1878
   -37.1812 -37.1742 -37.1688 -37.1663 -37.1566 -37.1528 -37.1488 -37.1434
   -37.1382 -37.1351 -37.1147 -37.0817 -37.0795 -37.0716 -37.0591 -37.0501
   -37.0368 -37.0297 -37.0139 -36.9984 -36.9760 -36.9375 -36.9186 -36.8730
   -18.3059 -16.0725 -15.3080 -15.2558 -15.0771 -15.0254 -14.8917 -14.6318
   -14.5955 -14.5641 -14.5264 -14.5110 -14.4609 -14.4407 -14.3960 -14.2686
   -14.2507 -14.2411 -14.2141 -14.1549 -13.9988 -13.9867 -13.9651 -13.9419
    -7.7997  -7.6254  -7.4630  -7.4534  -7.3750  -7.3355  -7.3174  -7.2585
    -7.0006  -6.9569  -6.9221  -6.8988  -6.7997  -6.7338  -6.6754  -6.5612
    -6.5261  -6.4195  -6.3975  -6.2067  -6.0821  -6.0453  -5.9995  -5.9632
    -5.9016  -5.8802  -5.8494  -5.8162  -5.7891  -5.7678  -5.6781  -5.6544
    -5.6199  -5.5622  -5.5529  -5.2844  -5.2678  -5.2439  -5.1717  -5.1055
    -5.0603  -5.0438  -4.9917  -4.8521  -4.6978  -4.5168  -4.4507  -4.3946
    -4.3768  -4.3493  -4.2076  -4.1522  -4.0813  -3.9488  -3.9212  -3.8764
    -3.8660  -3.8011  -3.7246  -3.6789  -3.6631  -3.6357  -3.6131  -3.5644
    -3.5488  -3.5092  -3.3860  -3.2905  -3.1904  -3.0309  -2.9663  -2.9261
    -2.9011  -2.8645  -2.8341  -2.8070  -2.7919  -2.7505  -2.6965  -2.3943
    -2.2608  -2.1252  -1.9853  -1.6476  -1.5633  -0.9461  -0.6766  -0.2978
    -0.2655  -0.2141  -0.1074  -0.0744   0.0029   0.0324   0.1290   0.1564
     0.1760   0.2528   0.2803   0.3618   0.3987   0.4063   0.4438   0.4647
     0.5524   0.5898   0.6112   0.6550   0.6846   0.7158   0.7685   0.7843
     0.8554   0.9176   1.0302

     the Fermi energy is    -1.6055 ev

!    total energy              =   -2246.24760090 Ry
     estimated scf accuracy    <       0.00000046 Ry
     smearing contrib. (-TS)   =      -0.01025375 Ry
     internal energy E=F+TS    =   -2246.23734715 Ry

     The total energy is F=E-TS. E is the sum of the following terms:
     one-electron contribution =  -18440.78588284 Ry
     hartree contribution      =    9208.19258787 Ry
     xc contribution           =    -391.76836175 Ry
     ewald contribution        =    7388.00042573 Ry
     one-center paw contrib.   =      -9.87611616 Ry

     convergence has been achieved in   9 iterations

     negative rho (up, down):  1.751E-04 0.000E+00

     Forces acting on atoms (cartesian axes, Ry/au):

     atom    1 type  1   force =     0.00554103   -0.01439785   -0.00352573
     atom    2 type  2   force =    -0.01005453    0.01105298   -0.00238634
     atom    3 type  2   force =    -0.00969516    0.00628316   -0.00830595
     atom    4 type  1   force =     0.00328362    0.00180077    0.00241488
     atom    5 type  2   force =     0.00061507   -0.01450615   -0.00873320
     atom    6 type  2   force =     0.00078680    0.00705862    0.00091570
     atom    7 type  1   force =     0.01038317   -0.01330426    0.01792095
     atom    8 type  2   force =    -0.05935752   -0.02279991    0.04809856
     atom    9 type  2   force =     0.01091211    0.00544055    0.01171566
     atom   10 type  1   force =    -0.00458349    0.00502279   -0.00932041
     atom   11 type  2   force =     0.01007020    0.00666810   -0.01067056
     atom   12 type  2   force =    -0.00655038   -0.00359984    0.00579953
     atom   13 type  1   force =     0.00469253    0.00397802   -0.00191998
     atom   14 type  2   force =     0.00703411    0.00148049    0.00862465
     atom   15 type  2   force =    -0.00977722    0.00211904   -0.00770965
     atom   16 type  1   force =    -0.00042843    0.00604792    0.00980391
     atom   17 type  2   force =     0.00498687   -0.00051409    0.00364394
     atom   18 type  2   force =     0.00034968   -0.00346975    0.01246412
     atom   19 type  1   force =    -0.00682590   -0.00902539   -0.00392566
     atom   20 type  2   force =     0.00454202   -0.00360254    0.00542205
     atom   21 type  1   force =    -0.00433542    0.00409148    0.00144953
     atom   22 type  2   force =    -0.00217605   -0.00123133   -0.00368397
     atom   23 type  2   force =     0.00243413    0.00229926    0.00571118
     atom   24 type  1   force =    -0.00490548   -0.00085693   -0.00908133
     atom   25 type  2   force =     0.01127721    0.01440859   -0.00202400
     atom   26 type  2   force =    -0.00718767   -0.00130545   -0.00248462
     atom   27 type  1   force =    -0.00172848    0.00130560    0.00633783
     atom   28 type  2   force =     0.00012885   -0.00387588   -0.00419284
     atom   29 type  2   force =     0.00465635    0.00072484   -0.00437673
     atom   30 type  1   force =     0.00453306    0.00380272    0.00321344
     atom   31 type  2   force =     0.00305962    0.00151473    0.00957464
     atom   32 type  2   force =    -0.00836408    0.00666721    0.00604026
     atom   33 type  1   force =     0.00666631   -0.00316826   -0.00043707
     atom   34 type  2   force =     0.00063610   -0.02994032   -0.01530769
     atom   35 type  2   force =    -0.00729033    0.00859916    0.00643205
     atom   36 type  3   force =     0.04667130    0.02523189   -0.06749718
     The non-local contrib.  to forces
     atom    1 type  1   force =     0.00019946    0.04499778   -0.00719026
     atom    2 type  2   force =    -0.00297356   -0.00522283   -0.27430975
     atom    3 type  2   force =    -0.00955817   -0.00576489    0.26051769
     atom    4 type  1   force =     0.00153935    0.01674108    0.01036339
     atom    5 type  2   force =     0.00931987   -0.01403453   -0.27263453
     atom    6 type  2   force =    -0.00307654    0.01003797    0.26858396
     atom    7 type  1   force =    -0.00286345   -0.00431429   -0.01923381
     atom    8 type  2   force =    -0.24349904   -0.06399236   -0.06640303
     atom    9 type  2   force =     0.00527228   -0.00330700    0.28157259
     atom   10 type  1   force =    -0.00095959    0.01655774   -0.00408266
     atom   11 type  2   force =     0.01414424    0.01565893   -0.26744511
     atom   12 type  2   force =    -0.01207251   -0.02247898    0.26668746
     atom   13 type  1   force =    -0.00336269    0.01780793   -0.00446944
     atom   14 type  2   force =     0.00948312   -0.01077177   -0.26743588
     atom   15 type  2   force =    -0.01149528   -0.00822433    0.26061548
     atom   16 type  1   force =     0.00606040    0.01278923   -0.03708720
     atom   17 type  2   force =     0.00252906   -0.02808426   -0.25499037
     atom   18 type  2   force =     0.00169349   -0.00055008    0.27641736
     atom   19 type  1   force =     0.01834527    0.00139768   -0.01859619
     atom   20 type  2   force =     0.00048644   -0.02047721    0.26699090
     atom   21 type  1   force =    -0.00090787    0.02603420    0.00541300
     atom   22 type  2   force =    -0.00473816    0.00413445   -0.26228475
     atom   23 type  2   force =     0.00606909   -0.01706925    0.26589006
     atom   24 type  1   force =     0.00467736    0.01078808   -0.00940673
     atom   25 type  2   force =     0.00597760    0.00041489   -0.26808292
     atom   26 type  2   force =    -0.00049997   -0.01256581    0.25979876
     atom   27 type  1   force =     0.00107015    0.00700447    0.00901625
     atom   28 type  2   force =    -0.01026406   -0.01976993   -0.27375184
     atom   29 type  2   force =     0.01043568    0.00118302    0.26013597
     atom   30 type  1   force =    -0.00332964   -0.00110677   -0.00219255
     atom   31 type  2   force =    -0.00637158   -0.00506110   -0.24816214
     atom   32 type  2   force =    -0.00489376   -0.00178052    0.27084635
     atom   33 type  1   force =    -0.00116427    0.01364521    0.00150514
     atom   34 type  2   force =     0.00122141   -0.02492350   -0.27409630
     atom   35 type  2   force =    -0.00054956   -0.01321535    0.26805175
     atom   36 type  3   force =     0.53444719    0.07547214   -0.57084647
     The ionic contribution  to forces
     atom    1 type  1   force =     0.14681431   -0.30970172    4.22531995
     atom    2 type  2   force =    -0.27764810    0.20041917   39.16133186
     atom    3 type  2   force =    -0.05652916   -0.01573527  -36.74413929
     atom    4 type  1   force =     1.73270071   -0.98686629   -2.44933743
     atom    5 type  2   force =    -0.75189343   -1.28073243   37.45200529
     atom    6 type  2   force =     0.29468942   -0.81269497  -38.83721481
     atom    7 type  1   force =    -2.62233504   -0.35797791   -2.35585443
     atom    8 type  2   force =     3.20660342    0.64131626   35.11102829
     atom    9 type  2   force =     0.53229932    0.02695921  -39.00303265
     atom   10 type  1   force =    -0.33607556    0.55270810    3.94194714
     atom   11 type  2   force =    -0.46494991    0.35952732   38.32363488
     atom   12 type  2   force =     0.35576701    0.78562928  -38.58071661
     atom   13 type  1   force =     0.09995549    0.43850221    1.72071781
     atom   14 type  2   force =    -0.16101096   -0.07620013   38.36196446
     atom   15 type  2   force =     0.10252326   -0.05051789  -37.40825136
     atom   16 type  1   force =    -1.43069496    2.11710330   -2.73305041
     atom   17 type  2   force =     0.07546915    0.73572876   37.52368202
     atom   18 type  2   force =    -0.24030796   -0.75462271  -39.14610727
     atom   19 type  1   force =     1.73762159   -1.62595986   -1.80631410
     atom   20 type  2   force =     0.09454702   -0.07888073  -39.53479575
     atom   21 type  1   force =    -0.34669452    0.88244539   -0.26297464
     atom   22 type  2   force =    -0.04034073   -1.04324414   38.07880240
     atom   23 type  2   force =    -0.11770638    0.78554749  -38.89658565
     atom   24 type  1   force =    -0.02936607    0.56694978    4.52798995
     atom   25 type  2   force =     0.49888419    0.17593747   39.04922530
     atom   26 type  2   force =    -0.25069744    0.03679655  -37.75620853
     atom   27 type  1   force =    -0.15288701   -0.17517639   -3.51546536
     atom   28 type  2   force =     0.56647141    0.39249319   37.85718026
     atom   29 type  2   force =    -0.14418401   -0.52840764  -37.92991031
     atom   30 type  1   force =     0.36142524   -0.48857824   -1.81779270
     atom   31 type  2   force =     0.96324098   -0.01863479   37.04628940
     atom   32 type  2   force =    -0.49781220   -0.06217793  -39.35282684
     atom   33 type  1   force =     0.51865842   -0.08119580    1.10001334
     atom   34 type  2   force =     0.53671984   -0.73408395   38.99404241
     atom   35 type  2   force =    -0.19746463    0.64457557  -38.36188918
     atom   36 type  3   force =    -3.70579272    0.13874974   44.01729257
     The local contribution  to forces
     atom    1 type  1   force =    -0.14152106    0.25038286   -4.22241037
     atom    2 type  2   force =     0.27049460   -0.18424713  -38.91086029
     atom    3 type  2   force =     0.05596244    0.02759772   36.49579011
     atom    4 type  1   force =    -1.73117058    0.97150927    2.44043222
     atom    5 type  2   force =     0.74396114    1.27838421  -37.21037647
     atom    6 type  2   force =    -0.29116491    0.81079545   38.59047345
     atom    7 type  1   force =     2.63509506    0.34898697    2.39212796
     atom    8 type  2   force =    -3.03489638   -0.60345159  -35.00806991
     atom    9 type  2   force =    -0.52667536   -0.01846348   38.75427361
     atom   10 type  1   force =     0.33235024   -0.56404346   -3.94800668
     atom   11 type  2   force =     0.46161616   -0.36713907  -38.08869135
     atom   12 type  2   force =    -0.35128114   -0.76820586   38.34069305
     atom   13 type  1   force =    -0.09187833   -0.45226391   -1.71887724
     atom   14 type  2   force =     0.15909587    0.08834465  -38.10716748
     atom   15 type  2   force =    -0.10148983    0.06038201   37.16038166
     atom   16 type  1   force =     1.42414820   -2.12381724    2.77927394
     atom   17 type  2   force =    -0.07295815   -0.70965347  -37.28607772
     atom   18 type  2   force =     0.23921026    0.75229252   38.90329838
     atom   19 type  1   force =    -1.76253082    1.61544245    1.82030302
     atom   20 type  2   force =    -0.09070121    0.09482071   39.29443267
     atom   21 type  1   force =     0.34328103   -0.90436534    0.25826534
     atom   22 type  2   force =     0.04277867    1.03846087  -37.84142304
     atom   23 type  2   force =     0.11452515   -0.76746910   38.65712000
     atom   24 type  1   force =     0.01976748   -0.57855190   -4.52840665
     atom   25 type  2   force =    -0.49352878   -0.16168020  -38.80454187
     atom   26 type  2   force =     0.24423046   -0.02616492   37.51450859
     atom   27 type  1   force =     0.15034202    0.16930463    3.51208276
     atom   28 type  2   force =    -0.55658081   -0.37819480  -37.60896619
     atom   29 type  2   force =     0.13916949    0.52841384   37.68569753
     atom   30 type  1   force =    -0.35342184    0.49361785    1.82231151
     atom   31 type  2   force =    -0.95418737    0.02487070  -36.80932043
     atom   32 type  2   force =     0.49445728    0.07045148   39.10885083
     atom   33 type  1   force =    -0.51071715    0.06449810   -1.10268149
     atom   34 type  2   force =    -0.53745646    0.72832484  -38.75680466
     atom   35 type  2   force =     0.19084759   -0.62380427   38.12110059
     atom   36 type  3   force =     3.22364559   -0.18814767  -43.52041102
     The core correction contribution to forces
     atom    1 type  1   force =     0.00000000    0.00000000    0.00000000
     atom    2 type  2   force =     0.00001151    0.00016724    0.02103530
     atom    3 type  2   force =     0.00039616    0.00020953   -0.02058512
     atom    4 type  1   force =     0.00000000    0.00000000    0.00000000
     atom    5 type  2   force =    -0.00088004    0.00183448    0.02185399
     atom    6 type  2   force =     0.00030103   -0.00108659   -0.02099563
     atom    7 type  1   force =     0.00000000    0.00000000    0.00000000
     atom    8 type  2   force =     0.01232323    0.00331298    0.01120517
     atom    9 type  2   force =    -0.00004462    0.00022400   -0.02129390
     atom   10 type  1   force =     0.00000000    0.00000000    0.00000000
     atom   11 type  2   force =    -0.00082876   -0.00133554    0.02143467
     atom   12 type  2   force =     0.00100970    0.00150936   -0.02098395
     atom   13 type  1   force =     0.00000000    0.00000000    0.00000000
     atom   14 type  2   force =    -0.00051780    0.00012528    0.02085856
     atom   15 type  2   force =     0.00069690    0.00048644   -0.02054965
     atom   16 type  1   force =     0.00000000    0.00000000    0.00000000
     atom   17 type  2   force =     0.00000487    0.00150627    0.02060918
     atom   18 type  2   force =    -0.00020156   -0.00059152   -0.02119466
     atom   19 type  1   force =     0.00000000    0.00000000    0.00000000
     atom   20 type  2   force =     0.00019194    0.00087581   -0.02125337
     atom   21 type  1   force =     0.00000000    0.00000000    0.00000000
     atom   22 type  2   force =     0.00015707   -0.00056300    0.02085175
     atom   23 type  2   force =    -0.00043369    0.00132046   -0.02082803
     atom   24 type  1   force =     0.00000000    0.00000000    0.00000000
     atom   25 type  2   force =    -0.00000167   -0.00022032    0.02101203
     atom   26 type  2   force =    -0.00021081    0.00065440   -0.02070854
     atom   27 type  1   force =     0.00000000    0.00000000    0.00000000
     atom   28 type  2   force =     0.00054258    0.00149365    0.02096862
     atom   29 type  2   force =    -0.00077442   -0.00052413   -0.02041828
     atom   30 type  1   force =     0.00000000    0.00000000    0.00000000
     atom   31 type  2   force =     0.00051256    0.00029994    0.02040543
     atom   32 type  2   force =    -0.00003479    0.00016270   -0.02098282
     atom   33 type  1   force =     0.00000000    0.00000000    0.00000000
     atom   34 type  2   force =     0.00021226    0.00079406    0.02120193
     atom   35 type  2   force =    -0.00012512    0.00109286   -0.02100278
     atom   36 type  3   force =    -0.00582774   -0.00091639    0.00624127
     The Hubbard contrib.    to forces
     atom    1 type  1   force =     0.00000000    0.00000000    0.00000000
     atom    2 type  2   force =     0.00000000    0.00000000    0.00000000
     atom    3 type  2   force =     0.00000000    0.00000000    0.00000000
     atom    4 type  1   force =     0.00000000    0.00000000    0.00000000
     atom    5 type  2   force =     0.00000000    0.00000000    0.00000000
     atom    6 type  2   force =     0.00000000    0.00000000    0.00000000
     atom    7 type  1   force =     0.00000000    0.00000000    0.00000000
     atom    8 type  2   force =     0.00000000    0.00000000    0.00000000
     atom    9 type  2   force =     0.00000000    0.00000000    0.00000000
     atom   10 type  1   force =     0.00000000    0.00000000    0.00000000
     atom   11 type  2   force =     0.00000000    0.00000000    0.00000000
     atom   12 type  2   force =     0.00000000    0.00000000    0.00000000
     atom   13 type  1   force =     0.00000000    0.00000000    0.00000000
     atom   14 type  2   force =     0.00000000    0.00000000    0.00000000
     atom   15 type  2   force =     0.00000000    0.00000000    0.00000000
     atom   16 type  1   force =     0.00000000    0.00000000    0.00000000
     atom   17 type  2   force =     0.00000000    0.00000000    0.00000000
     atom   18 type  2   force =     0.00000000    0.00000000    0.00000000
     atom   19 type  1   force =     0.00000000    0.00000000    0.00000000
     atom   20 type  2   force =     0.00000000    0.00000000    0.00000000
     atom   21 type  1   force =     0.00000000    0.00000000    0.00000000
     atom   22 type  2   force =     0.00000000    0.00000000    0.00000000
     atom   23 type  2   force =     0.00000000    0.00000000    0.00000000
     atom   24 type  1   force =     0.00000000    0.00000000    0.00000000
     atom   25 type  2   force =     0.00000000    0.00000000    0.00000000
     atom   26 type  2   force =     0.00000000    0.00000000    0.00000000
     atom   27 type  1   force =     0.00000000    0.00000000    0.00000000
     atom   28 type  2   force =     0.00000000    0.00000000    0.00000000
     atom   29 type  2   force =     0.00000000    0.00000000    0.00000000
     atom   30 type  1   force =     0.00000000    0.00000000    0.00000000
     atom   31 type  2   force =     0.00000000    0.00000000    0.00000000
     atom   32 type  2   force =     0.00000000    0.00000000    0.00000000
     atom   33 type  1   force =     0.00000000    0.00000000    0.00000000
     atom   34 type  2   force =     0.00000000    0.00000000    0.00000000
     atom   35 type  2   force =     0.00000000    0.00000000    0.00000000
     atom   36 type  3   force =     0.00000000    0.00000000    0.00000000
     The SCF correction term to forces
     atom    1 type  1   force =     0.00004782   -0.00007659    0.00073369
     atom    2 type  2   force =     0.00006052   -0.00006327    0.00039527
     atom    3 type  2   force =     0.00003307   -0.00002374    0.00008939
     atom    4 type  1   force =     0.00021364    0.00041689    0.00093544
     atom    5 type  2   force =     0.00010704    0.00004231    0.00039725
     atom    6 type  2   force =     0.00003731    0.00000694    0.00004746
     atom    7 type  1   force =     0.00048610    0.00000117    0.00085996
     atom    8 type  2   force =     0.00011076    0.00001498    0.00031677
     atom    9 type  2   force =     0.00005998    0.00002801    0.00017474
     atom   10 type  1   force =     0.00010092   -0.00019940    0.00080051
     atom   11 type  2   force =     0.00008797   -0.00004335    0.00037508
     atom   12 type  2   force =     0.00002606   -0.00005345    0.00009831
     atom   13 type  1   force =    -0.00002244   -0.00006803    0.00068762
     atom   14 type  2   force =    -0.00001661   -0.00001734    0.00038372
     atom   15 type  2   force =    -0.00001277   -0.00000701    0.00007295
     atom   16 type  1   force =     0.00005743   -0.00002718    0.00064631
     atom   17 type  2   force =    -0.00005856   -0.00001121    0.00039956
     atom   18 type  2   force =    -0.00004505    0.00000224    0.00002905
     atom   19 type  1   force =    -0.00026244    0.00009453    0.00066034
     atom   20 type  2   force =     0.00001734    0.00005907    0.00002631
     atom   21 type  1   force =    -0.00001456   -0.00002258    0.00072455
     atom   22 type  2   force =    -0.00003340   -0.00001932    0.00034839
     atom   23 type  2   force =    -0.00002054   -0.00003016    0.00009354
     atom   24 type  1   force =     0.00001526   -0.00004271    0.00072084
     atom   25 type  2   force =    -0.00005463   -0.00004306    0.00034219
     atom   26 type  2   force =    -0.00001041   -0.00002548    0.00010384
     atom   27 type  1   force =    -0.00025413    0.00017309    0.00068292
     atom   28 type  2   force =    -0.00004078    0.00010220    0.00035504
     atom   29 type  2   force =     0.00000912    0.00005995    0.00009709
     atom   30 type  1   force =    -0.00014120   -0.00012993    0.00086591
     atom   31 type  2   force =    -0.00013547    0.00004016    0.00034111
     atom   32 type  2   force =    -0.00008110    0.00001167    0.00013147
     atom   33 type  1   force =    -0.00011119   -0.00011559    0.00070467
     atom   34 type  2   force =    -0.00006146   -0.00005159    0.00032765
     atom   35 type  2   force =     0.00000090   -0.00004947    0.00015040
     atom   36 type  3   force =     0.00019848    0.00007426    0.00020521

     Total force =     0.139261     Total SCF correction =     0.003070
     Energy error            =      2.2E-02 Ry
     Gradient error          =      6.7E-02 Ry/Bohr

     number of scf cycles    =   2
     number of bfgs steps    =   1

     energy             old  =   -2246.2254279859 Ry
     energy             new  =   -2246.2476008952 Ry

     CASE: energy            _new < energy            _old


     WARNING: bfgs curvature condition failed, Theta= 0.944
     new trust radius        =       0.0846906009 bohr
     new conv_thr            =       0.0000000675 Ry


ATOMIC_POSITIONS (angstrom)
Mo            6.5897081268        1.7622529389        2.8218028398
S             8.1612835249        0.8264369843        4.4333074865
S             8.1815292143        0.8197967885        1.2739448192
Mo            8.0976598534        4.4977224935        2.7196719709
S             6.4990438186        3.7104069990        4.3364097019
S             6.5544218230        3.5212309435        1.1196525420
Mo            6.5098902189        7.1972086001        2.7023671200
S             8.0178345505        6.3211998822        4.2917132856
S             8.0933490252        6.3106958321        1.0964306776
Mo            8.1490647776        9.9083783946        2.8223442098
S             6.5072546808        8.9489035047        4.3705724321
S             6.6127185142        9.0481630006        1.1457707668
Mo            3.4268178652        1.7533957683        2.7720951443
S             4.9842263068        0.8186890997        4.3631117044
S             5.0447249908        0.8489026241        1.2170179974
Mo            4.9823993122        4.5217464623        2.6499938302
S             3.4348964415        3.6702967652        4.2823816582
S             3.4366886248        3.5417433088        1.0720761192
Mo            3.4419340092        7.2049813515        2.6250874408
S             4.9860435239        6.3223270292        1.0398263343
Mo            5.0059209638        9.9079897257        2.7436349916
S             3.4679350292        8.9431866331        4.3217867734
S             3.4101817582        9.0684544350        1.1055118172
Mo            0.2875164071        1.7463323252        2.8305041078
S             1.8665718322        0.8118087896        4.4008562578
S             1.8500919091        0.8535732836        1.2072914941
Mo            1.8581268686        4.4972549080        2.6668529311
S             0.2730563380        3.6507131182        4.3337173287
S             0.2371244816        3.5263389102        1.1675216006
Mo            0.2826053387        7.2239710027        2.6992848663
S             1.9065388737        6.3161494907        4.2333451714
S             1.8528497484        6.3187498164        1.0539476774
Mo            1.8567654111        9.9318702758        2.7657488620
S             0.2982491287        9.0502465135        4.4000523577
S             0.2670550198        9.0544808845        1.1614581713
O             6.3447753681        6.0969586381        5.2792303301



     Writing config-only to output data dir ./MoS2-V-O.save/
     NEW-OLD atomic charge density approx. for the potential

     negative rho (up, down):  1.882E-04 0.000E+00

     total cpu time spent up to now is      251.6 secs

     Self-consistent Calculation

     iteration #  1     ecut=    80.00 Ry     beta= 0.70
     Davidson diagonalization with overlap
     ethr =  1.00E-06,  avg # of iterations = 14.0

     negative rho (up, down):  9.067E-05 0.000E+00

     total cpu time spent up to now is      263.8 secs

     total energy              =   -2246.26643927 Ry
     estimated scf accuracy    <       0.01045311 Ry

     iteration #  2     ecut=    80.00 Ry     beta= 0.70
     Davidson diagonalization with overlap
     ethr =  3.35E-06,  avg # of iterations =  2.0

     negative rho (up, down):  7.361E-05 0.000E+00

     total cpu time spent up to now is      273.4 secs

     total energy              =   -2246.26710127 Ry
     estimated scf accuracy    <       0.00501086 Ry

     iteration #  3     ecut=    80.00 Ry     beta= 0.70
     Davidson diagonalization with overlap
     ethr =  1.61E-06,  avg # of iterations =  2.0

     negative rho (up, down):  5.967E-05 0.000E+00

     total cpu time spent up to now is      289.6 secs

     total energy              =   -2246.26751086 Ry
     estimated scf accuracy    <       0.00136853 Ry

     iteration #  4     ecut=    80.00 Ry     beta= 0.70
     Davidson diagonalization with overlap
     ethr =  4.39E-07,  avg # of iterations =  2.0

     negative rho (up, down):  4.716E-05 0.000E+00

     total cpu time spent up to now is      303.6 secs

     total energy              =   -2246.26757202 Ry
     estimated scf accuracy    <       0.00011150 Ry

     iteration #  5     ecut=    80.00 Ry     beta= 0.70
     Davidson diagonalization with overlap
     ethr =  3.57E-08,  avg # of iterations =  6.0

     negative rho (up, down):  3.774E-05 0.000E+00

     total cpu time spent up to now is      316.2 secs

     total energy              =   -2246.26758559 Ry
     estimated scf accuracy    <       0.00003963 Ry

     iteration #  6     ecut=    80.00 Ry     beta= 0.70
     Davidson diagonalization with overlap
     ethr =  1.27E-08,  avg # of iterations =  4.0

     negative rho (up, down):  3.192E-05 0.000E+00

     total cpu time spent up to now is      327.9 secs

     total energy              =   -2246.26758836 Ry
     estimated scf accuracy    <       0.00001014 Ry

     iteration #  7     ecut=    80.00 Ry     beta= 0.70
     Davidson diagonalization with overlap
     ethr =  3.25E-09,  avg # of iterations =  5.0

     negative rho (up, down):  3.076E-05 0.000E+00

     total cpu time spent up to now is      341.3 secs

     total energy              =   -2246.26759052 Ry
     estimated scf accuracy    <       0.00000239 Ry

     iteration #  8     ecut=    80.00 Ry     beta= 0.70
     Davidson diagonalization with overlap
     ethr =  7.66E-10,  avg # of iterations =  5.0

     negative rho (up, down):  4.028E-05 0.000E+00

     total cpu time spent up to now is      352.5 secs

     total energy              =   -2246.26759158 Ry
     estimated scf accuracy    <       0.00000079 Ry

     iteration #  9     ecut=    80.00 Ry     beta= 0.70
     Davidson diagonalization with overlap
     ethr =  2.54E-10,  avg # of iterations =  4.0

     negative rho (up, down):  5.776E-05 0.000E+00

     total cpu time spent up to now is      363.9 secs

     total energy              =   -2246.26759201 Ry
     estimated scf accuracy    <       0.00000025 Ry

     iteration # 10     ecut=    80.00 Ry     beta= 0.70
     Davidson diagonalization with overlap
     ethr =  7.95E-11,  avg # of iterations =  4.0

     negative rho (up, down):  8.850E-05 0.000E+00

     total cpu time spent up to now is      374.3 secs

     total energy              =   -2246.26759227 Ry
     estimated scf accuracy    <       0.00000009 Ry

     iteration # 11     ecut=    80.00 Ry     beta= 0.70
     Davidson diagonalization with overlap
     ethr =  2.93E-11,  avg # of iterations =  2.0

     negative rho (up, down):  1.792E-04 0.000E+00

     total cpu time spent up to now is      377.7 secs

     End of self-consistent calculation

          k = 0.0000 0.0000 0.0000 (105382 PWs)   bands (ev):

   -63.0120 -63.0031 -62.9816 -62.9726 -62.9683 -62.9604 -62.9560 -62.9528
   -62.9425 -62.9373 -62.8725 -62.8493 -37.3654 -37.3031 -37.2805 -37.2544
   -37.2471 -37.2334 -37.2145 -37.2035 -37.1928 -37.1896 -37.1801 -37.1699
   -37.1623 -37.1569 -37.1535 -37.1516 -37.1420 -37.1359 -37.1284 -37.1273
   -37.1201 -37.1169 -37.0972 -37.0693 -37.0627 -37.0423 -37.0350 -37.0258
   -37.0149 -37.0082 -36.9987 -36.9816 -36.9595 -36.9175 -36.9048 -36.8372
   -18.7535 -16.0551 -15.2952 -15.2339 -15.0555 -15.0026 -14.8748 -14.6111
   -14.5787 -14.5423 -14.5095 -14.4960 -14.4397 -14.4229 -14.3802 -14.2568
   -14.2366 -14.2270 -14.2029 -14.1401 -13.9806 -13.9710 -13.9507 -13.9304
    -7.7923  -7.6166  -7.4690  -7.4601  -7.3495  -7.3246  -7.3023  -7.2496
    -7.0193  -6.9494  -6.9216  -6.9012  -6.8120  -6.7290  -6.6694  -6.5421
    -6.5088  -6.4281  -6.3852  -6.2211  -6.0866  -6.0493  -5.9868  -5.9546
    -5.8869  -5.8691  -5.8340  -5.8037  -5.7759  -5.7493  -5.6782  -5.6457
    -5.6121  -5.5518  -5.5377  -5.2788  -5.2426  -5.2392  -5.1569  -5.0945
    -5.0482  -5.0332  -4.9878  -4.8531  -4.6981  -4.5439  -4.4375  -4.3855
    -4.3710  -4.3330  -4.2102  -4.1408  -4.0842  -3.9602  -3.9148  -3.8676
    -3.8610  -3.7818  -3.7196  -3.6835  -3.6409  -3.6240  -3.6003  -3.5520
    -3.5238  -3.4943  -3.3804  -3.2930  -3.1984  -3.0250  -2.9403  -2.9178
    -2.8889  -2.8567  -2.8237  -2.8040  -2.7758  -2.7365  -2.6705  -2.3906
    -2.3151  -2.1069  -2.0267  -1.6313  -1.5254  -0.8995  -0.6403  -0.2731
    -0.2520  -0.2014  -0.0827  -0.0433   0.0237   0.0433   0.1451   0.1836
     0.1982   0.2706   0.3007   0.3853   0.4171   0.4241   0.4608   0.4919
     0.5617   0.6044   0.6279   0.6719   0.7013   0.7390   0.7842   0.8183
     0.8726   0.9276   1.0725

     the Fermi energy is    -1.5784 ev

!    total energy              =   -2246.26759229 Ry
     estimated scf accuracy    <       0.00000003 Ry
     smearing contrib. (-TS)   =      -0.00969821 Ry
     internal energy E=F+TS    =   -2246.25789408 Ry

     The total energy is F=E-TS. E is the sum of the following terms:
     one-electron contribution =  -18449.34487337 Ry
     hartree contribution      =    9212.57394537 Ry
     xc contribution           =    -391.80243754 Ry
     ewald contribution        =    7392.19086275 Ry
     one-center paw contrib.   =      -9.87539129 Ry

     convergence has been achieved in  11 iterations

     negative rho (up, down):  1.792E-04 0.000E+00

     Forces acting on atoms (cartesian axes, Ry/au):

     atom    1 type  1   force =    -0.00280382   -0.00482734   -0.00522979
     atom    2 type  2   force =    -0.00535294    0.00617497   -0.00284743
     atom    3 type  2   force =    -0.00782643    0.00430702   -0.01213780
     atom    4 type  1   force =     0.00365772    0.00060374    0.00319465
     atom    5 type  2   force =     0.00164526   -0.01812064   -0.00795471
     atom    6 type  2   force =     0.00092320    0.00545030    0.00280762
     atom    7 type  1   force =     0.00244336   -0.00544981    0.00620948
     atom    8 type  2   force =    -0.06420670   -0.02617840    0.05302694
     atom    9 type  2   force =     0.00974801    0.00511082    0.01161620
     atom   10 type  1   force =     0.00097536    0.00370368   -0.00083312
     atom   11 type  2   force =     0.00821034    0.00775214   -0.00876075
     atom   12 type  2   force =    -0.00776272   -0.00627989    0.00581784
     atom   13 type  1   force =     0.00430732    0.00161311   -0.00028831
     atom   14 type  2   force =     0.00522583    0.00115751    0.00538796
     atom   15 type  2   force =    -0.00716173    0.00131960   -0.00613567
     atom   16 type  1   force =    -0.00407675    0.00414165    0.00332235
     atom   17 type  2   force =     0.00307098    0.00059143    0.00517823
     atom   18 type  2   force =     0.00176501   -0.00063218    0.01134801
     atom   19 type  1   force =    -0.00213881   -0.00762396   -0.00255578
     atom   20 type  2   force =     0.00584566   -0.00286267    0.00736152
     atom   21 type  1   force =    -0.00277962    0.00305271    0.00199729
     atom   22 type  2   force =    -0.00130729   -0.00219338   -0.00318336
     atom   23 type  2   force =     0.00294210    0.00132045    0.00280306
     atom   24 type  1   force =    -0.00218159   -0.00045562   -0.00229942
     atom   25 type  2   force =     0.00721764    0.01056898   -0.00514455
     atom   26 type  2   force =    -0.00398950   -0.00168342   -0.00257705
     atom   27 type  1   force =    -0.00133082    0.00105076    0.00610000
     atom   28 type  2   force =    -0.00045634   -0.00417507   -0.00420805
     atom   29 type  2   force =     0.00393855    0.00215084   -0.00400710
     atom   30 type  1   force =    -0.00126893    0.00258145    0.00699445
     atom   31 type  2   force =     0.00218353   -0.00041280    0.00905557
     atom   32 type  2   force =    -0.00793709    0.00527601    0.00325409
     atom   33 type  1   force =     0.00184492    0.00114646    0.00394773
     atom   34 type  2   force =    -0.00061554   -0.02143402   -0.01529692
     atom   35 type  2   force =    -0.00480036    0.00577346    0.00280995
     atom   36 type  3   force =     0.06205218    0.02748211   -0.06877312
     The non-local contrib.  to forces
     atom    1 type  1   force =     0.00035092    0.04140128   -0.00846768
     atom    2 type  2   force =     0.00109773   -0.00870864   -0.27261071
     atom    3 type  2   force =    -0.00737393   -0.00810983    0.25733142
     atom    4 type  1   force =     0.00259565    0.01932483    0.01058999
     atom    5 type  2   force =     0.01035735   -0.02091938   -0.27098738
     atom    6 type  2   force =    -0.00141597    0.00772218    0.27121819
     atom    7 type  1   force =    -0.00020534   -0.00373814   -0.01918294
     atom    8 type  2   force =    -0.28829720   -0.07348339   -0.02644501
     atom    9 type  2   force =     0.00436132   -0.00424609    0.28129170
     atom   10 type  1   force =    -0.00176633    0.01674590   -0.00377500
     atom   11 type  2   force =     0.01184910    0.01572649   -0.26437359
[...]
     atom   28 type  2   force =     0.01399142    0.00302888   -0.26589248
     atom   29 type  2   force =    -0.00395170   -0.01525882    0.27050392
     atom   30 type  1   force =    -0.02089361    0.01805241    0.00696518
     atom   31 type  2   force =    -0.01452458   -0.01023414   -0.25947950
     atom   32 type  2   force =     0.00559828   -0.00225236    0.27080988
     atom   33 type  1   force =    -0.00205191    0.00642193    0.00127340
     atom   34 type  2   force =    -0.00322925   -0.01542017   -0.26732004
     atom   35 type  2   force =     0.00152220   -0.01038636    0.26331958
     atom   36 type  3   force =     1.63940870   -0.29487821   -1.08592423
     The ionic contribution  to forces
     atom    1 type  1   force =    -0.20212902    0.00617652   -0.46658466
     atom    2 type  2   force =    -0.06911836    0.18409493   38.41540482
     atom    3 type  2   force =     0.08952629   -0.23062679  -38.51988573
     atom    4 type  1   force =     0.71601249   -0.28247215   -2.32409929
     atom    5 type  2   force =    -1.24533873   -0.75212589   37.60639847
     atom    6 type  2   force =     0.23351239   -0.15836709  -39.10730910
     atom    7 type  1   force =    -2.04197885    0.53455797   -0.32895041
     atom    8 type  2   force =     5.16448581   -1.23185601   38.92377408
     atom    9 type  2   force =     0.53960002    0.27446395  -37.30860965
     atom   10 type  1   force =     0.00364274    0.04700468    0.50830320
     atom   11 type  2   force =    -0.47294367    0.96576691   37.52453131
     atom   12 type  2   force =     0.42935562   -0.00473343  -38.33648208
     atom   13 type  1   force =    -0.26081739    0.48433871    0.12296538
     atom   14 type  2   force =    -0.18669275    0.11023033   38.32510135
     atom   15 type  2   force =    -0.03936808   -0.17572407  -38.66794949
     atom   16 type  1   force =    -1.30563389    1.68828801   -1.67526568
     atom   17 type  2   force =     0.52151006    0.55716504   37.97617161
     atom   18 type  2   force =    -0.32424942   -0.20747711  -38.85340862
     atom   19 type  1   force =     1.27711711   -1.30904513    1.09443124
     atom   20 type  2   force =    -0.10787392    0.17036099  -39.50771623
     atom   21 type  1   force =    -0.72896230    0.25980973   -1.47747308
     atom   22 type  2   force =     0.05104921   -0.74665856   38.25244852
     atom   23 type  2   force =    -0.25021542    0.17336343  -38.50438588
     atom   24 type  1   force =     0.37357848   -0.18778983   -0.49815932
     atom   25 type  2   force =     0.28626939    0.08559409   38.49057931
     atom   26 type  2   force =    -0.03400429   -0.21015336  -38.32964270
     atom   27 type  1   force =     0.47096070    0.15915394   -1.12349778
     atom   28 type  2   force =     0.68026963   -0.44963776   37.95443228
     atom   29 type  2   force =     0.05807953    0.11665775  -38.77349144
     atom   30 type  1   force =     0.46169504   -0.14935963    2.62213626
     atom   31 type  2   force =     1.60395614    0.06334092   38.20304225
     atom   32 type  2   force =    -0.54585541    0.17384812  -38.32037459
     atom   33 type  1   force =     0.50659185   -0.13099222    1.71879165
     atom   34 type  2   force =     0.52801167    0.37898562   38.84388746
     atom   35 type  2   force =    -0.01433473   -0.17064603  -38.01583940
     atom   36 type  3   force =    -6.16570793   -0.03553654   43.55672594
     The local contribution  to forces
     atom    1 type  1   force =     0.20784992   -0.02787080    0.47523807
     atom    2 type  2   force =     0.06689430   -0.17023976  -38.17051804
     atom    3 type  2   force =    -0.08894985    0.23924488   38.27685542
     atom    4 type  1   force =    -0.73036748    0.25644126    2.31719131
     atom    5 type  2   force =     1.24813925    0.77645474  -37.37806390
     atom    6 type  2   force =    -0.22872017    0.16472845   38.86325759
     atom    7 type  1   force =     2.06970708   -0.55514642    0.40149151
     atom    8 type  2   force =    -4.73572034    1.05580481  -38.65336163
     atom    9 type  2   force =    -0.53231603   -0.25900710   37.05049375
     atom   10 type  1   force =    -0.00458909   -0.06872520   -0.51616371
     atom   11 type  2   force =     0.45876934   -0.99004513  -37.29914315
     atom   12 type  2   force =    -0.41712703    0.00845755   38.08740467
     atom   13 type  1   force =     0.25800419   -0.50951142   -0.12200916
     atom   14 type  2   force =     0.18542009   -0.09809993  -38.07861759
     atom   15 type  2   force =     0.03925675    0.18338309   38.42696551
     atom   16 type  1   force =     1.30390315   -1.72143984    1.70503256
     atom   17 type  2   force =    -0.51938708   -0.53667627  -37.74008940
     atom   18 type  2   force =     0.32357155    0.20982440   38.60764106
     atom   19 type  1   force =    -1.30072462    1.30290248   -1.06439963
     atom   20 type  2   force =     0.11588902   -0.16493498   39.26416860
     atom   21 type  1   force =     0.73161558   -0.29421613    1.47521393
     atom   22 type  2   force =    -0.04546314    0.75056647  -38.01433242
     atom   23 type  2   force =     0.24155226   -0.16109567   38.25943399
     atom   24 type  1   force =    -0.37777316    0.17289656    0.49966159
     atom   25 type  2   force =    -0.28439016   -0.07514095  -38.24462845
     atom   26 type  2   force =     0.03158255    0.22017463   38.08400187
     atom   27 type  1   force =    -0.47244084   -0.15981699    1.11778650
     atom   28 type  2   force =    -0.69381780    0.44696994  -37.70936228
     atom   29 type  2   force =    -0.05461232   -0.10226709   38.52376447
     atom   30 type  1   force =    -0.43958796    0.13092119   -2.62949057
     atom   31 type  2   force =    -1.58925090   -0.05479015  -37.96386521
     atom   32 type  2   force =     0.54091084   -0.17160883   38.07005157
     atom   33 type  1   force =    -0.50420175    0.12426728   -1.72046047
     atom   34 type  2   force =    -0.52433663   -0.36545735  -38.59743322
     atom   35 type  2   force =     0.01252968    0.18066294   37.77325400
     atom   36 type  3   force =     4.54544182    0.32749775  -42.48275202
     The core correction contribution to forces
     atom    1 type  1   force =     0.00000000    0.00000000    0.00000000
     atom    2 type  2   force =    -0.00017467    0.00078316    0.02075883
     atom    3 type  2   force =     0.00008247    0.00029877   -0.02074990
     atom    4 type  1   force =     0.00000000    0.00000000    0.00000000
     atom    5 type  2   force =    -0.00034203    0.00132253    0.02021245
     atom    6 type  2   force =     0.00039941    0.00007716   -0.02078932
     atom    7 type  1   force =     0.00000000    0.00000000    0.00000000
     atom    8 type  2   force =     0.02565439   -0.00989789    0.01855397
     atom    9 type  2   force =     0.00055248    0.00104183   -0.02141604
     atom   10 type  1   force =     0.00000000    0.00000000    0.00000000
     atom   11 type  2   force =    -0.00051097   -0.00184605    0.02036828
     atom   12 type  2   force =     0.00104249    0.00000975   -0.02084294
     atom   13 type  1   force =     0.00000000    0.00000000    0.00000000
     atom   14 type  2   force =    -0.00003542    0.00045986    0.02096278
     atom   15 type  2   force =     0.00005727    0.00036888   -0.02071316
     atom   16 type  1   force =     0.00000000    0.00000000    0.00000000
     atom   17 type  2   force =     0.00038793    0.00083207    0.02044637
     atom   18 type  2   force =    -0.00022524   -0.00024504   -0.02088912
     atom   19 type  1   force =     0.00000000    0.00000000    0.00000000
     atom   20 type  2   force =     0.00040673    0.00046607   -0.02137113
     atom   21 type  1   force =     0.00000000    0.00000000    0.00000000
     atom   22 type  2   force =     0.00026866   -0.00000843    0.02051972
     atom   23 type  2   force =    -0.00063218    0.00079359   -0.02083036
     atom   24 type  1   force =     0.00000000    0.00000000    0.00000000
     atom   25 type  2   force =     0.00016353    0.00052718    0.02080550
     atom   26 type  2   force =    -0.00006038    0.00029254   -0.02084468
     atom   27 type  1   force =     0.00000000    0.00000000    0.00000000
     atom   28 type  2   force =    -0.00046166   -0.00020372    0.02089075
     atom   29 type  2   force =     0.00015911    0.00064784   -0.02096588
     atom   30 type  1   force =     0.00000000    0.00000000    0.00000000
     atom   31 type  2   force =     0.00098787    0.00059041    0.02053849
     atom   32 type  2   force =    -0.00081535    0.00040615   -0.02097807
     atom   33 type  1   force =     0.00000000    0.00000000    0.00000000
     atom   34 type  2   force =     0.00019906    0.00093564    0.02094439
     atom   35 type  2   force =    -0.00001129    0.00032624   -0.02083643
     atom   36 type  3   force =    -0.01783354    0.00326468    0.01195651
     The Hubbard contrib.    to forces
     atom    1 type  1   force =     0.00000000    0.00000000    0.00000000
     atom    2 type  2   force =     0.00000000    0.00000000    0.00000000
     atom    3 type  2   force =     0.00000000    0.00000000    0.00000000
     atom    4 type  1   force =     0.00000000    0.00000000    0.00000000
     atom    5 type  2   force =     0.00000000    0.00000000    0.00000000
     atom    6 type  2   force =     0.00000000    0.00000000    0.00000000
     atom    7 type  1   force =     0.00000000    0.00000000    0.00000000
     atom    8 type  2   force =     0.00000000    0.00000000    0.00000000
     atom    9 type  2   force =     0.00000000    0.00000000    0.00000000
     atom   10 type  1   force =     0.00000000    0.00000000    0.00000000
     atom   11 type  2   force =     0.00000000    0.00000000    0.00000000
     atom   12 type  2   force =     0.00000000    0.00000000    0.00000000
     atom   13 type  1   force =     0.00000000    0.00000000    0.00000000
     atom   14 type  2   force =     0.00000000    0.00000000    0.00000000
     atom   15 type  2   force =     0.00000000    0.00000000    0.00000000
     atom   16 type  1   force =     0.00000000    0.00000000    0.00000000
     atom   17 type  2   force =     0.00000000    0.00000000    0.00000000
     atom   18 type  2   force =     0.00000000    0.00000000    0.00000000
     atom   19 type  1   force =     0.00000000    0.00000000    0.00000000
     atom   20 type  2   force =     0.00000000    0.00000000    0.00000000
     atom   21 type  1   force =     0.00000000    0.00000000    0.00000000
     atom   22 type  2   force =     0.00000000    0.00000000    0.00000000
     atom   23 type  2   force =     0.00000000    0.00000000    0.00000000
     atom   24 type  1   force =     0.00000000    0.00000000    0.00000000
     atom   25 type  2   force =     0.00000000    0.00000000    0.00000000
     atom   26 type  2   force =     0.00000000    0.00000000    0.00000000
     atom   27 type  1   force =     0.00000000    0.00000000    0.00000000
     atom   28 type  2   force =     0.00000000    0.00000000    0.00000000
     atom   29 type  2   force =     0.00000000    0.00000000    0.00000000
     atom   30 type  1   force =     0.00000000    0.00000000    0.00000000
     atom   31 type  2   force =     0.00000000    0.00000000    0.00000000
     atom   32 type  2   force =     0.00000000    0.00000000    0.00000000
     atom   33 type  1   force =     0.00000000    0.00000000    0.00000000
     atom   34 type  2   force =     0.00000000    0.00000000    0.00000000
     atom   35 type  2   force =     0.00000000    0.00000000    0.00000000
     atom   36 type  3   force =     0.00000000    0.00000000    0.00000000
     The SCF correction term to forces
     atom    1 type  1   force =    -0.00000967   -0.00002264   -0.00002193
     atom    2 type  2   force =     0.00000333   -0.00000348   -0.00001613
     atom    3 type  2   force =    -0.00000047   -0.00000861   -0.00000088
     atom    4 type  1   force =     0.00000609   -0.00005448   -0.00003191
     atom    5 type  2   force =    -0.00001212   -0.00001926   -0.00001467
     atom    6 type  2   force =    -0.00000475   -0.00001552    0.00000061
     atom    7 type  1   force =    -0.00002551    0.00003167   -0.00004541
     atom    8 type  2   force =     0.00001409   -0.00001112   -0.00001688
     atom    9 type  2   force =    -0.00000410    0.00000045   -0.00001942
     atom   10 type  1   force =     0.00000275    0.00004285   -0.00003354
     atom   11 type  2   force =    -0.00000351    0.00002779   -0.00002228
     atom   12 type  2   force =     0.00000414    0.00001904   -0.00000433
     atom   13 type  1   force =    -0.00000092   -0.00002260   -0.00000859
     atom   14 type  2   force =    -0.00000592    0.00000257   -0.00001162
     atom   15 type  2   force =     0.00000236    0.00000024    0.00000111
     atom   16 type  1   force =    -0.00001451   -0.00003871   -0.00001109
     atom   17 type  2   force =     0.00000172   -0.00001126   -0.00000958
     atom   18 type  2   force =     0.00000184   -0.00001321    0.00000273
     atom   19 type  1   force =     0.00000742    0.00001544    0.00000757
     atom   20 type  2   force =    -0.00000215   -0.00000197   -0.00000345
     atom   21 type  1   force =    -0.00000008    0.00003291   -0.00001723
     atom   22 type  2   force =    -0.00000571    0.00001343   -0.00000458
     atom   23 type  2   force =     0.00000272    0.00001723    0.00000016
     atom   24 type  1   force =     0.00001121   -0.00002650   -0.00001445
     atom   25 type  2   force =     0.00000342   -0.00000263   -0.00001702
     atom   26 type  2   force =    -0.00000151   -0.00000278    0.00000649
     atom   27 type  1   force =     0.00000631   -0.00003464   -0.00000449
     atom   28 type  2   force =     0.00000991   -0.00001880   -0.00001501
     atom   29 type  2   force =     0.00000302   -0.00001380   -0.00000072
     atom   30 type  1   force =     0.00002842    0.00003011   -0.00002033
     atom   31 type  2   force =     0.00001073   -0.00000143   -0.00000514
     atom   32 type  2   force =     0.00000074   -0.00000675   -0.00000123
     atom   33 type  1   force =     0.00000510    0.00004518   -0.00000424
     atom   34 type  2   force =     0.00000968    0.00002493   -0.00001186
     atom   35 type  2   force =    -0.00000603    0.00002560   -0.00000366
     atom   36 type  3   force =    -0.00007580   -0.00001061   -0.00003619

     Total force =     0.005385     Total SCF correction =     0.000194
     Energy error            =      6.8E-05 Ry
     Gradient error          =      1.5E-03 Ry/Bohr

     bfgs converged in  28 scf cycles and  27 bfgs steps
     (criteria: energy <  1.0E-04 Ry, force <  1.0E-02 Ry/Bohr)

     End of BFGS Geometry Optimization

     Final energy             =   -2246.4024612073 Ry

     File ./MoS2-V-O.bfgs deleted, as requested
Begin final coordinates

ATOMIC_POSITIONS (angstrom)
Mo            6.5452948574        1.7462128109        2.7351917040
S             8.1214781682        0.8598379978        4.3488768408
S             8.1320014748        0.8260482405        1.1565483020
Mo            8.1316481956        4.4334796421        2.7427807869
S             6.5052577189        3.6262512239        4.3048433150
S             6.5525084561        3.5574177187        1.1091284057
Mo            6.4343280256        7.1663689796        2.7849245614
S             8.2956910896        6.0714357513        4.6058738606
S             8.0678038892        6.3287386776        1.2440010962
Mo            8.1334185889        9.9414927368        2.7755771324
S             6.5055772675        9.0662629864        4.3120431766
S             6.5600262966        9.0034246405        1.1625280693
Mo            3.4137269586        1.7532801048        2.7390912435
S             4.9721024163        0.8365077596        4.3309519194
S             4.9758272583        0.8351760190        1.1430469963
Mo            4.9843222933        4.5282187060        2.6589586263
S             3.4570547101        3.6508229492        4.3089892824
S             3.4214573528        3.5695684551        1.1093149526
Mo            3.4320716973        7.1684278215        2.7013921547
S             4.9903193393        6.3276344865        1.0892945528
Mo            4.9693215263        9.9333901108        2.7273518662
S             3.4552542640        8.9549055232        4.3365672320
S             3.3753834250        9.0096268902        1.1422577424
Mo            0.2605016539        1.7319021649        2.7450873483
S             1.8471947187        0.8458622572        4.3547295653
S             1.8377196480        0.8159005810        1.1618262708
Mo            1.8488908938        4.4873500546        2.7257137910
S             0.2898270724        3.5458777465        4.3298963771
S             0.2708942491        3.5578007290        1.1329066578
Mo            0.2290949165        7.2165052787        2.8198384968
S             1.8925108246        6.2906353528        4.3474424580
S             1.7911960314        6.3333288604        1.1526491721
Mo            1.8327140665        9.9231315926        2.7780286533
S             0.2420486513        9.0498196126        4.3966567031
S             0.2463174517        9.0197267197        1.2009016281
O             6.7560682313        6.5401863396        4.8111118784
End final coordinates



     Writing all to output data dir ./MoS2-V-O.save/
 
     init_run     :      4.68s CPU      5.16s WALL (       1 calls)
     electrons    :   2470.60s CPU   2786.11s WALL (      28 calls)
     update_pot   :     82.34s CPU     87.56s WALL (      27 calls)
     forces       :     75.95s CPU     86.34s WALL (      28 calls)

     Called by init_run:
     wfcinit      :      0.48s CPU      0.53s WALL (       1 calls)
     potinit      :      2.45s CPU      2.67s WALL (       1 calls)
     hinit0       :      0.44s CPU      0.47s WALL (       1 calls)

     Called by electrons:
     c_bands      :    357.72s CPU    366.16s WALL (     253 calls)
     sum_band     :    140.87s CPU    181.13s WALL (     253 calls)
     v_of_rho     :    238.00s CPU    288.10s WALL (     273 calls)
     newd         :     81.56s CPU    119.91s WALL (     273 calls)
     PAW_pot      :     10.88s CPU     10.92s WALL (     300 calls)
     mix_rho      :   1669.37s CPU   1850.19s WALL (     253 calls)

     Called by c_bands:
     init_us_2    :      5.81s CPU      6.27s WALL (     534 calls)
     init_us_2:cp :      5.80s CPU      6.27s WALL (     534 calls)
     regterg      :    338.79s CPU    346.74s WALL (     253 calls)

     Called by *egterg:
     rdiaghg      :     23.62s CPU     23.86s WALL (    1344 calls)
     h_psi        :    220.13s CPU    221.97s WALL (    1380 calls)
     s_psi        :     21.03s CPU     21.10s WALL (    1380 calls)
     g_psi        :      1.08s CPU      1.09s WALL (    1126 calls)

     Called by h_psi:
     h_psi:calbec :     23.60s CPU     23.75s WALL (    1380 calls)
     vloc_psi     :    173.10s CPU    174.66s WALL (    1380 calls)
     add_vuspsi   :     20.67s CPU     20.78s WALL (    1380 calls)

     General routines
     calbec       :     34.57s CPU     34.77s WALL (    1772 calls)
     fft          :    161.59s CPU    187.33s WALL (   18284 calls)
     ffts         :    745.95s CPU    920.58s WALL (  408311 calls)
     fftw         :    110.18s CPU    111.02s WALL (  153820 calls)
     interpolate  :      3.39s CPU      3.86s WALL (     273 calls)
 
     Parallel routines
 
     PWSCF        :  44m 5.47s CPU  49m42.35s WALL

 
   This run was terminated on:  19: 0:24   1Nov2023            

=------------------------------------------------------------------------------=
   JOB DONE.
=------------------------------------------------------------------------------=
