
     Program PWSCF v.7.2 starts on  1Nov2023 at 23:52:56 

     This program is part of the open-source Quantum ESPRESSO suite
     for quantum simulation of materials; please cite
         "P. Giannozzi et al., J. Phys.:Condens. Matter 21 395502 (2009);
         "P. Giannozzi et al., J. Phys.:Condens. Matter 29 465901 (2017);
         "P. Giannozzi et al., J. Chem. Phys. 152 154105 (2020);
          URL http://www.quantum-espresso.org", 
     in publications or presentations arising from this work. More details at
     http://www.quantum-espresso.org/quote

     Parallel version (MPI & OpenMP), running on      48 processor cores
     Number of MPI processes:                48
     Threads/MPI process:                     1

     MPI processes distributed on     1 nodes
     44311 MiB available memory on the printing compute node when the environment starts
 
     Waiting for input...
     Reading input from standard input
Warning: card &CELL ignored
Warning: card CELL_DYNAMICS = 'BFGS', ignored
Warning: card CELL_DOFREE = '2DXY' ignored
Warning: card / ignored

     Current dimensions of program PWSCF are:
     Max number of different atomic species (ntypx) = 10
     Max number of k-points (npk) =  40000
     Max angular momentum in pseudopotentials (lmaxx) =  4
     file O.pbe-n-kjpaw_psl.0.1.UPF: wavefunction(s)  2P renormalized

     IMPORTANT: XC functional enforced from input :
     Exchange-correlation= RVV10
                           (   1   4  13   4  26   0   0)
     Any further DFT definition will be discarded
     Please, verify this is what you really want


     gamma-point specific algorithms are used
     signal trapping enabled: kill the code with -SIGUSR1 to stop cleanly the simulation 
 
     R & G space division:  proc/nbgrp/npool/nimage =      48
     Subspace diagonalization in iterative solution of the eigenvalue problem:
     one sub-group per band group will be used
     scalapack distributed-memory algorithm (size of sub-group:  2*  2 procs)

 
     Parallelization info
     --------------------
     sticks:   dense  smooth     PW     G-vecs:    dense   smooth      PW
     Min         396     194     47               101632    35090    4376
     Max         398     196     50               101674    35128    4410
     Sum       19091    9389   2349              4879585  1685513  210763
 
     Using Slab Decomposition
 


     bravais-lattice index     =            0
     lattice parameter (alat)  =      17.8707  a.u.
     unit-cell volume          =   17436.2743 (a.u.)^3
     number of atoms/cell      =           36
     number of atomic types    =            3
     number of electrons       =       312.00
     number of Kohn-Sham states=          187
     kinetic-energy cutoff     =      80.0000  Ry
     charge density cutoff     =     650.0000  Ry
     scf convergence threshold =      1.0E-06
     mixing beta               =       0.7000
     number of iterations used =            8  local-TF  mixing
     energy convergence thresh.=      1.0E-04
     force convergence thresh. =      1.0E-02
     Exchange-correlation= RVV10
                           (   1   4  13   4  26   0   0)
     nstep                     =          200


     celldm(1)=  17.870686  celldm(2)=   0.000000  celldm(3)=   0.000000
     celldm(4)=   0.000000  celldm(5)=   0.000000  celldm(6)=   0.000000

     crystal axes: (cart. coord. in units of alat)
               a(1) = (   1.000000   0.000000   0.000000 )  
               a(2) = (   0.000000   1.155671   0.000000 )  
               a(3) = (   0.000000   0.000000   2.643601 )  

     reciprocal axes: (cart. coord. in units 2 pi/alat)
               b(1) = (  1.000000  0.000000  0.000000 )  
               b(2) = (  0.000000  0.865298  0.000000 )  
               b(3) = (  0.000000  0.000000  0.378272 )  


     PseudoPot. # 1 for Mo read from file:
     ../pseudo/Mo_ONCV_PBE-1.0.oncvpsp.upf
     MD5 check sum: 1b5d28e075c9ccadda658a603575cd1f
     Pseudo is Norm-conserving, Zval = 14.0
     Generated using ONCVPSP code by D. R. Hamann
     Using radial grid of 1526 points,  6 beta functions with: 
                l(1) =   0
                l(2) =   0
                l(3) =   1
                l(4) =   1
                l(5) =   2
                l(6) =   2

     PseudoPot. # 2 for S  read from file:
     ../pseudo/s_pbe_v1.4.uspp.F.UPF
     MD5 check sum: 88d86576ff6df21479756cfb9bdac1df
     Pseudo is Ultrasoft + core correction, Zval =  6.0
     Generated by new atomic code, or converted to UPF format
     Using radial grid of  907 points,  6 beta functions with: 
                l(1) =   0
                l(2) =   0
                l(3) =   1
                l(4) =   1
                l(5) =   2
                l(6) =   2
     Q(r) pseudized with  8 coefficients,  rinner =    1.300   1.300   1.300
                                                       1.300   1.300

     PseudoPot. # 3 for O  read from file:
     ../pseudo/O.pbe-n-kjpaw_psl.0.1.UPF
     MD5 check sum: 0234752ac141de4415c5fc33072bef88
     Pseudo is Projector augmented-wave + core cor, Zval =  6.0
     Generated using "atomic" code by A. Dal Corso  v.5.0.99 svn rev. 10869
     Shape of augmentation charge: BESSEL
     Using radial grid of 1095 points,  4 beta functions with: 
                l(1) =   0
                l(2) =   0
                l(3) =   1
                l(4) =   1
     Q(r) pseudized with 0 coefficients 


     atomic species   valence    mass     pseudopotential
        Mo            14.00    95.94000     Mo( 1.00)
        S              6.00    32.06500     S ( 1.00)
        O              6.00    15.99940     O ( 1.00)

     No symmetry found



   Cartesian axes

     site n.     atom                  positions (alat units)
         1           Mo  tau(   1) = (   0.6952221   0.1890506   0.2985846  )
         2           S   tau(   2) = (   0.8646417   0.0856217   0.4689279  )
         3           S   tau(   3) = (   0.8663890   0.0857843   0.1351291  )
         4           Mo  tau(   4) = (   0.8560186   0.4753274   0.2873942  )
         5           S   tau(   5) = (   0.6873294   0.3936244   0.4596353  )
         6           S   tau(   6) = (   0.6929804   0.3713468   0.1185692  )
         7           Mo  tau(   7) = (   0.6862796   0.7633098   0.2825370  )
         8           S   tau(   8) = (   0.8545980   0.6708292   0.4486168  )
         9           S   tau(   9) = (   0.8545123   0.6666874   0.1146125  )
        10           Mo  tau(  10) = (   0.8629403   1.0471007   0.3006803  )
        11           S   tau(  11) = (   0.6868280   0.9456650   0.4634891  )
        12           S   tau(  12) = (   0.6998113   0.9568511   0.1205389  )
        13           Mo  tau(  13) = (   0.3618216   0.1847309   0.2935964  )
        14           S   tau(  14) = (   0.5260962   0.0863870   0.4600448  )
        15           S   tau(  15) = (   0.5348379   0.0894875   0.1297123  )
        16           Mo  tau(  16) = (   0.5265817   0.4772436   0.2784130  )
        17           S   tau(  17) = (   0.3624753   0.3882513   0.4525556  )
        18           S   tau(  18) = (   0.3635411   0.3752055   0.1119148  )
        19           Mo  tau(  19) = (   0.3652268   0.7630864   0.2781795  )
        20           S   tau(  20) = (   0.5269494   0.6690381   0.1096838  )
        21           Mo  tau(  21) = (   0.5300192   1.0470394   0.2900995  )
        22           S   tau(  22) = (   0.3670346   0.9457522   0.4574073  )
        23           S   tau(  23) = (   0.3604225   0.9585725   0.1159032  )
        24           Mo  tau(  24) = (   0.0313099   0.1847895   0.3013130  )
        25           S   tau(  25) = (   0.1956761   0.0838230   0.4650863  )
        26           S   tau(  26) = (   0.1967693   0.0903508   0.1278874  )
        27           Mo  tau(  27) = (   0.1967578   0.4753919   0.2813011  )
        28           S   tau(  28) = (   0.0287851   0.3864324   0.4586755  )
        29           S   tau(  29) = (   0.0244514   0.3729871   0.1239344  )
        30           Mo  tau(  30) = (   0.0286728   0.7631204   0.2856894  )
        31           S   tau(  31) = (   0.2011512   0.6675435   0.4465001  )
        32           S   tau(  32) = (   0.1969214   0.6672839   0.1104564  )
        33           Mo  tau(  33) = (   0.1950294   1.0511147   0.2932237  )
        34           S   tau(  34) = (   0.0312912   0.9612169   0.4667423  )
        35           S   tau(  35) = (   0.0292670   0.9563028   0.1216485  )
        36           O   tau(  36) = (   1.0000000   0.0000000   0.5407634  )

     number of k points=     1  Gaussian smearing, width (Ry)=  0.0100
                       cart. coord. in units 2pi/alat
        k(    1) = (   0.0000000   0.0000000   0.0000000), wk =   2.0000000

     Dense  grid:  2439793 G-vectors     FFT dimensions: ( 150, 180, 384)

     Smooth grid:   842757 G-vectors     FFT dimensions: ( 108, 120, 270)

     Estimated max dynamical RAM per process >     269.22 MB

     Estimated total dynamical RAM >      12.62 GB

     Initial potential from superposition of free atoms

     starting charge     311.9873, renormalised to     312.0000

     negative rho (up, down):  2.736E-04 0.000E+00


---------------------------------------------------------------------------------
Carrying out rVV10 run using the following parameters:
Nqs =      20    Nr_points =    1024   r_max =   100.000
b_value =  6.30000    beta =  0.00901
     q_mesh =  0.00010000  0.00030000  0.00058939  0.00100810
               0.00161396  0.00249058  0.00375900  0.00559430
               0.00824984  0.01209221  0.01765183  0.02569619
               0.03733578  0.05417739  0.07854596  0.11380545
               0.16482331  0.23864234  0.34545298  0.50000000

Gradients computed in Reciprocal space

---------------------------------------------------------------------------------


     Starting wfcs are  216 randomized atomic wfcs
     Checking if some PAW data can be deallocated... 

     total cpu time spent up to now is        5.3 secs

     Self-consistent Calculation

     iteration #  1     ecut=    80.00 Ry     beta= 0.70
     Davidson diagonalization with overlap
     ethr =  1.00E-02,  avg # of iterations =  2.0

     Threshold (ethr) on eigenvalues was too large:
     Diagonalizing with lowered threshold

     Davidson diagonalization with overlap
     ethr =  4.39E-04,  avg # of iterations =  2.0

     negative rho (up, down):  3.610E-08 0.000E+00

     total cpu time spent up to now is       19.6 secs

     total energy              =   -2246.13134570 Ry
     estimated scf accuracy    <       1.63646066 Ry

     iteration #  2     ecut=    80.00 Ry     beta= 0.70
     Davidson diagonalization with overlap
     ethr =  5.25E-04,  avg # of iterations =  3.0

     total cpu time spent up to now is       24.7 secs

     total energy              =   -2246.11774920 Ry
     estimated scf accuracy    <       0.65289018 Ry

     iteration #  3     ecut=    80.00 Ry     beta= 0.70
     Davidson diagonalization with overlap
     ethr =  2.09E-04,  avg # of iterations =  5.0

     total cpu time spent up to now is       29.1 secs

     total energy              =   -2246.10827481 Ry
     estimated scf accuracy    <       0.20888478 Ry

     iteration #  4     ecut=    80.00 Ry     beta= 0.70
     Davidson diagonalization with overlap
     ethr =  6.70E-05,  avg # of iterations = 10.0

     total cpu time spent up to now is       33.8 secs

     total energy              =   -2246.14367479 Ry
     estimated scf accuracy    <       0.03681811 Ry

     iteration #  5     ecut=    80.00 Ry     beta= 0.70
     Davidson diagonalization with overlap
     ethr =  1.18E-05,  avg # of iterations = 13.0

     total cpu time spent up to now is       38.8 secs

     total energy              =   -2246.14523587 Ry
     estimated scf accuracy    <       0.01963921 Ry

     iteration #  6     ecut=    80.00 Ry     beta= 0.70
     Davidson diagonalization with overlap
     ethr =  6.29E-06,  avg # of iterations =  2.0

     total cpu time spent up to now is       43.0 secs

     total energy              =   -2246.14532419 Ry
     estimated scf accuracy    <       0.01541245 Ry

     iteration #  7     ecut=    80.00 Ry     beta= 0.70
     Davidson diagonalization with overlap
     ethr =  4.94E-06,  avg # of iterations =  1.0

     total cpu time spent up to now is       47.0 secs

     total energy              =   -2246.14391061 Ry
     estimated scf accuracy    <       0.01024903 Ry

     iteration #  8     ecut=    80.00 Ry     beta= 0.70
     Davidson diagonalization with overlap
     ethr =  3.28E-06,  avg # of iterations =  1.0

     negative rho (up, down):  1.266E-04 0.000E+00

     total cpu time spent up to now is       53.9 secs

     total energy              =   -2246.14251334 Ry
     estimated scf accuracy    <       0.00562874 Ry

     iteration #  9     ecut=    80.00 Ry     beta= 0.70
     Davidson diagonalization with overlap
     ethr =  1.80E-06,  avg # of iterations =  2.0

     negative rho (up, down):  1.713E-02 0.000E+00

     total cpu time spent up to now is       60.9 secs

     total energy              =   -2246.14216077 Ry
     estimated scf accuracy    <       0.00285048 Ry

     iteration # 10     ecut=    80.00 Ry     beta= 0.70
     Davidson diagonalization with overlap
     ethr =  9.14E-07,  avg # of iterations =  2.0

     negative rho (up, down):  2.717E-02 0.000E+00

     total cpu time spent up to now is       67.5 secs

     total energy              =   -2246.14210392 Ry
     estimated scf accuracy    <       0.00145175 Ry

     iteration # 11     ecut=    80.00 Ry     beta= 0.70
     Davidson diagonalization with overlap
     ethr =  4.65E-07,  avg # of iterations =  2.0

     negative rho (up, down):  2.236E-02 0.000E+00

     total cpu time spent up to now is       75.9 secs

     total energy              =   -2246.14214546 Ry
     estimated scf accuracy    <       0.00040041 Ry

     iteration # 12     ecut=    80.00 Ry     beta= 0.70
     Davidson diagonalization with overlap
     ethr =  1.28E-07,  avg # of iterations =  2.0

     negative rho (up, down):  7.137E-03 0.000E+00

     total cpu time spent up to now is       83.4 secs

     total energy              =   -2246.14211986 Ry
     estimated scf accuracy    <       0.00008217 Ry

     iteration # 13     ecut=    80.00 Ry     beta= 0.70
     Davidson diagonalization with overlap
     ethr =  2.63E-08,  avg # of iterations =  8.0

     negative rho (up, down):  2.794E-03 0.000E+00

     total cpu time spent up to now is       93.0 secs

     total energy              =   -2246.14216283 Ry
     estimated scf accuracy    <       0.00001342 Ry

     iteration # 14     ecut=    80.00 Ry     beta= 0.70
     Davidson diagonalization with overlap
     ethr =  4.30E-09,  avg # of iterations =  5.0

     negative rho (up, down):  4.802E-04 0.000E+00

     total cpu time spent up to now is      103.9 secs

     total energy              =   -2246.14216789 Ry
     estimated scf accuracy    <       0.00000243 Ry

     iteration # 15     ecut=    80.00 Ry     beta= 0.70
     Davidson diagonalization with overlap
     ethr =  7.80E-10,  avg # of iterations =  5.0

     negative rho (up, down):  2.173E-04 0.000E+00

     total cpu time spent up to now is      108.3 secs

     End of self-consistent calculation

          k = 0.0000 0.0000 0.0000 (105382 PWs)   bands (ev):

   -62.9458 -62.9049 -62.8976 -62.8883 -62.8425 -62.8299 -62.8195 -62.8043
   -62.7848 -62.7735 -62.6935 -62.6903 -37.2688 -37.2248 -37.1842 -37.1761
   -37.1466 -37.1319 -37.1201 -37.0987 -37.0814 -37.0805 -37.0774 -37.0637
   -37.0600 -37.0491 -37.0210 -37.0066 -37.0026 -36.9999 -36.9845 -36.9834
   -36.9765 -36.9635 -36.9591 -36.9487 -36.9420 -36.9195 -36.9009 -36.8907
   -36.8703 -36.8552 -36.8383 -36.8278 -36.8071 -36.7779 -36.7385 -36.7236
   -22.0716 -15.9256 -15.4754 -15.1563 -15.0940 -14.8956 -14.8574 -14.7439
   -14.5509 -14.5011 -14.4506 -14.4148 -14.3727 -14.3097 -14.2584 -14.2097
   -14.1523 -14.1187 -14.0750 -14.0337 -13.8760 -13.8614 -13.8243 -13.6133
    -8.8168  -8.1033  -7.8020  -7.5800  -7.3527  -7.3137  -7.2537  -7.2113
    -7.1868  -7.1229  -6.8574  -6.8530  -6.8285  -6.7114  -6.6176  -6.5891
    -6.5006  -6.4306  -6.4099  -6.2963  -6.1664  -6.0583  -5.9358  -5.8912
    -5.8692  -5.8089  -5.7710  -5.6973  -5.6903  -5.6581  -5.6001  -5.5886
    -5.5268  -5.4599  -5.4074  -5.3609  -5.3033  -5.1506  -5.0908  -5.0183
    -4.9950  -4.9143  -4.8605  -4.6865  -4.6483  -4.5400  -4.4160  -4.3941
    -4.3209  -4.2661  -4.1730  -4.1194  -3.9426  -3.9150  -3.8466  -3.8361
    -3.7667  -3.7335  -3.6584  -3.6432  -3.5902  -3.5669  -3.4781  -3.4457
    -3.4214  -3.3788  -3.2458  -3.1996  -3.0129  -2.9571  -2.8575  -2.8166
    -2.8128  -2.7676  -2.7194  -2.6893  -2.6560  -2.5962  -2.3342  -2.2455
    -2.0116  -1.8860  -1.8387  -1.7286  -1.3720  -0.7908  -0.7094  -0.1846
    -0.1532  -0.0774  -0.0228   0.0927   0.1264   0.1731   0.2042   0.2636
     0.2923   0.3538   0.4150   0.5110   0.5333   0.5438   0.5863   0.6031
     0.6967   0.7325   0.7494   0.7774   0.8301   0.8618   0.9166   0.9546
     1.0261   1.0709   1.2628

     the Fermi energy is    -1.5493 ev

!    total energy              =   -2246.14216944 Ry
     estimated scf accuracy    <       0.00000058 Ry
     smearing contrib. (-TS)   =      -0.00210105 Ry
     internal energy E=F+TS    =   -2246.14006840 Ry

     The total energy is F=E-TS. E is the sum of the following terms:
     one-electron contribution =  -18507.27467824 Ry
     hartree contribution      =    9242.32212265 Ry
     xc contribution           =    -392.17892601 Ry
     ewald contribution        =    7420.85765802 Ry
     one-center paw contrib.   =      -9.86624482 Ry

     convergence has been achieved in  15 iterations

     negative rho (up, down):  2.173E-04 0.000E+00

     Forces acting on atoms (cartesian axes, Ry/au):

     atom    1 type  1   force =     0.00140860    0.01314742   -0.01451523
     atom    2 type  2   force =     0.02111303   -0.02366159    0.01591778
     atom    3 type  2   force =    -0.01318735    0.00955339   -0.00462288
     atom    4 type  1   force =     0.00388622   -0.00514378   -0.00362803
     atom    5 type  2   force =    -0.00275904   -0.00298380   -0.00475147
     atom    6 type  2   force =     0.00060403    0.00430799   -0.00075379
     atom    7 type  1   force =     0.00464575   -0.01390399   -0.00777874
     atom    8 type  2   force =     0.00089109   -0.00569840    0.01955143
     atom    9 type  2   force =     0.01123465    0.00669027    0.00870344
     atom   10 type  1   force =    -0.04293744   -0.01702387   -0.07978870
     atom   11 type  2   force =     0.00363984   -0.00111033   -0.00503980
     atom   12 type  2   force =    -0.00207383    0.00217417    0.00710014
     atom   13 type  1   force =     0.01870357    0.00619898   -0.01809939
     atom   14 type  2   force =    -0.00066855    0.00124434    0.01071981
     atom   15 type  2   force =    -0.01176679    0.00167677   -0.01090491
     atom   16 type  1   force =    -0.00349738    0.01389373    0.00488465
     atom   17 type  2   force =     0.00684314   -0.00069099    0.00310095
     atom   18 type  2   force =    -0.00169151   -0.00475488    0.01088221
     atom   19 type  1   force =     0.00400757   -0.01030871   -0.00391336
     atom   20 type  2   force =     0.00303524   -0.00371552    0.00165246
     atom   21 type  1   force =    -0.00092062   -0.00032738    0.00036555
     atom   22 type  2   force =    -0.00186580   -0.00196803   -0.00223902
     atom   23 type  2   force =     0.00322512    0.00047895    0.00641037
     atom   24 type  1   force =    -0.00774414    0.02310539   -0.05695633
     atom   25 type  2   force =     0.07125348    0.04308200   -0.02688757
     atom   26 type  2   force =    -0.00994857   -0.00063299   -0.00154017
     atom   27 type  1   force =    -0.00314108    0.00005541    0.01039399
     atom   28 type  2   force =     0.00139872   -0.00147715   -0.00203979
     atom   29 type  2   force =     0.00591180    0.00113025   -0.00191170
     atom   30 type  1   force =     0.00450828   -0.01297625   -0.02070733
     atom   31 type  2   force =    -0.00102626    0.00519806    0.01598182
     atom   32 type  2   force =    -0.01015137    0.00686203    0.00701050
     atom   33 type  1   force =     0.01692548   -0.00283840   -0.01268290
     atom   34 type  2   force =     0.00442081   -0.05099170   -0.01929950
     atom   35 type  2   force =    -0.00760222    0.00727707    0.01711079
     atom   36 type  3   force =    -0.06667448    0.01413155    0.15827469
     The non-local contrib.  to forces
     atom    1 type  1   force =    -0.01225249    0.01030444   -0.01558863
     atom    2 type  2   force =     0.38153373   -0.20078506    0.00819299
     atom    3 type  2   force =    -0.01499387   -0.00121569    0.26979142
     atom    4 type  1   force =     0.00167155    0.00934821    0.00531105
     atom    5 type  2   force =     0.00517276   -0.03198773   -0.25027514
     atom    6 type  2   force =    -0.00448764    0.00706171    0.26712598
     atom    7 type  1   force =    -0.01945415    0.00583317   -0.01821941
     atom    8 type  2   force =     0.00330709   -0.00724858   -0.24979046
     atom    9 type  2   force =     0.00315006   -0.01009041    0.27883874
     atom   10 type  1   force =     0.00586470    0.00119590    0.01640412
     atom   11 type  2   force =     0.01811666    0.00743045   -0.26106080
     atom   12 type  2   force =    -0.00956501   -0.01645273    0.26622522
     atom   13 type  1   force =    -0.02176835    0.01095411   -0.00044440
     atom   14 type  2   force =    -0.00023459   -0.01245182   -0.25841367
     atom   15 type  2   force =    -0.01178994   -0.00462065    0.26097795
     atom   16 type  1   force =    -0.00421642    0.03318375   -0.02933276
     atom   17 type  2   force =     0.00125408   -0.02830430   -0.24868916
     atom   18 type  2   force =    -0.00326180    0.00170279    0.26966992
     atom   19 type  1   force =     0.01401522    0.00135944   -0.01231783
     atom   20 type  2   force =     0.00012203   -0.02043178    0.26629043
     atom   21 type  1   force =     0.00046239    0.02655545    0.00659476
     atom   22 type  2   force =    -0.00339557    0.00298969   -0.25808935
     atom   23 type  2   force =     0.00915090   -0.01428305    0.26797906
     atom   24 type  1   force =     0.01058929    0.01573442    0.00331770
     atom   25 type  2   force =    -0.02043343   -0.01038841   -0.25502544
     atom   26 type  2   force =    -0.00335657   -0.01487019    0.25757640
     atom   27 type  1   force =    -0.00057897    0.00514706    0.01218592
     atom   28 type  2   force =    -0.00389603   -0.02983218   -0.27278223
     atom   29 type  2   force =     0.00649205   -0.00086136    0.26556110
     atom   30 type  1   force =     0.00522882    0.03781796    0.00653656
     atom   31 type  2   force =    -0.00996018    0.00454952   -0.24837656
     atom   32 type  2   force =    -0.00847371   -0.01273567    0.27588866
     atom   33 type  1   force =     0.00079994    0.00182744    0.00934495
     atom   34 type  2   force =    -0.00351915    0.13891938   -0.18357679
     atom   35 type  2   force =    -0.00099138   -0.01019698    0.26712660
     atom   36 type  3   force =    -0.97578066    0.48638073   -0.55235330
     The ionic contribution  to forces
     atom    1 type  1   force =    -0.92826298    1.31174656    3.80920839
     atom    2 type  2   force =    -6.16196410    3.92637855   36.27156805
     atom    3 type  2   force =    -0.43263314    0.21275513  -37.32118315
     atom    4 type  1   force =    -0.21804150    1.22347133   -0.49142318
     atom    5 type  2   force =    -1.27793953    1.95891591   38.56310700
     atom    6 type  2   force =     0.23803159   -0.32461466  -38.59544567
     atom    7 type  1   force =    -3.07802751   -3.48671218    1.43799163
     atom    8 type  2   force =    -1.17380131   -0.35147056   37.17427268
     atom    9 type  2   force =     0.27700628   -0.14704434  -38.55893534
     atom   10 type  1   force =    -3.55975917   -2.36712004    0.64459813
     atom   11 type  2   force =    -1.46505161   -2.36823105   38.79569223
     atom   12 type  2   force =     0.24398248    0.49078509  -38.59896670
     atom   13 type  1   force =     1.42874351    1.80266679    1.25731714
     atom   14 type  2   force =    -0.11101390    0.20637151   38.25879666
     atom   15 type  2   force =     0.10385108    0.01924103  -37.48156692
     atom   16 type  1   force =    -0.07797221    4.24796883   -0.40407467
     atom   17 type  2   force =     1.05957449    1.89332378   37.74823061
     atom   18 type  2   force =    -0.07987171   -0.49543075  -39.10596721
     atom   19 type  1   force =     3.07639181   -3.04711279   -0.41043950
     atom   20 type  2   force =     0.21647577   -0.26342357  -38.94823734
     atom   21 type  1   force =    -0.20985075   -0.36585654   -0.27521119
     atom   22 type  2   force =     1.07507426   -2.27045114   38.14187054
     atom   23 type  2   force =     0.06320248    0.49745754  -38.96958298
     atom   24 type  1   force =    -0.02596332    4.34523544    1.16644415
     atom   25 type  2   force =     4.26765381    1.88063584   37.76776707
     atom   26 type  2   force =     0.00827469    0.23056869  -38.39654245
     atom   27 type  1   force =     0.38032963    0.96630148   -3.36959691
     atom   28 type  2   force =     0.13839430    2.09792466   37.87390760
     atom   29 type  2   force =    -0.24573106   -0.14660828  -37.97253644
     atom   30 type  1   force =    -0.23097885   -2.26195967   -1.64037121
     atom   31 type  2   force =     1.44169826   -0.37104533   37.12462667
     atom   32 type  2   force =    -0.40579038   -0.10689954  -39.17452182
     atom   33 type  1   force =     3.17238702   -2.24738796   -1.72393919
     atom   34 type  2   force =     0.96672132   -6.02210873   37.54722255
     atom   35 type  2   force =    -0.25351429    0.12550882  -38.88534699
     atom   36 type  3   force =     1.77837453   -0.79377986   46.74126779
     The local contribution  to forces
     atom    1 type  1   force =     0.94174654   -1.30887773   -3.80872289
     atom    2 type  2   force =     5.82371625   -3.76112226  -36.26940809
     atom    3 type  2   force =     0.43362744   -0.20188942   37.06786008
     atom    4 type  1   force =     0.22011605   -1.23815556    0.48190945
     atom    5 type  2   force =     1.27063633   -1.93198922  -38.33842824
     atom    6 type  2   force =    -0.23346799    0.32263903   38.34880550
     atom    7 type  1   force =     3.10237412    3.46722976   -1.42833139
     atom    8 type  2   force =     1.17149015    0.35234433  -36.92558883
     atom    9 type  2   force =    -0.26908566    0.16322899   38.30983374
     atom   10 type  1   force =     3.51074917    2.34911090   -0.74142183
     atom   11 type  2   force =     1.45145953    2.36050654  -38.56081412
     atom   12 type  2   force =    -0.23756108   -0.47353135   38.36091856
     atom   13 type  1   force =    -1.38800311   -1.80747726   -1.27560129
     atom   14 type  2   force =     0.11094569   -0.19278013  -38.01068659
     atom   15 type  2   force =    -0.10436252   -0.01319580   37.23044715
     atom   16 type  1   force =     0.07879278   -4.26781144    0.43748954
     atom   17 type  2   force =    -1.05397049   -1.86724340  -37.51716107
     atom   18 type  2   force =     0.08152963    0.48982601   38.86807195
     atom   19 type  1   force =    -3.08662534    3.03565050    0.41800142
     atom   20 type  2   force =    -0.21368641    0.27928212   38.70466962
     atom   21 type  1   force =     0.20858206    0.33923980    0.26844833
     atom   22 type  2   force =    -1.07355370    2.26603960  -37.90700408
     atom   23 type  2   force =    -0.06843576   -0.48396084   38.72892872
     atom   24 type  1   force =     0.00751960   -4.33797234   -1.22722809
     atom   25 type  2   force =    -4.17659495   -1.82721508  -37.56067089
     atom   26 type  2   force =    -0.01470264   -0.21708608   38.15815478
     atom   27 type  1   force =    -0.38288034   -0.97143826    3.36711973
     atom   28 type  2   force =    -0.13349817   -2.07175666  -37.62445493
     atom   29 type  2   force =     0.24571062    0.14913471   37.72577420
     atom   30 type  1   force =     0.23021654    2.21110266    1.61234344
     atom   31 type  2   force =    -1.43337373    0.37180554  -36.88099039
     atom   32 type  2   force =     0.40406998    0.12574045   38.92669057
     atom   33 type  1   force =    -3.15618378    2.24287552    1.70130146
     atom   34 type  2   force =    -0.95928625    5.84002067  -37.39970993
     atom   35 type  2   force =     0.24706220   -0.10894048   38.65629629
     atom   36 type  3   force =    -0.88016570    0.32717075  -46.03582421
     The core correction contribution to forces
     atom    1 type  1   force =     0.00000000    0.00000000    0.00000000
     atom    2 type  2   force =    -0.02233831    0.01192696    0.00511053
     atom    3 type  2   force =     0.00071360   -0.00006755   -0.02090343
     atom    4 type  1   force =     0.00000000    0.00000000    0.00000000
     atom    5 type  2   force =    -0.00062236    0.00191030    0.02023191
     atom    6 type  2   force =     0.00041345   -0.00083830   -0.02106101
     atom    7 type  1   force =     0.00000000    0.00000000    0.00000000
     atom    8 type  2   force =    -0.00010461    0.00066608    0.02019817
     atom    9 type  2   force =     0.00012986    0.00060523   -0.02106741
     atom   10 type  1   force =     0.00000000    0.00000000    0.00000000
     atom   11 type  2   force =    -0.00084577   -0.00067886    0.02066345
     atom   12 type  2   force =     0.00105463    0.00136937   -0.02098980
     atom   13 type  1   force =     0.00000000    0.00000000    0.00000000
     atom   14 type  2   force =    -0.00026435    0.00015115    0.02045082
     atom   15 type  2   force =     0.00058884    0.00034810   -0.02054352
     atom   16 type  1   force =     0.00000000    0.00000000    0.00000000
     atom   17 type  2   force =     0.00002033    0.00145957    0.02018879
     atom   18 type  2   force =     0.00001112   -0.00081411   -0.02083654
     atom   19 type  1   force =     0.00000000    0.00000000    0.00000000
     atom   20 type  2   force =     0.00011742    0.00081157   -0.02120995
     atom   21 type  1   force =     0.00000000    0.00000000    0.00000000
     atom   22 type  2   force =    -0.00001170   -0.00042267    0.02051155
     atom   23 type  2   force =    -0.00068892    0.00125508   -0.02087077
     atom   24 type  1   force =     0.00000000    0.00000000    0.00000000
     atom   25 type  2   force =     0.00063771    0.00004428    0.02057091
     atom   26 type  2   force =    -0.00011940    0.00074851   -0.02059835
     atom   27 type  1   force =     0.00000000    0.00000000    0.00000000
     atom   28 type  2   force =     0.00035704    0.00209867    0.02084439
     atom   29 type  2   force =    -0.00055145   -0.00049602   -0.02065989
     atom   30 type  1   force =     0.00000000    0.00000000    0.00000000
     atom   31 type  2   force =     0.00059047   -0.00013426    0.02027217
     atom   32 type  2   force =     0.00008327    0.00073532   -0.02110651
     atom   33 type  1   force =     0.00000000    0.00000000    0.00000000
     atom   34 type  2   force =     0.00049627   -0.00771496    0.01636708
     atom   35 type  2   force =    -0.00015416    0.00091917   -0.02091057
     atom   36 type  3   force =     0.01088242   -0.00555587    0.00497710
     The Hubbard contrib.    to forces
     atom    1 type  1   force =     0.00000000    0.00000000    0.00000000
     atom    2 type  2   force =     0.00000000    0.00000000    0.00000000
     atom    3 type  2   force =     0.00000000    0.00000000    0.00000000
     atom    4 type  1   force =     0.00000000    0.00000000    0.00000000
     atom    5 type  2   force =     0.00000000    0.00000000    0.00000000
     atom    6 type  2   force =     0.00000000    0.00000000    0.00000000
     atom    7 type  1   force =     0.00000000    0.00000000    0.00000000
     atom    8 type  2   force =     0.00000000    0.00000000    0.00000000
     atom    9 type  2   force =     0.00000000    0.00000000    0.00000000
     atom   10 type  1   force =     0.00000000    0.00000000    0.00000000
     atom   11 type  2   force =     0.00000000    0.00000000    0.00000000
     atom   12 type  2   force =     0.00000000    0.00000000    0.00000000
     atom   13 type  1   force =     0.00000000    0.00000000    0.00000000
     atom   14 type  2   force =     0.00000000    0.00000000    0.00000000
     atom   15 type  2   force =     0.00000000    0.00000000    0.00000000
     atom   16 type  1   force =     0.00000000    0.00000000    0.00000000
     atom   17 type  2   force =     0.00000000    0.00000000    0.00000000
     atom   18 type  2   force =     0.00000000    0.00000000    0.00000000
     atom   19 type  1   force =     0.00000000    0.00000000    0.00000000
     atom   20 type  2   force =     0.00000000    0.00000000    0.00000000
     atom   21 type  1   force =     0.00000000    0.00000000    0.00000000
     atom   22 type  2   force =     0.00000000    0.00000000    0.00000000
     atom   23 type  2   force =     0.00000000    0.00000000    0.00000000
     atom   24 type  1   force =     0.00000000    0.00000000    0.00000000
     atom   25 type  2   force =     0.00000000    0.00000000    0.00000000
     atom   26 type  2   force =     0.00000000    0.00000000    0.00000000
     atom   27 type  1   force =     0.00000000    0.00000000    0.00000000
     atom   28 type  2   force =     0.00000000    0.00000000    0.00000000
     atom   29 type  2   force =     0.00000000    0.00000000    0.00000000
     atom   30 type  1   force =     0.00000000    0.00000000    0.00000000
     atom   31 type  2   force =     0.00000000    0.00000000    0.00000000
     atom   32 type  2   force =     0.00000000    0.00000000    0.00000000
     atom   33 type  1   force =     0.00000000    0.00000000    0.00000000
     atom   34 type  2   force =     0.00000000    0.00000000    0.00000000
     atom   35 type  2   force =     0.00000000    0.00000000    0.00000000
     atom   36 type  3   force =     0.00000000    0.00000000    0.00000000
     The SCF correction term to forces
     atom    1 type  1   force =     0.00017603   -0.00002504    0.00058026
     atom    2 type  2   force =     0.00016396   -0.00005897    0.00044666
     atom    3 type  2   force =     0.00009713   -0.00002826   -0.00019544
     atom    4 type  1   force =     0.00013862    0.00019306    0.00056702
     atom    5 type  2   force =    -0.00000774    0.00016776    0.00060536
     atom    6 type  2   force =     0.00011311    0.00006102   -0.00018623
     atom    7 type  1   force =    -0.00024821   -0.00025392    0.00077278
     atom    8 type  2   force =    -0.00000173    0.00001115    0.00045223
     atom    9 type  2   force =     0.00003261   -0.00000838    0.00002607
     atom   10 type  1   force =     0.00020636   -0.00020983    0.00062324
     atom   11 type  2   force =    -0.00004048   -0.00013658    0.00047180
     atom   12 type  2   force =     0.00001365    0.00000462   -0.00009479
     atom   13 type  1   force =    -0.00026998    0.00005616    0.00062151
     atom   14 type  2   force =    -0.00010290   -0.00004555    0.00056494
     atom   15 type  2   force =    -0.00005573   -0.00009509   -0.00022720
     atom   16 type  1   force =    -0.00010303    0.00055340    0.00079489
     atom   17 type  2   force =    -0.00003678    0.00007417    0.00052413
     atom   18 type  2   force =    -0.00010026   -0.00003800   -0.00006355
     atom   19 type  1   force =     0.00022438   -0.00020504    0.00083491
     atom   20 type  2   force =     0.00000493    0.00004696    0.00013206
     atom   21 type  1   force =    -0.00011582   -0.00026528    0.00052600
     atom   22 type  2   force =     0.00001941   -0.00012269    0.00046468
     atom   23 type  2   force =    -0.00000509    0.00001103   -0.00005130
     atom   24 type  1   force =     0.00010879    0.00010870    0.00050227
     atom   25 type  2   force =    -0.00001116    0.00000618    0.00046312
     atom   26 type  2   force =    -0.00004614    0.00000690   -0.00013819
     atom   27 type  1   force =    -0.00001290    0.00004595    0.00067761
     atom   28 type  2   force =     0.00004009    0.00008918    0.00043773
     atom   29 type  2   force =    -0.00000985   -0.00003797   -0.00005831
     atom   30 type  1   force =     0.00004027    0.00006362    0.00077624
     atom   31 type  2   force =     0.00001743    0.00002341    0.00044229
     atom   32 type  2   force =    -0.00004204    0.00002229    0.00005196
     atom   33 type  1   force =    -0.00007919   -0.00015259    0.00060224
     atom   34 type  2   force =     0.00000713   -0.00010724    0.00038996
     atom   35 type  2   force =    -0.00000609   -0.00001265   -0.00006219
     atom   36 type  3   force =     0.00001343   -0.00008339    0.00019966

     Total force =     0.244421     Total SCF correction =     0.003038

     BFGS Geometry Optimization
     Energy error            =      0.0E+00 Ry
     Gradient error          =      1.6E-01 Ry/Bohr

     number of scf cycles    =   1
     number of bfgs steps    =   0

     energy             new  =   -2246.1421694433 Ry

     new trust radius        =       0.1723254622 bohr
     new conv_thr            =       0.0000010000 Ry


ATOMIC_POSITIONS (angstrom)
Mo            6.5752938068        1.7947635434        2.8159619053
S             8.1878818715        0.7971828507        4.4429616816
S             8.1862546428        0.8162971803        1.2754371030
Mo            8.0972190642        4.4923349755        2.7158985228
S             6.4984492371        3.7208325273        4.3441462809
S             6.5536694384        3.5140172434        1.1208813407
Mo            6.4924401221        7.2110796084        2.6677681511
S             8.0821992742        6.3408555274        4.2528077365
S             8.0868627694        6.3082426554        1.0884686618
Mo            8.1378975309        9.8931717667        2.8012394008
S             6.4970937165        8.9423392536        4.3804385854
S             6.6168497746        9.0498617346        1.1436645373
Mo            3.4315571644        1.7502362085        2.7668933785
S             4.9748117087        0.8175996852        4.3562057703
S             5.0516070396        0.8471494182        1.2208878318
Mo            4.9779059471        4.5205302457        2.6354693933
S             3.4314628940        3.6712340289        4.2813505325
S             3.4370254736        3.5457125245        1.0641103017
Mo            3.4559824547        7.2108694045        2.6286060018
S             4.9848403709        6.3249661174        1.0381281761
Mo            5.0117767475        9.9014268080        2.7435944001
S             3.4699707771        8.9427098340        4.3244064716
S             3.4101358244        9.0652434315        1.0994605232
Mo            0.2919924664        1.7597363786        2.8193047166
S             1.8881679291        0.8154920194        4.3839811508
S             1.8555354796        0.8540909559        1.2085858304
Mo            1.8590291213        4.4956960818        2.6656976445
S             0.2729540189        3.6536171513        4.3365046877
S             0.2343595994        3.5278473282        1.1710062545
Mo            0.2735378325        7.2097793579        2.6907385824
S             1.9016951735        6.3155495316        4.2309013372
S             1.8568663406        6.3139750446        1.0482690791
Mo            1.8533032424        9.9386371348        2.7662347505
S             0.2982522936        9.0630141835        4.4036566095
S             0.2727484794        9.0473765743        1.1594554197
O             9.4214773849        0.0074780953        5.1976248255



     Writing config-only to output data dir ./MoS2-V-O.save/
     NEW-OLD atomic charge density approx. for the potential

     negative rho (up, down):  1.362E-04 0.000E+00

     total cpu time spent up to now is      116.3 secs

     Self-consistent Calculation

     iteration #  1     ecut=    80.00 Ry     beta= 0.70
     Davidson diagonalization with overlap
     ethr =  1.00E-06,  avg # of iterations = 17.0

     negative rho (up, down):  4.352E-04 0.000E+00

     total cpu time spent up to now is      131.7 secs

     total energy              =   -2246.19001997 Ry
     estimated scf accuracy    <       0.02114503 Ry

     iteration #  2     ecut=    80.00 Ry     beta= 0.70
     Davidson diagonalization with overlap
     ethr =  6.78E-06,  avg # of iterations =  5.0

     negative rho (up, down):  7.413E-04 0.000E+00

     total cpu time spent up to now is      143.7 secs

     total energy              =   -2246.19346534 Ry
     estimated scf accuracy    <       0.00936694 Ry

     iteration #  3     ecut=    80.00 Ry     beta= 0.70
     Davidson diagonalization with overlap
     ethr =  3.00E-06,  avg # of iterations =  3.0

     negative rho (up, down):  1.199E-03 0.000E+00

     total cpu time spent up to now is      158.2 secs

     total energy              =   -2246.19418719 Ry
     estimated scf accuracy    <       0.00064936 Ry

     iteration #  4     ecut=    80.00 Ry     beta= 0.70
     Davidson diagonalization with overlap
     ethr =  2.08E-07,  avg # of iterations =  6.0

     negative rho (up, down):  1.319E-03 0.000E+00

     total cpu time spent up to now is      170.9 secs

     total energy              =   -2246.19426306 Ry
     estimated scf accuracy    <       0.00021684 Ry

     iteration #  5     ecut=    80.00 Ry     beta= 0.70
     Davidson diagonalization with overlap
     ethr =  6.95E-08,  avg # of iterations =  2.0

     negative rho (up, down):  1.337E-03 0.000E+00

     total cpu time spent up to now is      182.7 secs

     total energy              =   -2246.19426090 Ry
     estimated scf accuracy    <       0.00008046 Ry

     iteration #  6     ecut=    80.00 Ry     beta= 0.70
     Davidson diagonalization with overlap
     ethr =  2.58E-08,  avg # of iterations =  5.0

     negative rho (up, down):  1.203E-03 0.000E+00

     total cpu time spent up to now is      193.2 secs

     total energy              =   -2246.19427209 Ry
     estimated scf accuracy    <       0.00000862 Ry

     iteration #  7     ecut=    80.00 Ry     beta= 0.70
     Davidson diagonalization with overlap
     ethr =  2.76E-09,  avg # of iterations =  5.0

     negative rho (up, down):  9.805E-04 0.000E+00

     total cpu time spent up to now is      204.6 secs

     total energy              =   -2246.19427314 Ry
     estimated scf accuracy    <       0.00000307 Ry

     iteration #  8     ecut=    80.00 Ry     beta= 0.70
     Davidson diagonalization with overlap
     ethr =  9.85E-10,  avg # of iterations =  2.0

     negative rho (up, down):  7.502E-04 0.000E+00

     total cpu time spent up to now is      215.6 secs

     total energy              =   -2246.19427250 Ry
     estimated scf accuracy    <       0.00000123 Ry

     iteration #  9     ecut=    80.00 Ry     beta= 0.70
     Davidson diagonalization with overlap
     ethr =  3.94E-10,  avg # of iterations =  3.0

     negative rho (up, down):  2.159E-04 0.000E+00

     total cpu time spent up to now is      219.7 secs

     End of self-consistent calculation

          k = 0.0000 0.0000 0.0000 (105382 PWs)   bands (ev):

   -63.0027 -62.9239 -62.9145 -62.8989 -62.8587 -62.8389 -62.8369 -62.8232
   -62.8038 -62.7795 -62.7600 -62.6900 -37.3050 -37.2634 -37.2213 -37.2008
   -37.1646 -37.1480 -37.1469 -37.1221 -37.1025 -37.0993 -37.0954 -37.0821
   -37.0720 -37.0599 -37.0295 -37.0222 -37.0202 -37.0153 -37.0046 -36.9975
   -36.9940 -36.9764 -36.9731 -36.9661 -36.9559 -36.9493 -36.9319 -36.9173
   -36.8978 -36.8725 -36.8544 -36.8444 -36.8299 -36.8071 -36.7788 -36.7342
   -21.7513 -15.9540 -15.3258 -15.1640 -15.0798 -14.8915 -14.8383 -14.7596
   -14.5412 -14.5118 -14.4704 -14.4244 -14.4028 -14.3371 -14.2767 -14.2167
   -14.1737 -14.1475 -14.0764 -14.0354 -13.9101 -13.8669 -13.8553 -13.6287
    -8.5333  -7.8748  -7.7010  -7.5541  -7.3697  -7.3363  -7.2854  -7.2304
    -7.2055  -7.1288  -6.8710  -6.8537  -6.8460  -6.7281  -6.6425  -6.6038
    -6.5213  -6.4456  -6.4205  -6.3074  -6.1340  -6.0685  -5.9466  -5.9019
    -5.8859  -5.8227  -5.7907  -5.7293  -5.7062  -5.6899  -5.6422  -5.6034
    -5.5435  -5.4747  -5.4139  -5.3491  -5.3114  -5.1607  -5.0774  -5.0427
    -5.0112  -4.9460  -4.8828  -4.6947  -4.6638  -4.5659  -4.4158  -4.3925
    -4.3310  -4.2754  -4.2036  -4.1366  -3.9654  -3.9450  -3.8454  -3.8398
    -3.7886  -3.7428  -3.6768  -3.6434  -3.5968  -3.5837  -3.5220  -3.4726
    -3.4319  -3.4070  -3.2527  -3.2122  -3.0286  -2.9709  -2.8670  -2.8390
    -2.8244  -2.7834  -2.7386  -2.7004  -2.6817  -2.6229  -2.3528  -2.2800
    -2.0421  -1.9553  -1.9022  -1.7790  -1.3333  -0.8045  -0.7363  -0.1959
    -0.1605  -0.0989  -0.0417   0.0759   0.1059   0.1767   0.1948   0.2574
     0.2736   0.3278   0.4007   0.4885   0.5207   0.5411   0.5608   0.5889
     0.6830   0.7102   0.7371   0.7399   0.8314   0.8443   0.9104   0.9454
     0.9941   1.0263   1.2473

     the Fermi energy is    -1.5559 ev

!    total energy              =   -2246.19427124 Ry
     estimated scf accuracy    <       0.00000067 Ry
     smearing contrib. (-TS)   =      -0.00078149 Ry
     internal energy E=F+TS    =   -2246.19348975 Ry

     The total energy is F=E-TS. E is the sum of the following terms:
     one-electron contribution =  -18493.64966175 Ry
     hartree contribution      =    9235.30117309 Ry
     xc contribution           =    -392.14537460 Ry
     ewald contribution        =    7414.16573971 Ry
     one-center paw contrib.   =      -9.86536619 Ry

     convergence has been achieved in   9 iterations

     negative rho (up, down):  2.159E-04 0.000E+00

     Forces acting on atoms (cartesian axes, Ry/au):

     atom    1 type  1   force =    -0.00167174    0.00556771    0.00011738
     atom    2 type  2   force =     0.05142268   -0.04085956    0.00246303
     atom    3 type  2   force =    -0.01520100    0.01045988   -0.01439594
     atom    4 type  1   force =     0.00361237   -0.00291877    0.00103620
     atom    5 type  2   force =    -0.00217238   -0.00130820   -0.00505644
     atom    6 type  2   force =    -0.00191769    0.00557154   -0.00279130
     atom    7 type  1   force =     0.00237439   -0.00960217   -0.00014952
     atom    8 type  2   force =     0.00237050   -0.00624689    0.01210220
     atom    9 type  2   force =     0.00936284    0.00389461    0.00396164
     atom   10 type  1   force =    -0.01321245   -0.00387713   -0.02863966
     atom   11 type  2   force =     0.00420040   -0.00229686   -0.00942621
     atom   12 type  2   force =    -0.01119542   -0.00364294   -0.00611409
     atom   13 type  1   force =     0.01242025    0.00587717   -0.01034714
     atom   14 type  2   force =     0.00308120    0.00290500    0.00298826
     atom   15 type  2   force =    -0.00604455    0.00059712   -0.01184885
     atom   16 type  1   force =    -0.00037516    0.01036367    0.00397183
     atom   17 type  2   force =     0.00620785   -0.00009114    0.00218892
     atom   18 type  2   force =    -0.00097981   -0.00121827    0.00766049
     atom   19 type  1   force =     0.00310521   -0.00873055    0.00031698
     atom   20 type  2   force =     0.00234776   -0.00350591   -0.00238183
     atom   21 type  1   force =    -0.00144512   -0.00015497    0.00302565
     atom   22 type  2   force =    -0.00197793   -0.00210291   -0.00352515
     atom   23 type  2   force =     0.00352886   -0.00092381    0.00251941
     atom   24 type  1   force =    -0.00202525    0.00845679   -0.02366785
     atom   25 type  2   force =     0.03941582    0.03022632   -0.02731300
     atom   26 type  2   force =    -0.00486771   -0.00072592   -0.00770318
     atom   27 type  1   force =    -0.00161372    0.00098248    0.00811686
     atom   28 type  2   force =    -0.00018191   -0.00345939   -0.00412138
     atom   29 type  2   force =     0.00521477    0.00706657   -0.00858757
     atom   30 type  1   force =     0.00000352   -0.00741142   -0.00511874
     atom   31 type  2   force =    -0.00008903    0.00286389    0.01169052
     atom   32 type  2   force =    -0.00563783    0.00403447    0.00374037
     atom   33 type  1   force =     0.00730994    0.00126269   -0.00043378
     atom   34 type  2   force =    -0.00115956   -0.03845171   -0.03181791
     atom   35 type  2   force =    -0.00370134    0.00477326    0.00535617
     atom   36 type  3   force =    -0.08050874    0.03262533    0.13218362
     The non-local contrib.  to forces
     atom    1 type  1   force =    -0.01617621    0.00975762   -0.02210265
     atom    2 type  2   force =     0.37488855   -0.20213065    0.04538796
     atom    3 type  2   force =    -0.01555984   -0.00316945    0.26569314
     atom    4 type  1   force =     0.00262534    0.00991425    0.00388963
     atom    5 type  2   force =     0.00554382   -0.03001970   -0.24993214
     atom    6 type  2   force =    -0.00638280    0.00751341    0.26701917
     atom    7 type  1   force =    -0.01565608    0.00776550   -0.02100529
     atom    8 type  2   force =     0.00363386   -0.00800580   -0.25629342
     atom    9 type  2   force =     0.00065243   -0.01214483    0.27560044
     atom   10 type  1   force =     0.00080462    0.00216210    0.01852177
     atom   11 type  2   force =     0.01448392    0.00494484   -0.26327980
     atom   12 type  2   force =    -0.01653741   -0.02105977    0.25785842
     atom   13 type  1   force =    -0.01628660    0.01550897   -0.00123383
     atom   14 type  2   force =     0.00384920   -0.01125773   -0.26280090
     atom   15 type  2   force =    -0.00639033   -0.00486443    0.26076503
     atom   16 type  1   force =    -0.00535796    0.03604279   -0.03042199
     atom   17 type  2   force =     0.00110947   -0.02702983   -0.24977841
     atom   18 type  2   force =    -0.00325194    0.00334194    0.26886891
     atom   19 type  1   force =     0.01309007    0.00402405   -0.01398227
     atom   20 type  2   force =    -0.00038719   -0.01966876    0.26361293
     atom   21 type  1   force =     0.00057737    0.02637717    0.00407521
     atom   22 type  2   force =    -0.00170871    0.00207760   -0.26047834
     atom   23 type  2   force =     0.00899918   -0.01571687    0.26656587
     atom   24 type  1   force =     0.00310018    0.01801831    0.00606098
     atom   25 type  2   force =    -0.00479869   -0.00451937   -0.26251922
     atom   26 type  2   force =     0.00039188   -0.01283645    0.25617121
     atom   27 type  1   force =    -0.00209737    0.00481680    0.01082480
     atom   28 type  2   force =    -0.00448104   -0.02835587   -0.27417422
     atom   29 type  2   force =     0.00497575    0.00269293    0.26139070
     atom   30 type  1   force =     0.00683401    0.03766776    0.00652813
     atom   31 type  2   force =    -0.00856893    0.00199012   -0.25317854
     atom   32 type  2   force =    -0.00276131   -0.01424815    0.27347278
     atom   33 type  1   force =     0.00201192    0.00003719    0.00664875
     atom   34 type  2   force =    -0.00789535    0.10295704   -0.21312503
     atom   35 type  2   force =    -0.00082731   -0.01212742    0.26302866
     atom   36 type  3   force =    -1.09331766    0.60242908   -0.69044646
     The ionic contribution  to forces
     atom    1 type  1   force =    -0.77570205    1.01981280    3.90408126
     atom    2 type  2   force =    -5.87523910    3.74492206   35.78641854
     atom    3 type  2   force =    -0.38919653    0.20603673  -37.24250710
     atom    4 type  1   force =    -0.26334382    1.25592227   -0.34085772
     atom    5 type  2   force =    -1.22998643    1.89675436   38.58977232
     atom    6 type  2   force =     0.18666703   -0.26920551  -38.59637690
     atom    7 type  1   force =    -3.05879896   -3.38033988    1.52730835
     atom    8 type  2   force =    -1.14011875   -0.27760254   37.31367768
     atom    9 type  2   force =     0.23927788   -0.18868574  -38.53907542
     atom   10 type  1   force =    -2.56064887   -1.75421215   -0.29584445
     atom   11 type  2   force =    -1.33658733   -2.30324467   38.80184899
     atom   12 type  2   force =     0.03528927    0.37417574  -38.67362529
     atom   13 type  1   force =     1.24832593    1.66800206    0.94440655
     atom   14 type  2   force =    -0.03238092    0.18518052   38.32607992
     atom   15 type  2   force =     0.13746138   -0.03539706  -37.51300392
     atom   16 type  1   force =    -0.05336990    4.15022133   -0.13427987
     atom   17 type  2   force =     1.02080558    1.82862287   37.81478423
     atom   18 type  2   force =    -0.09262012   -0.42025550  -39.04593577
     atom   19 type  1   force =     2.98612113   -2.86790155   -0.33703802
     atom   20 type  2   force =     0.18893755   -0.24755445  -38.99765744
     atom   21 type  1   force =    -0.28492906   -0.30049236    0.06452962
     atom   22 type  2   force =     0.99201209   -2.22234467   38.16939939
     atom   23 type  2   force =     0.05262322    0.46605106  -38.91593637
     atom   24 type  1   force =    -0.01418095    3.32208729    0.66036587
     atom   25 type  2   force =     3.48224005    1.57858563   37.55797204
     atom   26 type  2   force =     0.03029623    0.13713948  -38.27553671
     atom   27 type  1   force =     0.45963732    0.95911279   -2.89612919
     atom   28 type  2   force =     0.11969765    1.89364364   37.94228064
     atom   29 type  2   force =    -0.21021951   -0.01857537  -38.05763007
     atom   30 type  1   force =    -0.22355002   -1.97894868   -1.82709418
     atom   31 type  2   force =     1.41835838   -0.29826757   37.25679013
     atom   32 type  2   force =    -0.32141278   -0.13746906  -39.16111807
     atom   33 type  1   force =     2.47281623   -1.89260944   -1.27867621
     atom   34 type  2   force =     0.81942014   -5.25476998   37.24947375
     atom   35 type  2   force =    -0.08900385    0.17185840  -38.68385307
     atom   36 type  3   force =     2.06130188   -1.01025285   46.90298652
     The local contribution  to forces
     atom    1 type  1   force =     0.79006912   -1.02386424   -3.88150704
     atom    2 type  2   force =     5.57380722   -3.59567691  -35.83150830
     atom    3 type  2   force =     0.38883648   -0.19244581   36.98317014
     atom    4 type  1   force =     0.26435880   -1.26883823    0.33854638
     atom    5 type  2   force =     1.22287714   -1.86985089  -38.36468823
     atom    6 type  2   force =    -0.18265817    0.26800944   38.34764166
     atom    7 type  1   force =     3.07672085    3.36300026   -1.50595221
     atom    8 type  2   force =     1.13889070    0.27858345  -37.06525071
     atom    9 type  2   force =    -0.23081957    0.20405029   38.28841468
     atom   10 type  1   force =     2.54661513    1.74812153    0.24926800
     atom   11 type  2   force =     1.32683537    2.29654202  -38.56833096
     atom   12 type  2   force =    -0.03109001   -0.35819064   38.43046618
     atom   13 type  1   force =    -1.21967120   -1.67762174   -0.95288185
     atom   14 type  2   force =     0.03203148   -0.17113934  -38.08039638
     atom   15 type  2   force =    -0.13746901    0.04058634   37.26090555
     atom   16 type  1   force =     0.05830413   -4.17582262    0.16921106
     atom   17 type  2   force =    -1.01571854   -1.80299285  -37.58259022
     atom   18 type  2   force =     0.09490275    0.41651744   38.80553003
     atom   19 type  1   force =    -2.99603475    2.85510666    0.35187844
     atom   20 type  2   force =    -0.18635534    0.26291438   38.75284222
     atom   21 type  1   force =     0.28290915    0.27387405   -0.06502997
     atom   22 type  2   force =    -0.99216867    2.21858165  -37.93262751
     atom   23 type  2   force =    -0.05743425   -0.45254650   38.67274346
     atom   24 type  1   force =     0.00912778   -3.33153541   -0.68961126
     atom   25 type  2   force =    -3.43763235   -1.54364959  -37.34319506
     atom   26 type  2   force =    -0.03535940   -0.12561293   38.03211279
     atom   27 type  1   force =    -0.45914929   -0.96296356    2.89395316
     atom   28 type  2   force =    -0.11573824   -1.87063435  -37.69278724
     atom   29 type  2   force =     0.21090606    0.02339055   37.80827556
     atom   30 type  1   force =     0.21676833    1.93389445    1.81601082
     atom   31 type  2   force =    -1.41030530    0.29904256  -37.01193508
     atom   32 type  2   force =     0.31871706    0.15498121   38.91244026
     atom   33 type  1   force =    -2.46743895    1.89379621    1.27228929
     atom   34 type  2   force =    -0.81306412    5.11871224  -37.08549453
     atom   35 type  2   force =     0.08613146   -0.15592288   38.44688377
     atom   36 type  3   force =    -1.06048189    0.44710062  -46.08662519
     The core correction contribution to forces
     atom    1 type  1   force =     0.00000000    0.00000000    0.00000000
     atom    2 type  2   force =    -0.02183458    0.01186634    0.00283294
     atom    3 type  2   force =     0.00071097    0.00006670   -0.02079902
     atom    4 type  1   force =     0.00000000    0.00000000    0.00000000
     atom    5 type  2   force =    -0.00063245    0.00182721    0.02022915
     atom    6 type  2   force =     0.00046168   -0.00077205   -0.02108830
     atom    7 type  1   force =     0.00000000    0.00000000    0.00000000
     atom    8 type  2   force =    -0.00006789    0.00076151    0.02043784
     atom    9 type  2   force =     0.00022373    0.00066538   -0.02099664
     atom   10 type  1   force =     0.00000000    0.00000000    0.00000000
     atom   11 type  2   force =    -0.00056086   -0.00055485    0.02078550
     atom   12 type  2   force =     0.00113624    0.00143788   -0.02080414
     atom   13 type  1   force =     0.00000000    0.00000000    0.00000000
     atom   14 type  2   force =    -0.00043169    0.00009365    0.02061752
     atom   15 type  2   force =     0.00039511    0.00026914   -0.02056566
     atom   16 type  1   force =     0.00000000    0.00000000    0.00000000
     atom   17 type  2   force =     0.00001296    0.00136164    0.02023217
     atom   18 type  2   force =    -0.00001603   -0.00079074   -0.02084784
     atom   19 type  1   force =     0.00000000    0.00000000    0.00000000
     atom   20 type  2   force =     0.00013595    0.00079230   -0.02115326
     atom   21 type  1   force =     0.00000000    0.00000000    0.00000000
     atom   22 type  2   force =    -0.00011713   -0.00042007    0.02064094
     atom   23 type  2   force =    -0.00063558    0.00127406   -0.02085891
     atom   24 type  1   force =     0.00000000    0.00000000    0.00000000
     atom   25 type  2   force =    -0.00047127   -0.00027798    0.02104345
     atom   26 type  2   force =    -0.00023249    0.00060634   -0.02052661
     atom   27 type  1   force =     0.00000000    0.00000000    0.00000000
     atom   28 type  2   force =     0.00036759    0.00191473    0.02096686
     atom   29 type  2   force =    -0.00044221   -0.00047488   -0.02059878
     atom   30 type  1   force =     0.00000000    0.00000000    0.00000000
     atom   31 type  2   force =     0.00048579    0.00007241    0.02046105
     atom   32 type  2   force =    -0.00013570    0.00075012   -0.02106101
     atom   33 type  1   force =     0.00000000    0.00000000    0.00000000
     atom   34 type  2   force =     0.00041132   -0.00519081    0.01793975
     atom   35 type  2   force =    -0.00002063    0.00099054   -0.02076684
     atom   36 type  3   force =     0.01216771   -0.00686509    0.00670317
     The Hubbard contrib.    to forces
     atom    1 type  1   force =     0.00000000    0.00000000    0.00000000
     atom    2 type  2   force =     0.00000000    0.00000000    0.00000000
     atom    3 type  2   force =     0.00000000    0.00000000    0.00000000
     atom    4 type  1   force =     0.00000000    0.00000000    0.00000000
     atom    5 type  2   force =     0.00000000    0.00000000    0.00000000
     atom    6 type  2   force =     0.00000000    0.00000000    0.00000000
     atom    7 type  1   force =     0.00000000    0.00000000    0.00000000
     atom    8 type  2   force =     0.00000000    0.00000000    0.00000000
     atom    9 type  2   force =     0.00000000    0.00000000    0.00000000
     atom   10 type  1   force =     0.00000000    0.00000000    0.00000000
     atom   11 type  2   force =     0.00000000    0.00000000    0.00000000
     atom   12 type  2   force =     0.00000000    0.00000000    0.00000000
     atom   13 type  1   force =     0.00000000    0.00000000    0.00000000
     atom   14 type  2   force =     0.00000000    0.00000000    0.00000000
     atom   15 type  2   force =     0.00000000    0.00000000    0.00000000
     atom   16 type  1   force =     0.00000000    0.00000000    0.00000000
     atom   17 type  2   force =     0.00000000    0.00000000    0.00000000
     atom   18 type  2   force =     0.00000000    0.00000000    0.00000000
     atom   19 type  1   force =     0.00000000    0.00000000    0.00000000
     atom   20 type  2   force =     0.00000000    0.00000000    0.00000000
     atom   21 type  1   force =     0.00000000    0.00000000    0.00000000
     atom   22 type  2   force =     0.00000000    0.00000000    0.00000000
     atom   23 type  2   force =     0.00000000    0.00000000    0.00000000
     atom   24 type  1   force =     0.00000000    0.00000000    0.00000000
     atom   25 type  2   force =     0.00000000    0.00000000    0.00000000
     atom   26 type  2   force =     0.00000000    0.00000000    0.00000000
     atom   27 type  1   force =     0.00000000    0.00000000    0.00000000
     atom   28 type  2   force =     0.00000000    0.00000000    0.00000000
     atom   29 type  2   force =     0.00000000    0.00000000    0.00000000
     atom   30 type  1   force =     0.00000000    0.00000000    0.00000000
     atom   31 type  2   force =     0.00000000    0.00000000    0.00000000
     atom   32 type  2   force =     0.00000000    0.00000000    0.00000000
     atom   33 type  1   force =     0.00000000    0.00000000    0.00000000
     atom   34 type  2   force =     0.00000000    0.00000000    0.00000000
     atom   35 type  2   force =     0.00000000    0.00000000    0.00000000
     atom   36 type  3   force =     0.00000000    0.00000000    0.00000000
     The SCF correction term to forces
     atom    1 type  1   force =     0.00013897   -0.00013965   -0.00033000
     atom    2 type  2   force =    -0.00019784    0.00015844   -0.00064393
     atom    3 type  2   force =     0.00000949   -0.00002946    0.00007110
     atom    4 type  1   force =    -0.00002637    0.00008177   -0.00051790
     atom    5 type  2   force =     0.00002711   -0.00002035   -0.00041335
     atom    6 type  2   force =    -0.00000387    0.00002508    0.00003725
     atom    7 type  1   force =     0.00011014   -0.00002922   -0.00047619
     atom    8 type  2   force =     0.00003415    0.00001531   -0.00044501
     atom    9 type  2   force =     0.00002994    0.00000835    0.00004277
     atom   10 type  1   force =     0.00001824    0.00005022   -0.00056080
     atom   11 type  2   force =     0.00003087    0.00001463   -0.00042576
     atom   12 type  2   force =     0.00000804   -0.00000732    0.00001491
     atom   13 type  1   force =     0.00005368   -0.00001329   -0.00061381
     atom   14 type  2   force =     0.00001470    0.00002672   -0.00048772
     atom   15 type  2   force =    -0.00004014    0.00000197    0.00007433
     atom   16 type  1   force =     0.00005013   -0.00007899   -0.00051318
     atom   17 type  2   force =    -0.00000005   -0.00005414   -0.00043466
     atom   18 type  2   force =     0.00000710   -0.00003259    0.00006935
     atom   19 type  1   force =    -0.00006967    0.00003913   -0.00051698
     atom   20 type  2   force =     0.00001836    0.00000945   -0.00000209
     atom   21 type  1   force =    -0.00000102    0.00008498   -0.00052502
     atom   22 type  2   force =     0.00000606    0.00000142   -0.00043543
     atom   23 type  2   force =    -0.00002214    0.00001326    0.00002956
     atom   24 type  1   force =    -0.00007069   -0.00011459   -0.00045926
     atom   25 type  2   force =     0.00007965    0.00008646   -0.00059002
     atom   26 type  2   force =     0.00003764   -0.00002353    0.00010033
     atom   27 type  1   force =    -0.00000281    0.00001526   -0.00050773
     atom   28 type  2   force =    -0.00002631   -0.00002871   -0.00038324
     atom   29 type  2   force =    -0.00000375    0.00003216   -0.00000079
     atom   30 type  1   force =    -0.00004723   -0.00002613   -0.00053931
     atom   31 type  2   force =    -0.00005740    0.00002519   -0.00042285
     atom   32 type  2   force =    -0.00004353    0.00001917    0.00003060
     atom   33 type  1   force =    -0.00007769    0.00003755   -0.00067143
     atom   34 type  2   force =    -0.00002999   -0.00016138   -0.00058767
     atom   35 type  2   force =     0.00002054   -0.00002655    0.00008784
     atom   36 type  3   force =    -0.00017721    0.00021240   -0.00041024

     Total force =     0.199233     Total SCF correction =     0.002538
     Energy error            =      5.2E-02 Ry
     Gradient error          =      1.3E-01 Ry/Bohr

     number of scf cycles    =   2
     number of bfgs steps    =   1

     energy             old  =   -2246.1421694433 Ry
     energy             new  =   -2246.1942712414 Ry

     CASE: energy            _new < energy            _old

     new trust radius        =       0.1895580084 bohr
     new conv_thr            =       0.0000001322 Ry


ATOMIC_POSITIONS (angstrom)
Mo            6.5748592456        1.7996904964        2.8131803426
S             8.2138189883        0.7752305668        4.4471117064
S             8.1772324717        0.8225988348        1.2684271232
Mo            8.0995098557        4.4900931788        2.7156304936
S             6.4969893085        3.7196954281        4.3410739900
S             6.5529735803        3.5172215845        1.1195499490
Mo            6.4943537888        7.2042932452        2.6661873720
S             8.0833789015        6.3370934153        4.2617564688
S             8.0930268967        6.3112001674        1.0918473078
Mo            8.1239159948        9.8882059800        2.7735237813
S             6.4995859524        8.9411481094        4.3754559496
S             6.6116950040        9.0487401257        1.1424552806
Mo            3.4404754594        1.7539390914        2.7589725597
S             4.9759886597        0.8190750063        4.3595647247
S             5.0467470703        0.8477298507        1.2137332026
Mo            4.9770645582        4.5276377152        2.6381074579
S             3.4354317342        3.6710605734        4.2828841759
S             3.4362797888        3.5442681132        1.0694833718
Mo            3.4580817265        7.2051541759        2.6279771478
S             4.9864285901        6.3227537955        1.0374398940
Mo            5.0109839993        9.9012971924        2.7449494954
S             3.4687675898        8.9414336792        4.3224739945
S             3.4122622258        9.0649448804        1.1017799362
Mo            0.2896225596        1.7678315988        2.7981523757
S             1.9187910026        0.8367207817        4.3671474384
S             1.8515295095        0.8536594762        1.2050169239
Mo            1.8577317112        4.4961237569        2.6711691200
S             0.2731496698        3.6518611878        4.3343580905
S             0.2377254086        3.5310661611        1.1669896284
Mo            0.2744187223        7.2041035030        2.6845274785
S             1.9014572135        6.3177786310        4.2389790996
S             1.8524940496        6.3170254004        1.0512236102
Mo            1.8597063852        9.9386192311        2.7635767435
S             0.2986226239        9.0367524889        4.3863915937
S             0.2696950880        9.0508213581        1.1650657193
O             9.3743116778        0.0240776293        5.2845840294



     Writing config-only to output data dir ./MoS2-V-O.save/
     NEW-OLD atomic charge density approx. for the potential

     negative rho (up, down):  1.494E-04 0.000E+00

     total cpu time spent up to now is      227.5 secs

     Self-consistent Calculation

     iteration #  1     ecut=    80.00 Ry     beta= 0.70
     Davidson diagonalization with overlap
     ethr =  1.00E-06,  avg # of iterations = 15.0

     negative rho (up, down):  3.126E-04 0.000E+00

     total cpu time spent up to now is      241.1 secs

     total energy              =   -2246.23380556 Ry
     estimated scf accuracy    <       0.01829978 Ry

     iteration #  2     ecut=    80.00 Ry     beta= 0.70
     Davidson diagonalization with overlap
     ethr =  5.87E-06,  avg # of iterations =  5.0

     negative rho (up, down):  5.085E-04 0.000E+00

     total cpu time spent up to now is      257.2 secs

     total energy              =   -2246.23754593 Ry
     estimated scf accuracy    <       0.01009352 Ry

     iteration #  3     ecut=    80.00 Ry     beta= 0.70
     Davidson diagonalization with overlap
     ethr =  3.24E-06,  avg # of iterations =  3.0

     negative rho (up, down):  8.072E-04 0.000E+00

     total cpu time spent up to now is      275.3 secs

     total energy              =   -2246.23820803 Ry
     estimated scf accuracy    <       0.00066127 Ry

     iteration #  4     ecut=    80.00 Ry     beta= 0.70
     Davidson diagonalization with overlap
     ethr =  2.12E-07,  avg # of iterations =  6.0

     negative rho (up, down):  8.998E-04 0.000E+00

     total cpu time spent up to now is      289.9 secs

     total energy              =   -2246.23830873 Ry
     estimated scf accuracy    <       0.00017930 Ry

     iteration #  5     ecut=    80.00 Ry     beta= 0.70
     Davidson diagonalization with overlap
     ethr =  5.75E-08,  avg # of iterations =  2.0

     negative rho (up, down):  9.262E-04 0.000E+00

     total cpu time spent up to now is      303.5 secs

     total energy              =   -2246.23830624 Ry
     estimated scf accuracy    <       0.00006980 Ry

     iteration #  6     ecut=    80.00 Ry     beta= 0.70
     Davidson diagonalization with overlap
     ethr =  2.24E-08,  avg # of iterations =  5.0

     negative rho (up, down):  8.612E-04 0.000E+00

     total cpu time spent up to now is      316.2 secs

     total energy              =   -2246.23831402 Ry
     estimated scf accuracy    <       0.00000641 Ry

     iteration #  7     ecut=    80.00 Ry     beta= 0.70
     Davidson diagonalization with overlap
     ethr =  2.05E-09,  avg # of iterations =  5.0

     negative rho (up, down):  7.494E-04 0.000E+00

     total cpu time spent up to now is      329.8 secs

     total energy              =   -2246.23831568 Ry
     estimated scf accuracy    <       0.00000222 Ry

     iteration #  8     ecut=    80.00 Ry     beta= 0.70
     Davidson diagonalization with overlap
     ethr =  7.12E-10,  avg # of iterations =  2.0

     negative rho (up, down):  5.949E-04 0.000E+00

     total cpu time spent up to now is      340.3 secs

     total energy              =   -2246.23831541 Ry
     estimated scf accuracy    <       0.00000090 Ry

     iteration #  9     ecut=    80.00 Ry     beta= 0.70
     Davidson diagonalization with overlap
     ethr =  2.87E-10,  avg # of iterations =  2.0

     negative rho (up, down):  4.595E-04 0.000E+00

     total cpu time spent up to now is      353.2 secs

     total energy              =   -2246.23831522 Ry
     estimated scf accuracy    <       0.00000036 Ry

     iteration # 10     ecut=    80.00 Ry     beta= 0.70
     Davidson diagonalization with overlap
     ethr =  1.15E-10,  avg # of iterations =  2.0

     negative rho (up, down):  2.133E-04 0.000E+00

     total cpu time spent up to now is      357.1 secs

     End of self-consistent calculation

          k = 0.0000 0.0000 0.0000 (105382 PWs)   bands (ev):

   -63.0462 -62.9427 -62.9342 -62.9127 -62.8776 -62.8564 -62.8460 -62.8410
   -62.8264 -62.8217 -62.7821 -62.7052 -37.3400 -37.2948 -37.2502 -37.2223
   -37.1842 -37.1760 -37.1650 -37.1432 -37.1275 -37.1191 -37.1122 -37.1029
   -37.0860 -37.0764 -37.0471 -37.0406 -37.0374 -37.0328 -37.0229 -37.0169
   -37.0104 -37.0033 -36.9943 -36.9906 -36.9806 -36.9557 -36.9550 -36.9437
   -36.9248 -36.8897 -36.8859 -36.8634 -36.8530 -36.8322 -36.8022 -36.7524
   -21.7213 -15.9808 -15.2877 -15.1707 -15.0649 -14.9137 -14.7996 -14.7034
   -14.5580 -14.5201 -14.4924 -14.4380 -14.4237 -14.3627 -14.2833 -14.2298
   -14.1940 -14.1718 -14.0965 -14.0163 -13.9361 -13.8957 -13.8600 -13.6358
    -8.3173  -7.8154  -7.6521  -7.5177  -7.3977  -7.3550  -7.3159  -7.2566
    -7.2170  -7.1227  -6.8912  -6.8728  -6.8478  -6.7413  -6.6747  -6.6174
    -6.5419  -6.4679  -6.4338  -6.3257  -6.1218  -6.0825  -5.9634  -5.9108
    -5.8962  -5.8376  -5.8070  -5.7561  -5.7272  -5.7131  -5.6784  -5.6193
    -5.5605  -5.4956  -5.4236  -5.3515  -5.3174  -5.1771  -5.0900  -5.0644
    -5.0149  -4.9789  -4.9049  -4.7080  -4.6829  -4.5909  -4.4384  -4.3910
    -4.3467  -4.2946  -4.2282  -4.1395  -3.9934  -3.9753  -3.8586  -3.8460
    -3.8113  -3.7576  -3.6889  -3.6520  -3.5987  -3.5799  -3.5547  -3.4949
    -3.4480  -3.4252  -3.2675  -3.2218  -3.0433  -2.9933  -2.8848  -2.8612
    -2.8323  -2.8067  -2.7623  -2.7187  -2.7008  -2.6487  -2.3871  -2.3157
    -2.0834  -2.0467  -1.9570  -1.8342  -1.2718  -0.8211  -0.7580  -0.2161
    -0.1777  -0.1236  -0.0672   0.0668   0.0932   0.1704   0.1756   0.2424
     0.2557   0.3034   0.3837   0.4656   0.4951   0.5328   0.5370   0.5775
     0.6591   0.6717   0.7062   0.7370   0.8158   0.8324   0.9010   0.9286
     0.9700   0.9971   1.2329

     the Fermi energy is    -1.5529 ev

!    total energy              =   -2246.23831512 Ry
     estimated scf accuracy    <       0.00000012 Ry
     smearing contrib. (-TS)   =      -0.00015848 Ry
     internal energy E=F+TS    =   -2246.23815663 Ry

     The total energy is F=E-TS. E is the sum of the following terms:
     one-electron contribution =  -18479.94479276 Ry
     hartree contribution      =    9228.29611613 Ry
     xc contribution           =    -392.13633944 Ry
     ewald contribution        =    7407.41053288 Ry
     one-center paw contrib.   =      -9.86367346 Ry

     convergence has been achieved in  10 iterations

     negative rho (up, down):  2.133E-04 0.000E+00

     Forces acting on atoms (cartesian axes, Ry/au):

     atom    1 type  1   force =    -0.00324433   -0.00190735    0.01006143
     atom    2 type  2   force =     0.06249866   -0.04455247   -0.01192190
     atom    3 type  2   force =    -0.01534690    0.01046896   -0.01688931
     atom    4 type  1   force =     0.00332704   -0.00071125    0.00246324
     atom    5 type  2   force =    -0.00163620    0.00008970   -0.00434939
     atom    6 type  2   force =    -0.00327677    0.00626683   -0.00261219
     atom    7 type  1   force =     0.00078670   -0.00581503    0.00314375
     atom    8 type  2   force =     0.00305719   -0.00623733    0.00689358
     atom    9 type  2   force =     0.00711775    0.00142710    0.00148825
     atom   10 type  1   force =     0.00582454    0.00429480    0.00074819
     atom   11 type  2   force =     0.00474823   -0.00292998   -0.01085331
     atom   12 type  2   force =    -0.01664888   -0.00776462   -0.01305577
     atom   13 type  1   force =     0.00699952    0.00569428   -0.00666449
     atom   14 type  2   force =     0.00575150    0.00344807   -0.00143372
     atom   15 type  2   force =    -0.00091759   -0.00061038   -0.01044443
     atom   16 type  1   force =     0.00166644    0.00694519    0.00232173
     atom   17 type  2   force =     0.00543012    0.00087653    0.00198901
     atom   18 type  2   force =    -0.00035430    0.00203537    0.00527186
     atom   19 type  1   force =     0.00223566   -0.00661427    0.00204249
     atom   20 type  2   force =     0.00186289   -0.00304195   -0.00431795
     atom   21 type  1   force =    -0.00212310    0.00108924    0.00235316
     atom   22 type  2   force =    -0.00191659   -0.00200728   -0.00324109
     atom   23 type  2   force =     0.00295507   -0.00194922    0.00108912
     atom   24 type  1   force =     0.00305232   -0.00192426   -0.00535347
     atom   25 type  2   force =     0.01342689    0.01793962   -0.01994065
     atom   26 type  2   force =    -0.00083280   -0.00091073   -0.01071627
     atom   27 type  1   force =    -0.00004730    0.00135021    0.00480269
     atom   28 type  2   force =    -0.00119732   -0.00474986   -0.00450957
     atom   29 type  2   force =     0.00397756    0.01093947   -0.01145695
     atom   30 type  1   force =    -0.00308367   -0.00179502    0.00467747
     atom   31 type  2   force =     0.00077982    0.00011582    0.00849009
     atom   32 type  2   force =    -0.00165383    0.00189359    0.00203808
     atom   33 type  1   force =     0.00151065    0.00267304    0.00330338
     atom   34 type  2   force =    -0.00263739   -0.03246737   -0.03586266
     atom   35 type  2   force =    -0.00016790    0.00265088   -0.00246534
     atom   36 type  3   force =    -0.08192368    0.04578967    0.11291092
     The non-local contrib.  to forces
     atom    1 type  1   force =    -0.01702966    0.00885027   -0.02621232
     atom    2 type  2   force =     0.34905814   -0.19067199    0.09225526
     atom    3 type  2   force =    -0.01419215   -0.00524958    0.26480612
     atom    4 type  1   force =     0.00367580    0.01016475    0.00302835
     atom    5 type  2   force =     0.00623705   -0.02830707   -0.24863872
     atom    6 type  2   force =    -0.00763515    0.00730878    0.26756211
     atom    7 type  1   force =    -0.01302017    0.00821777   -0.02338997
     atom    8 type  2   force =     0.00346992   -0.00823679   -0.26068393
     atom    9 type  2   force =    -0.00176419   -0.01383556    0.27329375
     atom   10 type  1   force =    -0.00257273    0.00501803    0.02142489
     atom   11 type  2   force =     0.01201644    0.00338933   -0.26377999
     atom   12 type  2   force =    -0.02119661   -0.02422538    0.25275270
     atom   13 type  1   force =    -0.01144577    0.01943673   -0.00120599
     atom   14 type  2   force =     0.00711957   -0.01085379   -0.26552126
     atom   15 type  2   force =    -0.00189935   -0.00475506    0.26115483
     atom   16 type  1   force =    -0.00599506    0.03840649   -0.03122259
     atom   17 type  2   force =     0.00072989   -0.02561612   -0.25075693
     atom   18 type  2   force =    -0.00315134    0.00450680    0.26828850
     atom   19 type  1   force =     0.01246479    0.00568967   -0.01580877
     atom   20 type  2   force =    -0.00076569   -0.01866958    0.26171561
     atom   21 type  1   force =     0.00043406    0.02613436    0.00269116
     atom   22 type  2   force =    -0.00050286    0.00156861   -0.26165340
     atom   23 type  2   force =     0.00833550   -0.01686951    0.26632799
     atom   24 type  1   force =    -0.00519726    0.01805961    0.01053794
     atom   25 type  2   force =     0.00218323   -0.00369586   -0.26451186
     atom   26 type  2   force =     0.00390577   -0.01070964    0.25619685
     atom   27 type  1   force =    -0.00362766    0.00470424    0.00995908
[...]
     atom   28 type  2   force =    -0.00073133   -0.01393919   -0.27779421
     atom   29 type  2   force =     0.00046252   -0.00702817    0.26611798
     atom   30 type  1   force =     0.00471206    0.01794675    0.00523234
     atom   31 type  2   force =    -0.00905365   -0.00058764   -0.26660052
     atom   32 type  2   force =     0.00666085   -0.01192566    0.26994007
     atom   33 type  1   force =    -0.00247272    0.00675996    0.00265897
     atom   34 type  2   force =    -0.00244634   -0.00627504   -0.27866368
     atom   35 type  2   force =     0.00020169   -0.01505082    0.26497975
     atom   36 type  3   force =    -0.03612996    0.00484534   -2.31826216
     The ionic contribution  to forces
     atom    1 type  1   force =    -1.09343561    1.23157099   -1.09228822
     atom    2 type  2   force =    -0.29232054   -0.01682642   28.69414754
     atom    3 type  2   force =     0.04016652   -0.07952244  -38.10655145
     atom    4 type  1   force =    -0.09491912    1.22229799   -0.60650534
     atom    5 type  2   force =    -1.30200147    2.13024866   37.89511701
     atom    6 type  2   force =     0.17415934   -0.20966257  -38.72376500
     atom    7 type  1   force =    -2.77740449   -2.29904378    1.81296219
     atom    8 type  2   force =    -1.11248428    0.18997632   37.89661648
     atom    9 type  2   force =     0.33300795   -0.00729481  -38.33775153
     atom   10 type  1   force =    -0.43601673   -1.56228205   -1.21328102
     atom   11 type  2   force =    -0.99902840   -2.31400017   37.96748763
     atom   12 type  2   force =     0.11431955    0.23163055  -38.67458772
     atom   13 type  1   force =     0.16088648    1.02285246    1.44788061
     atom   14 type  2   force =    -0.98780719   -0.15982628   37.91743289
     atom   15 type  2   force =    -0.04354173   -0.13007679  -38.24157200
     atom   16 type  1   force =    -0.40993025    3.82207364    1.37154479
     atom   17 type  2   force =     0.78528293    1.46007451   38.08903744
     atom   18 type  2   force =    -0.17366083   -0.26613205  -38.37860028
     atom   19 type  1   force =     2.57379704   -1.95432825    1.53657820
     atom   20 type  2   force =    -0.03541779   -0.03591297  -39.12993764
     atom   21 type  1   force =    -0.56220133   -0.78933918   -0.29746101
     atom   22 type  2   force =     0.42038177   -1.72424305   38.20592757
     atom   23 type  2   force =    -0.19688521    0.22444607  -38.39502301
     atom   24 type  1   force =     0.93339432    0.95071069   -1.68073036
     atom   25 type  2   force =     1.17172484   -0.02316317   38.16019392
     atom   26 type  2   force =     0.00328404   -0.08056503  -38.30125997
     atom   27 type  1   force =     0.49521446    0.86558960   -0.51625903
     atom   28 type  2   force =     0.52133803    1.53612965   37.60388539
     atom   29 type  2   force =     0.00342164    0.06701607  -38.39953022
     atom   30 type  1   force =     0.18751195   -1.12673050    0.45128300
     atom   31 type  2   force =     1.26978295    0.17758770   37.97237757
     atom   32 type  2   force =    -0.29499012   -0.01827095  -38.44739919
     atom   33 type  1   force =     1.00777612   -1.01309163    1.23531338
     atom   34 type  2   force =     0.59461408   -1.47636266   38.14304561
     atom   35 type  2   force =     0.08832823    0.08237567  -38.34013229
     atom   36 type  3   force =    -0.06634713    0.07209420   50.48180404
     The local contribution  to forces
     atom    1 type  1   force =     1.08653788   -1.24486357    1.08172196
     atom    2 type  2   force =     0.28550579    0.01381997  -28.98027764
     atom    3 type  2   force =    -0.03791292    0.09018604   37.84912891
     atom    4 type  1   force =     0.09057545   -1.22568704    0.60402076
     atom    5 type  2   force =     1.29760306   -2.10947242  -37.65803975
     atom    6 type  2   force =    -0.17379640    0.21158305   38.47960944
     atom    7 type  1   force =     2.79675112    2.30014183   -1.78649843
     atom    8 type  2   force =     1.10663880   -0.19017035  -37.64964671
     atom    9 type  2   force =    -0.32750265    0.02016831   38.08768347
     atom   10 type  1   force =     0.43599697    1.54681745    1.19673592
     atom   11 type  2   force =     0.99281877    2.31310922  -37.72557399
     atom   12 type  2   force =    -0.10736684   -0.21829841   38.43102078
     atom   13 type  1   force =    -0.16181271   -1.04844924   -1.45026225
     atom   14 type  2   force =     0.98735337    0.16392783  -37.66388893
     atom   15 type  2   force =     0.04426308    0.13990883   38.00174184
     atom   16 type  1   force =     0.40971234   -3.85726053   -1.33642721
     atom   17 type  2   force =    -0.78162570   -1.43642796  -37.85166107
     atom   18 type  2   force =     0.17385409    0.27120182   38.13146404
     atom   19 type  1   force =    -2.58870851    1.95053775   -1.51146041
     atom   20 type  2   force =     0.03632522    0.04835199   38.88902626
     atom   21 type  1   force =     0.56095588    0.76044128    0.29417863
     atom   22 type  2   force =    -0.41607311    1.72278527  -37.96446202
     atom   23 type  2   force =     0.18953806   -0.21129164   38.14999140
     atom   24 type  1   force =    -0.92557646   -0.95747059    1.66124902
     atom   25 type  2   force =    -1.17304370    0.02968677  -37.90892553
     atom   26 type  2   force =    -0.00638360    0.09016894   38.05803784
     atom   27 type  1   force =    -0.49219071   -0.87157487    0.51042571
     atom   28 type  2   force =    -0.52088479   -1.52320990  -37.34770738
     atom   29 type  2   force =    -0.00375637   -0.06006167   38.15320969
     atom   30 type  1   force =    -0.19226262    1.10924098   -0.45501230
     atom   31 type  2   force =    -1.26125767   -0.17794786  -37.72498679
     atom   32 type  2   force =     0.28894814    0.03028216   38.19937801
     atom   33 type  1   force =    -1.00563680    1.00610200   -1.23779735
     atom   34 type  2   force =    -0.59271243    1.48194923  -37.88530704
     atom   35 type  2   force =    -0.08786728   -0.06944001   38.09544500
     atom   36 type  3   force =     0.10136097   -0.07618017  -48.19043611
     The core correction contribution to forces
     atom    1 type  1   force =     0.00000000    0.00000000    0.00000000
     atom    2 type  2   force =    -0.00042577   -0.00018698   -0.00988375
     atom    3 type  2   force =     0.00008038    0.00052330   -0.02134377
     atom    4 type  1   force =     0.00000000    0.00000000    0.00000000
     atom    5 type  2   force =    -0.00035526    0.00096640    0.02069491
     atom    6 type  2   force =     0.00016072   -0.00025932   -0.02083793
     atom    7 type  1   force =     0.00000000    0.00000000    0.00000000
     atom    8 type  2   force =    -0.00025279    0.00033507    0.02096070
     atom    9 type  2   force =     0.00054371    0.00067798   -0.02104147
     atom   10 type  1   force =     0.00000000    0.00000000    0.00000000
     atom   11 type  2   force =    -0.00012093   -0.00024007    0.02094288
     atom   12 type  2   force =     0.00057479    0.00096776   -0.02084316
     atom   13 type  1   force =     0.00000000    0.00000000    0.00000000
     atom   14 type  2   force =     0.00001985   -0.00015430    0.02136570
     atom   15 type  2   force =     0.00007142    0.00041239   -0.02058924
     atom   16 type  1   force =     0.00000000    0.00000000    0.00000000
     atom   17 type  2   force =     0.00038056    0.00109106    0.02057351
     atom   18 type  2   force =    -0.00006412   -0.00022283   -0.02090263
     atom   19 type  1   force =     0.00000000    0.00000000    0.00000000
     atom   20 type  2   force =     0.00009582    0.00053100   -0.02121404
     atom   21 type  1   force =     0.00000000    0.00000000    0.00000000
     atom   22 type  2   force =     0.00002368   -0.00037371    0.02074594
     atom   23 type  2   force =    -0.00062472    0.00099604   -0.02089019
     atom   24 type  1   force =     0.00000000    0.00000000    0.00000000
     atom   25 type  2   force =    -0.00012520    0.00018530    0.02132192
     atom   26 type  2   force =    -0.00020021    0.00041706   -0.02075935
     atom   27 type  1   force =     0.00000000    0.00000000    0.00000000
     atom   28 type  2   force =     0.00002151    0.00089555    0.02146332
     atom   29 type  2   force =    -0.00007987    0.00022646   -0.02078423
     atom   30 type  1   force =     0.00000000    0.00000000    0.00000000
     atom   31 type  2   force =     0.00043854    0.00030921    0.02096677
     atom   32 type  2   force =    -0.00062911    0.00060682   -0.02102356
     atom   33 type  1   force =     0.00000000    0.00000000    0.00000000
     atom   34 type  2   force =     0.00014029    0.00024424    0.02159992
     atom   35 type  2   force =     0.00003796    0.00090437   -0.02088292
     atom   36 type  3   force =     0.00038768   -0.00007262    0.02460819
     The Hubbard contrib.    to forces
     atom    1 type  1   force =     0.00000000    0.00000000    0.00000000
     atom    2 type  2   force =     0.00000000    0.00000000    0.00000000
     atom    3 type  2   force =     0.00000000    0.00000000    0.00000000
     atom    4 type  1   force =     0.00000000    0.00000000    0.00000000
     atom    5 type  2   force =     0.00000000    0.00000000    0.00000000
     atom    6 type  2   force =     0.00000000    0.00000000    0.00000000
     atom    7 type  1   force =     0.00000000    0.00000000    0.00000000
     atom    8 type  2   force =     0.00000000    0.00000000    0.00000000
     atom    9 type  2   force =     0.00000000    0.00000000    0.00000000
     atom   10 type  1   force =     0.00000000    0.00000000    0.00000000
     atom   11 type  2   force =     0.00000000    0.00000000    0.00000000
     atom   12 type  2   force =     0.00000000    0.00000000    0.00000000
     atom   13 type  1   force =     0.00000000    0.00000000    0.00000000
     atom   14 type  2   force =     0.00000000    0.00000000    0.00000000
     atom   15 type  2   force =     0.00000000    0.00000000    0.00000000
     atom   16 type  1   force =     0.00000000    0.00000000    0.00000000
     atom   17 type  2   force =     0.00000000    0.00000000    0.00000000
     atom   18 type  2   force =     0.00000000    0.00000000    0.00000000
     atom   19 type  1   force =     0.00000000    0.00000000    0.00000000
     atom   20 type  2   force =     0.00000000    0.00000000    0.00000000
     atom   21 type  1   force =     0.00000000    0.00000000    0.00000000
     atom   22 type  2   force =     0.00000000    0.00000000    0.00000000
     atom   23 type  2   force =     0.00000000    0.00000000    0.00000000
     atom   24 type  1   force =     0.00000000    0.00000000    0.00000000
     atom   25 type  2   force =     0.00000000    0.00000000    0.00000000
     atom   26 type  2   force =     0.00000000    0.00000000    0.00000000
     atom   27 type  1   force =     0.00000000    0.00000000    0.00000000
     atom   28 type  2   force =     0.00000000    0.00000000    0.00000000
     atom   29 type  2   force =     0.00000000    0.00000000    0.00000000
     atom   30 type  1   force =     0.00000000    0.00000000    0.00000000
     atom   31 type  2   force =     0.00000000    0.00000000    0.00000000
     atom   32 type  2   force =     0.00000000    0.00000000    0.00000000
     atom   33 type  1   force =     0.00000000    0.00000000    0.00000000
     atom   34 type  2   force =     0.00000000    0.00000000    0.00000000
     atom   35 type  2   force =     0.00000000    0.00000000    0.00000000
     atom   36 type  3   force =     0.00000000    0.00000000    0.00000000
     The SCF correction term to forces
     atom    1 type  1   force =    -0.00002694    0.00001513    0.00004645
     atom    2 type  2   force =    -0.00005360    0.00002588   -0.00001034
     atom    3 type  2   force =    -0.00001191    0.00000072   -0.00000022
     atom    4 type  1   force =    -0.00003784    0.00000004    0.00000868
     atom    5 type  2   force =    -0.00000863   -0.00000867    0.00000286
     atom    6 type  2   force =     0.00000181    0.00000180    0.00001955
     atom    7 type  1   force =    -0.00000337   -0.00001982   -0.00000125
     atom    8 type  2   force =    -0.00002312   -0.00002284   -0.00000270
     atom    9 type  2   force =    -0.00000599   -0.00000516   -0.00000603
     atom   10 type  1   force =    -0.00003817    0.00000093   -0.00003781
     atom   11 type  2   force =    -0.00002037    0.00000543   -0.00000331
     atom   12 type  2   force =    -0.00000615   -0.00000272   -0.00000184
     atom   13 type  1   force =     0.00002861    0.00001705    0.00001433
     atom   14 type  2   force =     0.00002871    0.00001222    0.00000846
     atom   15 type  2   force =     0.00001478   -0.00000635    0.00001097
     atom   16 type  1   force =     0.00001096    0.00001192    0.00002709
     atom   17 type  2   force =     0.00002195    0.00000945    0.00000449
     atom   18 type  2   force =     0.00000066    0.00001910    0.00000326
     atom   19 type  1   force =     0.00002240   -0.00001627   -0.00002925
     atom   20 type  2   force =    -0.00000626   -0.00000203    0.00000189
     atom   21 type  1   force =     0.00000901    0.00000489    0.00000400
     atom   22 type  2   force =     0.00001963    0.00000515   -0.00000845
     atom   23 type  2   force =     0.00000412   -0.00000406   -0.00000558
     atom   24 type  1   force =    -0.00001888    0.00002812   -0.00001955
     atom   25 type  2   force =     0.00002003    0.00000405   -0.00000165
     atom   26 type  2   force =     0.00000161   -0.00000961   -0.00001189
     atom   27 type  1   force =     0.00001338    0.00001487   -0.00000769
     atom   28 type  2   force =    -0.00000740    0.00001267   -0.00000686
     atom   29 type  2   force =     0.00000166    0.00001375   -0.00000059
     atom   30 type  1   force =     0.00000397   -0.00003531   -0.00004987
     atom   31 type  2   force =     0.00001205   -0.00002060   -0.00000790
     atom   32 type  2   force =     0.00000633   -0.00000628   -0.00001115
     atom   33 type  1   force =     0.00002425   -0.00000767   -0.00003080
     atom   34 type  2   force =     0.00000191   -0.00000322   -0.00001003
     atom   35 type  2   force =     0.00000247   -0.00000423   -0.00001869
     atom   36 type  3   force =    -0.00008747    0.00003820    0.00000994

     Total force =     0.006883     Total SCF correction =     0.000200
     Energy error            =      9.8E-05 Ry
     Gradient error          =      2.3E-03 Ry/Bohr

     bfgs converged in  23 scf cycles and  22 bfgs steps
     (criteria: energy <  1.0E-04 Ry, force <  1.0E-02 Ry/Bohr)

     End of BFGS Geometry Optimization

     Final energy             =   -2246.4497210016 Ry

     File ./MoS2-V-O.bfgs deleted, as requested
Begin final coordinates

ATOMIC_POSITIONS (angstrom)
Mo            6.5749566664        1.7580344027        2.7457384566
S             8.1706104079        0.8208816005        4.2661414848
S             8.1719599919        0.8273462175        1.1813419239
Mo            8.1592184887        4.4714652302        2.7110807291
S             6.5565719542        3.6505284868        4.3162693710
S             6.5848016034        3.5607821639        1.1018030102
Mo            6.5472668216        7.1592494937        2.6642154133
S             8.1273748835        6.2858929260        4.2929172858
S             8.1718299646        6.3015926847        1.1064568346
Mo            8.1721865193        9.8830615665        2.7452125969
S             6.5593373556        8.9201009527        4.3202305116
S             6.6131285680        8.9947871152        1.1110821173
Mo            3.4631431220        1.7247935726        2.7560652848
S             5.0355561523        0.7942475732        4.3395071316
S             5.0244814661        0.8118209711        1.1572991176
Mo            5.0318705671        4.5237935785        2.6584709237
S             3.5015881944        3.6417096656        4.3073230864
S             3.4779976136        3.5376844558        1.1127591294
Mo            3.5097939442        7.1586570632        2.6555875777
S             5.0318132124        6.2885978357        1.0360862703
Mo            5.0342084151        9.8833150102        2.7230221440
S             3.5042270587        8.9228921364        4.3131484581
S             3.4390903709        9.0084193306        1.1168932454
Mo            0.3257381626        1.7422531629        2.7471597753
S             1.8867032780        0.8259507051        4.3597721943
S             1.8954730153        0.8171998771        1.1606262122
Mo            1.9036006201        4.4734105508        2.7044736850
S             0.3073912569        3.5892839287        4.3173399821
S             0.3034247412        3.5542464818        1.1328030433
Mo            0.3094811574        7.1966638892        2.7208298903
S             1.9446786009        6.2852258958        4.2871884881
S             1.8903451678        6.2990253607        1.0987455234
Mo            1.8885812323        9.9157447849        2.7569571416
S             0.3040539715        9.0017576001        4.3499517504
S             0.3135921342        9.0255571383        1.1498842332
O             8.1930303319        0.8249730020        5.7663635533
End final coordinates



     Writing all to output data dir ./MoS2-V-O.save/
 
     init_run     :      4.63s CPU      5.15s WALL (       1 calls)
     electrons    :   2350.76s CPU   2684.17s WALL (      23 calls)
     update_pot   :     69.81s CPU     74.98s WALL (      22 calls)
     forces       :     67.65s CPU     78.54s WALL (      23 calls)

     Called by init_run:
     wfcinit      :      0.49s CPU      0.54s WALL (       1 calls)
     potinit      :      2.37s CPU      2.61s WALL (       1 calls)
     hinit0       :      0.43s CPU      0.46s WALL (       1 calls)

     Called by electrons:
     c_bands      :    334.98s CPU    343.55s WALL (     230 calls)
     sum_band     :    142.26s CPU    197.45s WALL (     230 calls)
     v_of_rho     :    277.79s CPU    338.79s WALL (     247 calls)
     newd         :     88.99s CPU    133.66s WALL (     247 calls)
     PAW_pot      :      9.74s CPU      9.78s WALL (     269 calls)
     mix_rho      :   1523.49s CPU   1690.94s WALL (     230 calls)

     Called by c_bands:
     init_us_2    :      5.27s CPU      5.68s WALL (     483 calls)
     init_us_2:cp :      5.27s CPU      5.68s WALL (     483 calls)
     regterg      :    317.85s CPU    326.01s WALL (     230 calls)

     Called by *egterg:
     rdiaghg      :     21.54s CPU     21.77s WALL (    1236 calls)
     h_psi        :    206.27s CPU    208.17s WALL (    1265 calls)
     s_psi        :     19.25s CPU     19.31s WALL (    1265 calls)
     g_psi        :      0.98s CPU      0.99s WALL (    1034 calls)

     Called by h_psi:
     h_psi:calbec :     22.44s CPU     22.56s WALL (    1265 calls)
     vloc_psi     :    162.04s CPU    163.69s WALL (    1265 calls)
     add_vuspsi   :     19.21s CPU     19.33s WALL (    1265 calls)

     General routines
     calbec       :     32.30s CPU     32.49s WALL (    1609 calls)
     fft          :    193.80s CPU    218.22s WALL (   16406 calls)
     ffts         :    683.27s CPU    844.80s WALL (  371616 calls)
     fftw         :    104.18s CPU    105.12s WALL (  139982 calls)
     interpolate  :      3.08s CPU      3.54s WALL (     247 calls)
 
     Parallel routines
 
     PWSCF        :  41m44.01s CPU  47m39.70s WALL

 
   This run was terminated on:   0:40:36   2Nov2023            

=------------------------------------------------------------------------------=
   JOB DONE.
=------------------------------------------------------------------------------=
