
     Program PWSCF v.7.2 starts on  1Nov2023 at 16:31:26 

     This program is part of the open-source Quantum ESPRESSO suite
     for quantum simulation of materials; please cite
         "P. Giannozzi et al., J. Phys.:Condens. Matter 21 395502 (2009);
         "P. Giannozzi et al., J. Phys.:Condens. Matter 29 465901 (2017);
         "P. Giannozzi et al., J. Chem. Phys. 152 154105 (2020);
          URL http://www.quantum-espresso.org", 
     in publications or presentations arising from this work. More details at
     http://www.quantum-espresso.org/quote

     Parallel version (MPI & OpenMP), running on      48 processor cores
     Number of MPI processes:                48
     Threads/MPI process:                     1

     MPI processes distributed on     1 nodes
     44346 MiB available memory on the printing compute node when the environment starts
 
     Waiting for input...
     Reading input from standard input
Warning: card &CELL ignored
Warning: card CELL_DYNAMICS = 'BFGS', ignored
Warning: card CELL_DOFREE = '2DXY' ignored
Warning: card / ignored

     Current dimensions of program PWSCF are:
     Max number of different atomic species (ntypx) = 10
     Max number of k-points (npk) =  40000
     Max angular momentum in pseudopotentials (lmaxx) =  4
     file O.pbe-n-kjpaw_psl.0.1.UPF: wavefunction(s)  2P renormalized

     IMPORTANT: XC functional enforced from input :
     Exchange-correlation= RVV10
                           (   1   4  13   4  26   0   0)
     Any further DFT definition will be discarded
     Please, verify this is what you really want


     gamma-point specific algorithms are used
     signal trapping enabled: kill the code with -SIGUSR1 to stop cleanly the simulation 
 
     R & G space division:  proc/nbgrp/npool/nimage =      48
     Subspace diagonalization in iterative solution of the eigenvalue problem:
     one sub-group per band group will be used
     scalapack distributed-memory algorithm (size of sub-group:  2*  2 procs)

 
     Parallelization info
     --------------------
     sticks:   dense  smooth     PW     G-vecs:    dense   smooth      PW
     Min         396     194     47               101632    35090    4376
     Max         398     196     50               101674    35128    4410
     Sum       19091    9389   2349              4879585  1685513  210763
 
     Using Slab Decomposition
 


     bravais-lattice index     =            0
     lattice parameter (alat)  =      17.8707  a.u.
     unit-cell volume          =   17436.2743 (a.u.)^3
     number of atoms/cell      =           36
     number of atomic types    =            3
     number of electrons       =       312.00
     number of Kohn-Sham states=          187
     kinetic-energy cutoff     =      80.0000  Ry
     charge density cutoff     =     650.0000  Ry
     scf convergence threshold =      1.0E-06
     mixing beta               =       0.7000
     number of iterations used =            8  local-TF  mixing
     energy convergence thresh.=      1.0E-04
     force convergence thresh. =      1.0E-02
     Exchange-correlation= RVV10
                           (   1   4  13   4  26   0   0)
     nstep                     =          200


     celldm(1)=  17.870686  celldm(2)=   0.000000  celldm(3)=   0.000000
     celldm(4)=   0.000000  celldm(5)=   0.000000  celldm(6)=   0.000000

     crystal axes: (cart. coord. in units of alat)
               a(1) = (   1.000000   0.000000   0.000000 )  
               a(2) = (   0.000000   1.155671   0.000000 )  
               a(3) = (   0.000000   0.000000   2.643601 )  

     reciprocal axes: (cart. coord. in units 2 pi/alat)
               b(1) = (  1.000000  0.000000  0.000000 )  
               b(2) = (  0.000000  0.865298  0.000000 )  
               b(3) = (  0.000000  0.000000  0.378272 )  


     PseudoPot. # 1 for Mo read from file:
     ../pseudo/Mo_ONCV_PBE-1.0.oncvpsp.upf
     MD5 check sum: 1b5d28e075c9ccadda658a603575cd1f
     Pseudo is Norm-conserving, Zval = 14.0
     Generated using ONCVPSP code by D. R. Hamann
     Using radial grid of 1526 points,  6 beta functions with: 
                l(1) =   0
                l(2) =   0
                l(3) =   1
                l(4) =   1
                l(5) =   2
                l(6) =   2

     PseudoPot. # 2 for S  read from file:
     ../pseudo/s_pbe_v1.4.uspp.F.UPF
     MD5 check sum: 88d86576ff6df21479756cfb9bdac1df
     Pseudo is Ultrasoft + core correction, Zval =  6.0
     Generated by new atomic code, or converted to UPF format
     Using radial grid of  907 points,  6 beta functions with: 
                l(1) =   0
                l(2) =   0
                l(3) =   1
                l(4) =   1
                l(5) =   2
                l(6) =   2
     Q(r) pseudized with  8 coefficients,  rinner =    1.300   1.300   1.300
                                                       1.300   1.300

     PseudoPot. # 3 for O  read from file:
     ../pseudo/O.pbe-n-kjpaw_psl.0.1.UPF
     MD5 check sum: 0234752ac141de4415c5fc33072bef88
     Pseudo is Projector augmented-wave + core cor, Zval =  6.0
     Generated using "atomic" code by A. Dal Corso  v.5.0.99 svn rev. 10869
     Shape of augmentation charge: BESSEL
     Using radial grid of 1095 points,  4 beta functions with: 
                l(1) =   0
                l(2) =   0
                l(3) =   1
                l(4) =   1
     Q(r) pseudized with 0 coefficients 


     atomic species   valence    mass     pseudopotential
        Mo            14.00    95.94000     Mo( 1.00)
        S              6.00    32.06500     S ( 1.00)
        O              6.00    15.99940     O ( 1.00)

     No symmetry found



   Cartesian axes

     site n.     atom                  positions (alat units)
         1           Mo  tau(   1) = (   0.6952221   0.1890506   0.2985846  )
         2           S   tau(   2) = (   0.8646417   0.0856217   0.4689279  )
         3           S   tau(   3) = (   0.8663890   0.0857843   0.1351291  )
         4           Mo  tau(   4) = (   0.8560186   0.4753274   0.2873942  )
         5           S   tau(   5) = (   0.6873294   0.3936244   0.4596353  )
         6           S   tau(   6) = (   0.6929804   0.3713468   0.1185692  )
         7           Mo  tau(   7) = (   0.6862796   0.7633098   0.2825370  )
         8           S   tau(   8) = (   0.8545980   0.6708292   0.4486168  )
         9           S   tau(   9) = (   0.8545123   0.6666874   0.1146125  )
        10           Mo  tau(  10) = (   0.8629403   1.0471007   0.3006803  )
        11           S   tau(  11) = (   0.6868280   0.9456650   0.4634891  )
        12           S   tau(  12) = (   0.6998113   0.9568511   0.1205389  )
        13           Mo  tau(  13) = (   0.3618216   0.1847309   0.2935964  )
        14           S   tau(  14) = (   0.5260962   0.0863870   0.4600448  )
        15           S   tau(  15) = (   0.5348379   0.0894875   0.1297123  )
        16           Mo  tau(  16) = (   0.5265817   0.4772436   0.2784130  )
        17           S   tau(  17) = (   0.3624753   0.3882513   0.4525556  )
        18           S   tau(  18) = (   0.3635411   0.3752055   0.1119148  )
        19           Mo  tau(  19) = (   0.3652268   0.7630864   0.2781795  )
        20           S   tau(  20) = (   0.5269494   0.6690381   0.1096838  )
        21           Mo  tau(  21) = (   0.5300192   1.0470394   0.2900995  )
        22           S   tau(  22) = (   0.3670346   0.9457522   0.4574073  )
        23           S   tau(  23) = (   0.3604225   0.9585725   0.1159032  )
        24           Mo  tau(  24) = (   0.0313099   0.1847895   0.3013130  )
        25           S   tau(  25) = (   0.1956761   0.0838230   0.4650863  )
        26           S   tau(  26) = (   0.1967693   0.0903508   0.1278874  )
        27           Mo  tau(  27) = (   0.1967578   0.4753919   0.2813011  )
        28           S   tau(  28) = (   0.0287851   0.3864324   0.4586755  )
        29           S   tau(  29) = (   0.0244514   0.3729871   0.1239344  )
        30           Mo  tau(  30) = (   0.0286728   0.7631204   0.2856894  )
        31           S   tau(  31) = (   0.2011512   0.6675435   0.4465001  )
        32           S   tau(  32) = (   0.1969214   0.6672839   0.1104564  )
        33           Mo  tau(  33) = (   0.1950294   1.0511147   0.2932237  )
        34           S   tau(  34) = (   0.0312912   0.9612169   0.4667423  )
        35           S   tau(  35) = (   0.0292670   0.9563028   0.1216485  )
        36           O   tau(  36) = (   0.4444444   0.5136314   0.5650415  )

     number of k points=     1  Gaussian smearing, width (Ry)=  0.0100
                       cart. coord. in units 2pi/alat
        k(    1) = (   0.0000000   0.0000000   0.0000000), wk =   2.0000000

     Dense  grid:  2439793 G-vectors     FFT dimensions: ( 150, 180, 384)

     Smooth grid:   842757 G-vectors     FFT dimensions: ( 108, 120, 270)

     Estimated max dynamical RAM per process >     269.22 MB

     Estimated total dynamical RAM >      12.62 GB

     Initial potential from superposition of free atoms

     starting charge     311.9873, renormalised to     312.0000

     negative rho (up, down):  2.746E-04 0.000E+00


---------------------------------------------------------------------------------
Carrying out rVV10 run using the following parameters:
Nqs =      20    Nr_points =    1024   r_max =   100.000
b_value =  6.30000    beta =  0.00901
     q_mesh =  0.00010000  0.00030000  0.00058939  0.00100810
               0.00161396  0.00249058  0.00375900  0.00559430
               0.00824984  0.01209221  0.01765183  0.02569619
               0.03733578  0.05417739  0.07854596  0.11380545
               0.16482331  0.23864234  0.34545298  0.50000000

Gradients computed in Reciprocal space

---------------------------------------------------------------------------------


     Starting wfcs are  216 randomized atomic wfcs
     Checking if some PAW data can be deallocated... 

     total cpu time spent up to now is        5.3 secs

     Self-consistent Calculation

     iteration #  1     ecut=    80.00 Ry     beta= 0.70
     Davidson diagonalization with overlap
     ethr =  1.00E-02,  avg # of iterations =  2.0

     Threshold (ethr) on eigenvalues was too large:
     Diagonalizing with lowered threshold

     Davidson diagonalization with overlap
     ethr =  4.44E-04,  avg # of iterations =  4.0

     negative rho (up, down):  3.916E-08 0.000E+00

     total cpu time spent up to now is       19.6 secs

     total energy              =   -2246.26369684 Ry
     estimated scf accuracy    <       1.63679145 Ry

     iteration #  2     ecut=    80.00 Ry     beta= 0.70
     Davidson diagonalization with overlap
     ethr =  5.25E-04,  avg # of iterations =  4.0

     total cpu time spent up to now is       24.6 secs

     total energy              =   -2246.26762608 Ry
     estimated scf accuracy    <       0.73262228 Ry

     iteration #  3     ecut=    80.00 Ry     beta= 0.70
     Davidson diagonalization with overlap
     ethr =  2.35E-04,  avg # of iterations =  2.0

     total cpu time spent up to now is       28.9 secs

     total energy              =   -2246.25606219 Ry
     estimated scf accuracy    <       0.24316527 Ry

     iteration #  4     ecut=    80.00 Ry     beta= 0.70
     Davidson diagonalization with overlap
     c_bands:  1 eigenvalues not converged
     ethr =  7.79E-05,  avg # of iterations = 20.0

     total cpu time spent up to now is       34.2 secs

     total energy              =   -2246.29562665 Ry
     estimated scf accuracy    <       0.03042540 Ry

     iteration #  5     ecut=    80.00 Ry     beta= 0.70
     Davidson diagonalization with overlap
     ethr =  9.75E-06,  avg # of iterations = 18.0

     total cpu time spent up to now is       39.4 secs

     total energy              =   -2246.29670195 Ry
     estimated scf accuracy    <       0.01714656 Ry

     iteration #  6     ecut=    80.00 Ry     beta= 0.70
     Davidson diagonalization with overlap
     ethr =  5.50E-06,  avg # of iterations =  3.0

     total cpu time spent up to now is       43.6 secs

     total energy              =   -2246.29611769 Ry
     estimated scf accuracy    <       0.01098503 Ry

     iteration #  7     ecut=    80.00 Ry     beta= 0.70
     Davidson diagonalization with overlap
     ethr =  3.52E-06,  avg # of iterations =  2.0

     total cpu time spent up to now is       47.6 secs

     total energy              =   -2246.29531918 Ry
     estimated scf accuracy    <       0.00699108 Ry

     iteration #  8     ecut=    80.00 Ry     beta= 0.70
     Davidson diagonalization with overlap
     ethr =  2.24E-06,  avg # of iterations =  2.0

     negative rho (up, down):  2.879E-03 0.000E+00

     total cpu time spent up to now is       54.1 secs

     total energy              =   -2246.29410740 Ry
     estimated scf accuracy    <       0.00442983 Ry

     iteration #  9     ecut=    80.00 Ry     beta= 0.70
     Davidson diagonalization with overlap
     ethr =  1.42E-06,  avg # of iterations =  2.0

     negative rho (up, down):  1.465E-02 0.000E+00

     total cpu time spent up to now is       60.4 secs

     total energy              =   -2246.29387580 Ry
     estimated scf accuracy    <       0.00220954 Ry

     iteration # 10     ecut=    80.00 Ry     beta= 0.70
     Davidson diagonalization with overlap
     ethr =  7.08E-07,  avg # of iterations =  2.0

     negative rho (up, down):  2.199E-02 0.000E+00

     total cpu time spent up to now is       67.8 secs

     total energy              =   -2246.29388957 Ry
     estimated scf accuracy    <       0.00112676 Ry

     iteration # 11     ecut=    80.00 Ry     beta= 0.70
     Davidson diagonalization with overlap
     ethr =  3.61E-07,  avg # of iterations =  2.0

     negative rho (up, down):  1.669E-02 0.000E+00

     total cpu time spent up to now is       75.7 secs

     total energy              =   -2246.29392827 Ry
     estimated scf accuracy    <       0.00029024 Ry

     iteration # 12     ecut=    80.00 Ry     beta= 0.70
     Davidson diagonalization with overlap
     ethr =  9.30E-08,  avg # of iterations =  5.0

     negative rho (up, down):  4.369E-03 0.000E+00

     total cpu time spent up to now is       84.1 secs

     total energy              =   -2246.29393284 Ry
     estimated scf accuracy    <       0.00006647 Ry

     iteration # 13     ecut=    80.00 Ry     beta= 0.70
     Davidson diagonalization with overlap
     ethr =  2.13E-08,  avg # of iterations =  5.0

     negative rho (up, down):  1.470E-03 0.000E+00

     total cpu time spent up to now is       92.3 secs

     total energy              =   -2246.29396660 Ry
     estimated scf accuracy    <       0.00001716 Ry

     iteration # 14     ecut=    80.00 Ry     beta= 0.70
     Davidson diagonalization with overlap
     ethr =  5.50E-09,  avg # of iterations =  5.0

     negative rho (up, down):  4.670E-04 0.000E+00

     total cpu time spent up to now is      102.5 secs

     total energy              =   -2246.29397207 Ry
     estimated scf accuracy    <       0.00000490 Ry

     iteration # 15     ecut=    80.00 Ry     beta= 0.70
     Davidson diagonalization with overlap
     ethr =  1.57E-09,  avg # of iterations =  5.0

     negative rho (up, down):  4.073E-04 0.000E+00

     total cpu time spent up to now is      111.2 secs

     total energy              =   -2246.29397806 Ry
     estimated scf accuracy    <       0.00000221 Ry

     iteration # 16     ecut=    80.00 Ry     beta= 0.70
     Davidson diagonalization with overlap
     ethr =  7.08E-10,  avg # of iterations =  3.0

     negative rho (up, down):  1.873E-04 0.000E+00

     total cpu time spent up to now is      115.1 secs

     End of self-consistent calculation

          k = 0.0000 0.0000 0.0000 (105382 PWs)   bands (ev):

   -63.1032 -63.0123 -62.9934 -62.9889 -62.9820 -62.9722 -62.9546 -62.9317
   -62.9106 -62.8634 -62.8541 -62.7670 -37.3977 -37.3393 -37.3154 -37.2937
   -37.2717 -37.2501 -37.2309 -37.2220 -37.2033 -37.1968 -37.1857 -37.1814
   -37.1797 -37.1693 -37.1615 -37.1469 -37.1375 -37.1272 -37.1224 -37.1088
   -37.0994 -37.0847 -37.0617 -37.0466 -37.0415 -37.0283 -37.0174 -37.0025
   -36.9924 -36.9737 -36.9604 -36.9503 -36.9408 -36.9178 -36.8647 -36.7431
   -19.9008 -16.0596 -15.2568 -15.2324 -15.0715 -15.0188 -14.8833 -14.5779
   -14.5742 -14.5635 -14.5015 -14.4839 -14.4485 -14.4229 -14.3488 -14.2719
   -14.2202 -14.2083 -14.1972 -14.1230 -13.9818 -13.9637 -13.9225 -13.8897
    -7.8128  -7.6804  -7.5516  -7.5237  -7.3853  -7.3622  -7.3333  -7.2945
    -7.1112  -6.9955  -6.9558  -6.8630  -6.8405  -6.7219  -6.6314  -6.5874
    -6.5566  -6.4873  -6.3978  -6.3273  -6.1804  -6.0866  -6.0075  -5.9906
    -5.8814  -5.8602  -5.8492  -5.8199  -5.7552  -5.7528  -5.6927  -5.6517
    -5.5858  -5.5341  -5.4813  -5.3021  -5.2723  -5.2368  -5.1758  -5.1080
    -5.0783  -5.0389  -4.9770  -4.8034  -4.7438  -4.5980  -4.4725  -4.4259
    -4.3542  -4.3308  -4.1876  -4.1470  -4.1006  -4.0033  -3.9440  -3.8643
    -3.8419  -3.7960  -3.7360  -3.6647  -3.6370  -3.6166  -3.5789  -3.5750
    -3.5045  -3.4848  -3.3813  -3.3026  -3.1309  -3.0726  -2.9556  -2.9467
    -2.8598  -2.8544  -2.8120  -2.7913  -2.7571  -2.7218  -2.5548  -2.4852
    -2.3576  -2.1274  -2.0277  -1.6501  -1.2227  -0.8310  -0.6932  -0.2992
    -0.2462  -0.1795  -0.1355  -0.0440   0.0059   0.0593   0.1234   0.1440
     0.1515   0.2465   0.3218   0.3925   0.4242   0.4556   0.4824   0.4954
     0.5786   0.6156   0.6576   0.6705   0.6990   0.7406   0.7907   0.8475
     0.8642   0.9530   1.1358

     the Fermi energy is    -1.4364 ev

!    total energy              =   -2246.29397609 Ry
     estimated scf accuracy    <       0.00000066 Ry
     smearing contrib. (-TS)   =      -0.00095751 Ry
     internal energy E=F+TS    =   -2246.29301859 Ry

     The total energy is F=E-TS. E is the sum of the following terms:
     one-electron contribution =  -18438.40474669 Ry
     hartree contribution      =    9206.98915911 Ry
     xc contribution           =    -391.87300091 Ry
     ewald contribution        =    7386.86659076 Ry
     one-center paw contrib.   =      -9.87102086 Ry

     convergence has been achieved in  16 iterations

     negative rho (up, down):  1.873E-04 0.000E+00

     Forces acting on atoms (cartesian axes, Ry/au):

     atom    1 type  1   force =     0.00686135   -0.02834494    0.00223222
     atom    2 type  2   force =    -0.01488151    0.01789213    0.00104357
     atom    3 type  2   force =    -0.01128138    0.00861667   -0.00234472
     atom    4 type  1   force =     0.01183913    0.00136514   -0.00380435
     atom    5 type  2   force =     0.00862292   -0.01399824   -0.01689662
     atom    6 type  2   force =    -0.00171665    0.01655679   -0.00053496
     atom    7 type  1   force =    -0.00240868   -0.00213636   -0.01555547
     atom    8 type  2   force =     0.00171263   -0.00359229    0.01821251
     atom    9 type  2   force =     0.01398325    0.00359865    0.01066730
     atom   10 type  1   force =    -0.01118008    0.01094153   -0.02951796
     atom   11 type  2   force =     0.00369908   -0.00437829   -0.00534861
     atom   12 type  2   force =    -0.00011818    0.00036056    0.00809801
     atom   13 type  1   force =     0.03322131   -0.01721312   -0.00089924
     atom   14 type  2   force =     0.00860561   -0.00434590    0.01263080
     atom   15 type  2   force =    -0.01489922    0.00467793   -0.01208754
     atom   16 type  1   force =    -0.00001738    0.00178993    0.01965260
     atom   17 type  2   force =     0.03652059    0.11337165    0.07224021
     atom   18 type  2   force =    -0.00345100   -0.00573066    0.01227284
     atom   19 type  1   force =     0.00837635   -0.00456772   -0.00898750
     atom   20 type  2   force =     0.00457253   -0.00337337    0.00223534
     atom   21 type  1   force =    -0.00694826    0.00362745    0.00008811
     atom   22 type  2   force =    -0.00039265   -0.00366591   -0.00186144
     atom   23 type  2   force =    -0.00041420    0.00278453    0.00945477
     atom   24 type  1   force =    -0.00848924    0.00154705   -0.01848389
     atom   25 type  2   force =     0.01410881    0.01423420    0.00493311
     atom   26 type  2   force =    -0.01003640    0.00008720   -0.00608691
     atom   27 type  1   force =     0.00284239    0.01258690    0.01027919
     atom   28 type  2   force =    -0.00537314   -0.00331609   -0.00462932
     atom   29 type  2   force =     0.00107351   -0.00208721   -0.00280410
     atom   30 type  1   force =    -0.00501024    0.01056760   -0.00738084
     atom   31 type  2   force =     0.00289895    0.00099552    0.01591536
     atom   32 type  2   force =    -0.00927849    0.00369412    0.00453414
     atom   33 type  1   force =     0.01157147   -0.00424221   -0.00691299
     atom   34 type  2   force =     0.00331242   -0.04397296   -0.00925719
     atom   35 type  2   force =    -0.00731774    0.00665708    0.01658939
     atom   36 type  3   force =    -0.06060786   -0.09098738   -0.06768585
     The non-local contrib.  to forces
     atom    1 type  1   force =     0.00613210    0.03395034   -0.01535009
     atom    2 type  2   force =    -0.00966204    0.00858204   -0.27023943
     atom    3 type  2   force =    -0.01399151    0.00063916    0.27041670
     atom    4 type  1   force =    -0.00075702    0.01164706    0.01164143
     atom    5 type  2   force =     0.03775369   -0.03981402   -0.26074007
     atom    6 type  2   force =    -0.01225331    0.01540070    0.26533398
     atom    7 type  1   force =    -0.02835163   -0.01037840   -0.00709253
     atom    8 type  2   force =     0.00638212   -0.00606478   -0.25835464
     atom    9 type  2   force =     0.00842335   -0.01076979    0.27827080
     atom   10 type  1   force =     0.00584169   -0.00266845    0.00000479
     atom   11 type  2   force =     0.01144052    0.00548505   -0.26641361
     atom   12 type  2   force =    -0.01208639   -0.01622079    0.26223567
     atom   13 type  1   force =    -0.00565125    0.01136733   -0.02647393
     atom   14 type  2   force =     0.01124842   -0.01164924   -0.26569147
     atom   15 type  2   force =    -0.02259716   -0.00295042    0.26316330
     atom   16 type  1   force =    -0.01281808    0.03825905   -0.03313238
     atom   17 type  2   force =     0.23804988    0.30850579    0.14691544
     atom   18 type  2   force =     0.00020300   -0.00259516    0.27425969
     atom   19 type  1   force =     0.02064738   -0.00079135   -0.01214889
     atom   20 type  2   force =    -0.00222394   -0.02355856    0.26515410
     atom   21 type  1   force =     0.00894282    0.01580825    0.00487115
     atom   22 type  2   force =    -0.00870368    0.00311169   -0.26374986
     atom   23 type  2   force =     0.00508234   -0.01556991    0.26907260
     atom   24 type  1   force =    -0.00075946    0.00454124   -0.01004000
     atom   25 type  2   force =     0.00528304    0.00643726   -0.26006634
     atom   26 type  2   force =     0.00125336   -0.01358533    0.26439562
     atom   27 type  1   force =    -0.00178051    0.00074258    0.01488149
     atom   28 type  2   force =    -0.00487155   -0.02071075   -0.27516416
     atom   29 type  2   force =     0.00571568    0.00082717    0.26116124
     atom   30 type  1   force =     0.00095832    0.01610127    0.01143597
     atom   31 type  2   force =    -0.00967010    0.00117765   -0.26177224
     atom   32 type  2   force =    -0.00413804   -0.01729622    0.27500133
     atom   33 type  1   force =    -0.00808552    0.00052002    0.00571045
     atom   34 type  2   force =     0.00094728   -0.03694214   -0.27650745
     atom   35 type  2   force =    -0.00103229   -0.00865760    0.26905496
     atom   36 type  3   force =    -0.69036064   -1.03751066   -1.02031883
     The ionic contribution  to forces
     atom    1 type  1   force =     1.10983458   -0.86209229    4.16449757
     atom    2 type  2   force =    -0.54101994    0.13284473   39.10363724
     atom    3 type  2   force =    -0.12189301   -0.09434730  -36.58166962
     atom    4 type  1   force =     0.80275799    0.41748681   -1.05087364
     atom    5 type  2   force =     0.99629638    0.44341460   37.72869199
     atom    6 type  2   force =     0.55765475   -0.66766380  -38.86933715
     atom    7 type  1   force =    -1.63728823   -1.57030197    0.58956537
     atom    8 type  2   force =    -0.51838158    0.41606038   36.99965779
     atom    9 type  2   force =     0.43794397    0.08231329  -38.66411089
     atom   10 type  1   force =    -0.95502729   -0.17198362    4.78466605
     atom   11 type  2   force =    -0.27805222   -1.14597623   38.89532526
     atom   12 type  2   force =     0.52518239    0.81917668  -38.39558842
     atom   13 type  1   force =     0.07213947   -0.65283704    0.81963917
     atom   14 type  2   force =     0.22473822   -0.73019817   38.18917857
     atom   15 type  2   force =     0.20949515   -0.25539581  -37.42443158
     atom   16 type  1   force =     1.40515414    3.28629280   -5.30994571
     atom   17 type  2   force =    -1.91826632   -2.72714453   34.03610286
     atom   18 type  2   force =    -0.27425599   -0.86803813  -39.62024105
     atom   19 type  1   force =     2.14131954   -0.52715569   -2.19142082
     atom   20 type  2   force =     0.33805344    0.03879650  -39.49724316
     atom   21 type  1   force =     0.20113208    0.33002541    0.00722732
     atom   22 type  2   force =     0.30619945   -1.01946486   38.10077710
     atom   23 type  2   force =    -0.12875520    0.82336891  -38.88703156
     atom   24 type  1   force =    -0.86885049    0.47567660    4.70062678
     atom   25 type  2   force =     0.36954604   -0.17589298   39.02943347
     atom   26 type  2   force =    -0.38011716   -0.08464682  -37.89192734
     atom   27 type  1   force =    -1.83540256    0.06787208   -5.31648106
     atom   28 type  2   force =    -0.44005220    0.67146506   37.83448652
     atom   29 type  2   force =    -0.35908949   -0.54100367  -37.93169163
     atom   30 type  1   force =    -0.74351385   -0.22674348   -1.37277483
     atom   31 type  2   force =    -0.33540368    1.03209534   36.38203856
     atom   32 type  2   force =    -0.67693749    0.16344302  -39.45647628
     atom   33 type  1   force =     0.49232285   -0.66667509    1.04916452
     atom   34 type  2   force =     0.11741459   -1.19854147   39.17743725
     atom   35 type  2   force =    -0.34133873    0.57473148  -38.30731058
     atom   36 type  3   force =     2.04646038    4.41103922   45.17640190
     The local contribution  to forces
     atom    1 type  1   force =    -1.10904054    0.79982517   -4.14784222
     atom    2 type  2   force =     0.53558571   -0.12302926  -38.85331503
     atom    3 type  2   force =     0.12394805    0.10251404   36.32922761
     atom    4 type  1   force =    -0.79015360   -0.42781370    1.03457613
     atom    5 type  2   force =    -1.02282220   -0.42023611  -37.50636035
     atom    6 type  2   force =    -0.54799528    0.67010574   38.62390441
     atom    7 type  1   force =     1.66334596    1.57837900   -0.59890493
     atom    8 type  2   force =     0.51397460   -0.41424545  -36.74396527
     atom    9 type  2   force =    -0.43217584   -0.06863839   38.41699990
     atom   10 type  1   force =     0.93795186    0.18571429   -4.81504301
     atom   11 type  2   force =     0.27088297    1.13675092  -38.65543101
     atom   12 type  2   force =    -0.51436594   -0.80383981   38.16169431
     atom   13 type  1   force =    -0.03331063    0.62414835   -0.79507722
     atom   14 type  2   force =    -0.22688246    0.73743973  -37.93188802
     atom   15 type  2   force =    -0.20302423    0.26286812   37.16926911
     atom   16 type  1   force =    -1.39216580   -3.32280433    5.36155285
     atom   17 type  2   force =     1.72998591    2.54921172  -34.10993260
     atom   18 type  2   force =     0.27077976    0.86537836   39.37877430
     atom   19 type  1   force =    -2.15351796    0.52338583    2.19349805
     atom   20 type  2   force =    -0.33142369   -0.01964982   39.25489872
     atom   21 type  1   force =    -0.21698072   -0.34194214   -0.01295818
     atom   22 type  2   force =    -0.29817112    1.01339407  -37.85988804
     atom   23 type  2   force =     0.12373034   -0.80615799   38.64773774
     atom   24 type  1   force =     0.86106722   -0.47864370   -4.70992247
     atom   25 type  2   force =    -0.36075564    0.18430099  -38.78535273
     atom   26 type  2   force =     0.36923686    0.09769295   37.64182661
     atom   27 type  1   force =     1.83980867   -0.05621051    5.31074427
     atom   28 type  2   force =     0.43923182   -0.65579993  -37.58518239
     atom   29 type  2   force =     0.35498935    0.53856578   37.68765502
     atom   30 type  1   force =     0.73737267    0.22106427    1.35311047
     atom   31 type  2   force =     0.34687822   -1.03224150  -36.12576961
     atom   32 type  2   force =     0.67181780   -0.14353336   39.20644146
     atom   33 type  1   force =    -0.47264133    0.66217986   -1.06266173
     atom   34 type  2   force =    -0.11533969    1.19039680  -38.93164741
     atom   35 type  2   force =     0.33520843   -0.56018173   38.07526249
     atom   36 type  3   force =    -1.42458732   -3.47619012  -44.23534810
     The core correction contribution to forces
     atom    1 type  1   force =     0.00000000    0.00000000    0.00000000
     atom    2 type  2   force =     0.00021434   -0.00046376    0.02077544
     atom    3 type  2   force =     0.00063723   -0.00016002   -0.02089031
     atom    4 type  1   force =     0.00000000    0.00000000    0.00000000
     atom    5 type  2   force =    -0.00248539    0.00259784    0.02127545
     atom    6 type  2   force =     0.00085422   -0.00130527   -0.02098791
     atom    7 type  1   force =     0.00000000    0.00000000    0.00000000
     atom    8 type  2   force =    -0.00028200    0.00064251    0.02066897
     atom    9 type  2   force =    -0.00023975    0.00066007   -0.02103832
     atom   10 type  1   force =     0.00000000    0.00000000    0.00000000
     atom   11 type  2   force =    -0.00054442   -0.00064351    0.02098289
     atom   12 type  2   force =     0.00114503    0.00126433   -0.02080305
     atom   13 type  1   force =     0.00000000    0.00000000    0.00000000
     atom   14 type  2   force =    -0.00048531    0.00001254    0.02082650
     atom   15 type  2   force =     0.00122490    0.00016201   -0.02066837
     atom   16 type  1   force =     0.00000000    0.00000000    0.00000000
     atom   17 type  2   force =    -0.01324501   -0.01726128   -0.00123956
     atom   18 type  2   force =    -0.00016550   -0.00051480   -0.02110569
     atom   19 type  1   force =     0.00000000    0.00000000    0.00000000
     atom   20 type  2   force =     0.00025188    0.00095871   -0.02115301
     atom   21 type  1   force =     0.00000000    0.00000000    0.00000000
     atom   22 type  2   force =     0.00027010   -0.00056735    0.02086063
     atom   23 type  2   force =    -0.00046266    0.00125634   -0.02094395
     atom   24 type  1   force =     0.00000000    0.00000000    0.00000000
     atom   25 type  2   force =     0.00001447   -0.00063181    0.02073388
     atom   26 type  2   force =    -0.00040256    0.00064056   -0.02094762
     atom   27 type  1   force =     0.00000000    0.00000000    0.00000000
     atom   28 type  2   force =     0.00022635    0.00171169    0.02102988
     atom   29 type  2   force =    -0.00054224   -0.00049574   -0.02048202
     atom   30 type  1   force =     0.00000000    0.00000000    0.00000000
     atom   31 type  2   force =     0.00091261   -0.00002768    0.02126803
     atom   32 type  2   force =    -0.00008086    0.00100371   -0.02106839
     atom   33 type  1   force =     0.00000000    0.00000000    0.00000000
     atom   34 type  2   force =     0.00027454    0.00113034    0.02131490
     atom   35 type  2   force =    -0.00017552    0.00081113   -0.02101131
     atom   36 type  3   force =     0.00791755    0.01168679    0.01136124
     The Hubbard contrib.    to forces
     atom    1 type  1   force =     0.00000000    0.00000000    0.00000000
     atom    2 type  2   force =     0.00000000    0.00000000    0.00000000
     atom    3 type  2   force =     0.00000000    0.00000000    0.00000000
     atom    4 type  1   force =     0.00000000    0.00000000    0.00000000
     atom    5 type  2   force =     0.00000000    0.00000000    0.00000000
     atom    6 type  2   force =     0.00000000    0.00000000    0.00000000
     atom    7 type  1   force =     0.00000000    0.00000000    0.00000000
     atom    8 type  2   force =     0.00000000    0.00000000    0.00000000
     atom    9 type  2   force =     0.00000000    0.00000000    0.00000000
     atom   10 type  1   force =     0.00000000    0.00000000    0.00000000
     atom   11 type  2   force =     0.00000000    0.00000000    0.00000000
     atom   12 type  2   force =     0.00000000    0.00000000    0.00000000
     atom   13 type  1   force =     0.00000000    0.00000000    0.00000000
     atom   14 type  2   force =     0.00000000    0.00000000    0.00000000
     atom   15 type  2   force =     0.00000000    0.00000000    0.00000000
     atom   16 type  1   force =     0.00000000    0.00000000    0.00000000
     atom   17 type  2   force =     0.00000000    0.00000000    0.00000000
     atom   18 type  2   force =     0.00000000    0.00000000    0.00000000
     atom   19 type  1   force =     0.00000000    0.00000000    0.00000000
     atom   20 type  2   force =     0.00000000    0.00000000    0.00000000
     atom   21 type  1   force =     0.00000000    0.00000000    0.00000000
     atom   22 type  2   force =     0.00000000    0.00000000    0.00000000
     atom   23 type  2   force =     0.00000000    0.00000000    0.00000000
     atom   24 type  1   force =     0.00000000    0.00000000    0.00000000
     atom   25 type  2   force =     0.00000000    0.00000000    0.00000000
     atom   26 type  2   force =     0.00000000    0.00000000    0.00000000
     atom   27 type  1   force =     0.00000000    0.00000000    0.00000000
     atom   28 type  2   force =     0.00000000    0.00000000    0.00000000
     atom   29 type  2   force =     0.00000000    0.00000000    0.00000000
     atom   30 type  1   force =     0.00000000    0.00000000    0.00000000
     atom   31 type  2   force =     0.00000000    0.00000000    0.00000000
     atom   32 type  2   force =     0.00000000    0.00000000    0.00000000
     atom   33 type  1   force =     0.00000000    0.00000000    0.00000000
     atom   34 type  2   force =     0.00000000    0.00000000    0.00000000
     atom   35 type  2   force =     0.00000000    0.00000000    0.00000000
     atom   36 type  3   force =     0.00000000    0.00000000    0.00000000
     The SCF correction term to forces
     atom    1 type  1   force =    -0.00006669   -0.00002890    0.00088932
     atom    2 type  2   force =    -0.00000150   -0.00004237    0.00014769
     atom    3 type  2   force =     0.00001595   -0.00002997    0.00053325
     atom    4 type  1   force =    -0.00001014    0.00004423    0.00081408
     atom    5 type  2   force =    -0.00012146    0.00003871    0.00019870
     atom    6 type  2   force =     0.00002106    0.00001868    0.00051405
     atom    7 type  1   force =    -0.00011670    0.00016426    0.00083897
     atom    8 type  2   force =     0.00001758    0.00001430    0.00016801
     atom    9 type  2   force =     0.00002961    0.00003273    0.00050816
     atom   10 type  1   force =     0.00005176   -0.00012144    0.00081657
     atom   11 type  2   force =    -0.00002969    0.00000473    0.00015020
     atom   12 type  2   force =     0.00000482   -0.00002059    0.00052184
     atom   13 type  1   force =     0.00004182    0.00010750    0.00097510
     atom   14 type  2   force =    -0.00001516    0.00004850    0.00016758
     atom   15 type  2   force =     0.00000020   -0.00000672    0.00054236
     atom   16 type  1   force =    -0.00018955    0.00004166    0.00114020
     atom   17 type  2   force =    -0.00000578    0.00005921    0.00035642
     atom   18 type  2   force =    -0.00001418    0.00003832    0.00054795
     atom   19 type  1   force =    -0.00007452   -0.00000726    0.00104651
     atom   20 type  2   force =    -0.00008706    0.00007905    0.00054103
     atom   21 type  1   force =    -0.00004435   -0.00026482    0.00091017
     atom   22 type  2   force =     0.00001068   -0.00014020    0.00010107
     atom   23 type  2   force =    -0.00001093   -0.00011358    0.00058229
     atom   24 type  1   force =     0.00005158   -0.00002784    0.00081414
     atom   25 type  2   force =     0.00001898    0.00002000    0.00014718
     atom   26 type  2   force =    -0.00000881   -0.00001490    0.00052816
     atom   27 type  1   force =     0.00021488    0.00018200    0.00109683
     atom   28 type  2   force =     0.00009053    0.00001709    0.00016318
     atom   29 type  2   force =    -0.00000170    0.00001850    0.00051564
     atom   30 type  1   force =     0.00017070    0.00014479    0.00080990
     atom   31 type  2   force =     0.00017998   -0.00000903    0.00011297
     atom   32 type  2   force =     0.00005819    0.00007622    0.00059837
     atom   33 type  1   force =    -0.00002644   -0.00026773    0.00083612
     atom   34 type  2   force =     0.00001380   -0.00001724    0.00010787
     atom   35 type  2   force =     0.00001848   -0.00004695    0.00055618
     atom   36 type  3   force =    -0.00003974   -0.00001335    0.00018028

     Total force =     0.219582     Total SCF correction =     0.003828

     BFGS Geometry Optimization
     Energy error            =      0.0E+00 Ry
     Gradient error          =      1.1E-01 Ry/Bohr

     number of scf cycles    =   1
     number of bfgs steps    =   0

     energy             new  =   -2246.2939760945 Ry

     new trust radius        =       0.1393037460 bohr
     new conv_thr            =       0.0000010000 Ry


ATOMIC_POSITIONS (angstrom)
Mo            6.5781792795        1.7728067352        2.8248242742
S             8.1688343810        0.8191721308        4.4350905877
S             8.1872632361        0.8158014902        1.2766426535
Mo            8.1014275639        4.4957793457        2.7158052203
S             6.5044723088        3.7150039394        4.3377193406
S             6.5524413865        3.5204990339        1.1209971376
Mo            6.4887070766        7.2173067727        2.6636528859
S             8.0826340140        6.3419700338        4.2520992101
S             8.0883172656        6.3066066414        1.0895078922
Mo            8.1547028043        9.9079704223        2.8278415294
S             6.4971250635        8.9406099247        4.3802751688
S             6.6178846610        9.0489020134        1.1441925868
Mo            3.4392396243        1.7378470607        2.7759953074
S             4.9797193832        0.8146414580        4.3572170245
S             5.0499494273        0.8487375613        1.2202620116
Mo            4.9797474859        4.5141251940        2.6432842597
S             3.4471675285        3.7315933800        4.3179374543
S             3.4360943881        3.5451961636        1.0648461915
Mo            3.4582943145        7.2139074055        2.6259208825
S             4.9856538714        6.3251471733        1.0384366223
Mo            5.0085870617        9.9035196173        2.7434475890
S             3.4707503340        8.9418113519        4.3246062802
S             3.4082099822        9.0664634932        1.1010715461
Mo            0.2915981734        1.7483281958        2.8396634537
S             1.8579282716        0.8002264230        4.4008199257
S             1.8554890005        0.8544720621        1.2061797987
Mo            1.8621954362        4.5023274599        2.6656368923
S             0.2693705065        3.6526440255        4.3351343702
S             0.2317992853        3.5261447208        1.1705340197
Mo            0.2685008437        7.2222382279        2.6977906557
S             1.9037723058        6.3133256429        4.2308661685
S             1.8573282491        6.3122986555        1.0469586471
Mo            1.8504700190        9.9378942742        2.7692880532
S             0.2976657571        9.0667283398        4.4089707721
S             0.2728990211        9.0470484908        1.1591795091
O             4.1709321452        4.8091404390        5.3076439495



     Writing config-only to output data dir ./MoS2-V-O.save/
     NEW-OLD atomic charge density approx. for the potential

     negative rho (up, down):  2.304E-04 0.000E+00

     total cpu time spent up to now is      123.3 secs

     Self-consistent Calculation

     iteration #  1     ecut=    80.00 Ry     beta= 0.70
     Davidson diagonalization with overlap
     ethr =  1.00E-06,  avg # of iterations = 14.0

     negative rho (up, down):  6.774E-05 0.000E+00

     total cpu time spent up to now is      142.5 secs

     total energy              =   -2246.33021901 Ry
     estimated scf accuracy    <       0.01283515 Ry

     iteration #  2     ecut=    80.00 Ry     beta= 0.70
     Davidson diagonalization with overlap
     ethr =  4.11E-06,  avg # of iterations =  5.0

     negative rho (up, down):  4.554E-05 0.000E+00

     total cpu time spent up to now is      158.6 secs

     total energy              =   -2246.33229022 Ry
     estimated scf accuracy    <       0.00849318 Ry

     iteration #  3     ecut=    80.00 Ry     beta= 0.70
     Davidson diagonalization with overlap
     ethr =  2.72E-06,  avg # of iterations =  2.0

     negative rho (up, down):  1.858E-05 0.000E+00

     total cpu time spent up to now is      173.4 secs

     total energy              =   -2246.33275323 Ry
     estimated scf accuracy    <       0.00090009 Ry

     iteration #  4     ecut=    80.00 Ry     beta= 0.70
     Davidson diagonalization with overlap
     ethr =  2.88E-07,  avg # of iterations =  5.0

     negative rho (up, down):  1.518E-05 0.000E+00

     total cpu time spent up to now is      186.3 secs

     total energy              =   -2246.33285595 Ry
     estimated scf accuracy    <       0.00015384 Ry

     iteration #  5     ecut=    80.00 Ry     beta= 0.70
     Davidson diagonalization with overlap
     ethr =  4.93E-08,  avg # of iterations =  3.0

     negative rho (up, down):  1.314E-05 0.000E+00

     total cpu time spent up to now is      198.2 secs

     total energy              =   -2246.33286407 Ry
     estimated scf accuracy    <       0.00004496 Ry

     iteration #  6     ecut=    80.00 Ry     beta= 0.70
     Davidson diagonalization with overlap
     ethr =  1.44E-08,  avg # of iterations =  4.0

     negative rho (up, down):  1.270E-05 0.000E+00

     total cpu time spent up to now is      210.4 secs

     total energy              =   -2246.33287011 Ry
     estimated scf accuracy    <       0.00002156 Ry

     iteration #  7     ecut=    80.00 Ry     beta= 0.70
     Davidson diagonalization with overlap
     ethr =  6.91E-09,  avg # of iterations =  2.0

     negative rho (up, down):  1.363E-05 0.000E+00

     total cpu time spent up to now is      220.9 secs

     total energy              =   -2246.33287278 Ry
     estimated scf accuracy    <       0.00000556 Ry

     iteration #  8     ecut=    80.00 Ry     beta= 0.70
     Davidson diagonalization with overlap
     ethr =  1.78E-09,  avg # of iterations =  5.0

     negative rho (up, down):  1.773E-05 0.000E+00

     total cpu time spent up to now is      232.4 secs

     total energy              =   -2246.33287558 Ry
     estimated scf accuracy    <       0.00000156 Ry

     iteration #  9     ecut=    80.00 Ry     beta= 0.70
     Davidson diagonalization with overlap
     ethr =  4.99E-10,  avg # of iterations =  2.0

     negative rho (up, down):  1.892E-04 0.000E+00

     total cpu time spent up to now is      236.5 secs

     End of self-consistent calculation

          k = 0.0000 0.0000 0.0000 (105382 PWs)   bands (ev):

   -63.0964 -62.9914 -62.9664 -62.9604 -62.9565 -62.9432 -62.9360 -62.9122
   -62.8864 -62.8441 -62.8294 -62.7469 -37.3750 -37.3176 -37.2930 -37.2714
   -37.2492 -37.2315 -37.2090 -37.1975 -37.1805 -37.1749 -37.1607 -37.1570
   -37.1559 -37.1410 -37.1375 -37.1240 -37.1147 -37.1126 -37.1039 -37.0913
   -37.0736 -37.0634 -37.0390 -37.0216 -37.0170 -37.0055 -36.9994 -36.9774
   -36.9679 -36.9555 -36.9395 -36.9310 -36.9180 -36.8970 -36.8397 -36.7209
   -21.2093 -16.0351 -15.2317 -15.2139 -15.0367 -14.9907 -14.8625 -14.5612
   -14.5335 -14.5144 -14.4881 -14.4583 -14.4312 -14.4023 -14.3192 -14.2193
   -14.1995 -14.1916 -14.1391 -14.0156 -13.9563 -13.9440 -13.9138 -13.8453
    -7.8384  -7.7406  -7.6145  -7.5527  -7.3825  -7.3627  -7.3059  -7.2808
    -7.1811  -7.0300  -6.9836  -6.8649  -6.8301  -6.7086  -6.6274  -6.6005
    -6.5757  -6.4969  -6.4083  -6.3367  -6.2047  -6.0985  -5.9824  -5.9731
    -5.8613  -5.8478  -5.8266  -5.7971  -5.7394  -5.7322  -5.6800  -5.6531
    -5.5766  -5.5166  -5.4622  -5.2895  -5.2715  -5.2263  -5.1729  -5.0995
    -5.0619  -5.0311  -4.9644  -4.8116  -4.7359  -4.6479  -4.4735  -4.3967
    -4.3306  -4.3246  -4.2679  -4.1438  -4.0907  -4.0233  -3.9555  -3.8644
    -3.8162  -3.7786  -3.7255  -3.6539  -3.6267  -3.5945  -3.5581  -3.5409
    -3.4759  -3.4725  -3.3883  -3.2924  -3.1274  -3.0636  -2.9737  -2.9021
    -2.8685  -2.8216  -2.8134  -2.7683  -2.7534  -2.7140  -2.6143  -2.4831
    -2.3407  -2.1137  -2.0213  -1.6752  -1.1025  -0.8088  -0.6656  -0.2652
    -0.2276  -0.1429  -0.1165  -0.0053   0.0264   0.0769   0.1588   0.1691
     0.1831   0.2736   0.3370   0.4166   0.4552   0.4868   0.5039   0.5207
     0.5907   0.6408   0.6542   0.6915   0.7193   0.7604   0.8299   0.8688
     0.8960   0.9661   1.1949

     the Fermi energy is    -1.3889 ev

!    total energy              =   -2246.33287741 Ry
     estimated scf accuracy    <       0.00000051 Ry
     smearing contrib. (-TS)   =      -0.00013468 Ry
     internal energy E=F+TS    =   -2246.33274272 Ry

     The total energy is F=E-TS. E is the sum of the following terms:
     one-electron contribution =  -18444.43717672 Ry
     hartree contribution      =    9210.16531947 Ry
     xc contribution           =    -391.96448579 Ry
     ewald contribution        =    7389.76912216 Ry
     one-center paw contrib.   =      -9.86552184 Ry

     convergence has been achieved in   9 iterations

     negative rho (up, down):  1.892E-04 0.000E+00

     Forces acting on atoms (cartesian axes, Ry/au):

     atom    1 type  1   force =    -0.00189391   -0.01559271   -0.00295225
     atom    2 type  2   force =    -0.00925263    0.01126527   -0.00165426
     atom    3 type  2   force =    -0.00986113    0.00775302   -0.00833278
     atom    4 type  1   force =     0.00826959    0.00204455   -0.00287667
     atom    5 type  2   force =     0.01113228   -0.01424958   -0.01349001
     atom    6 type  2   force =    -0.00234355    0.01220519    0.00348144
     atom    7 type  1   force =     0.00142986   -0.00391991   -0.00471598
     atom    8 type  2   force =     0.00040216   -0.00269468    0.01085789
     atom    9 type  2   force =     0.01232809    0.00321807    0.00632732
     atom   10 type  1   force =    -0.00425794    0.00757662   -0.00973918
     atom   11 type  2   force =     0.00286098   -0.00347440   -0.00832071
     atom   12 type  2   force =    -0.00256264    0.00132175    0.00214565
     atom   13 type  1   force =     0.01825202    0.00099320    0.00827055
     atom   14 type  2   force =     0.00907377   -0.00518727    0.01184320
     atom   15 type  2   force =    -0.01059204    0.00137622   -0.01147812
     atom   16 type  1   force =     0.00343069    0.00080716    0.00207880
     atom   17 type  2   force =     0.01602243    0.06315460    0.02703286
     atom   18 type  2   force =    -0.00154562   -0.00451684    0.01573797
     atom   19 type  1   force =     0.00535556   -0.00199324   -0.00307665
     atom   20 type  2   force =     0.00343602   -0.00501349   -0.00078739
     atom   21 type  1   force =    -0.00363111    0.00334870    0.00257989
     atom   22 type  2   force =     0.00020534   -0.00412632   -0.00245264
     atom   23 type  2   force =    -0.00011942    0.00181483    0.00432113
     atom   24 type  1   force =    -0.00293104    0.00009493   -0.00777915
     atom   25 type  2   force =     0.01160433    0.01154535   -0.00172057
     atom   26 type  2   force =    -0.00447218    0.00016556   -0.00371895
     atom   27 type  1   force =     0.00279294    0.00722494    0.01140005
     atom   28 type  2   force =    -0.00279866   -0.00325426   -0.00539031
     atom   29 type  2   force =     0.00286121    0.00017993   -0.00333090
     atom   30 type  1   force =    -0.00183802    0.00213495    0.00257436
     atom   31 type  2   force =     0.00081126    0.00560351    0.00989232
     atom   32 type  2   force =    -0.00722048    0.00341055    0.00301586
     atom   33 type  1   force =     0.00471592   -0.00240702    0.00114796
     atom   34 type  2   force =    -0.00009040   -0.03183361   -0.01434608
     atom   35 type  2   force =    -0.00521849    0.00758697    0.00881773
     atom   36 type  3   force =    -0.04435520   -0.05656254   -0.02536241
     The non-local contrib.  to forces
     atom    1 type  1   force =     0.00608518    0.02932593   -0.01570797
     atom    2 type  2   force =    -0.00537236    0.00419210   -0.26976368
     atom    3 type  2   force =    -0.01189858   -0.00104187    0.26513753
     atom    4 type  1   force =     0.00170999    0.01294909    0.01116823
     atom    5 type  2   force =     0.04398682   -0.04116708   -0.25504373
     atom    6 type  2   force =    -0.01150429    0.00974244    0.26858262
     atom    7 type  1   force =    -0.02982708   -0.01042696   -0.00808882
     atom    8 type  2   force =     0.00507023   -0.00552489   -0.26364185
     atom    9 type  2   force =     0.00610244   -0.01077169    0.27575381
     atom   10 type  1   force =     0.00424705   -0.00252361   -0.00082913
     atom   11 type  2   force =     0.00982664    0.00537343   -0.26819295
     atom   12 type  2   force =    -0.01344712   -0.01530824    0.25879052
     atom   13 type  1   force =    -0.00616726    0.00882997   -0.02759149
     atom   14 type  2   force =     0.01233669   -0.01253179   -0.26296519
     atom   15 type  2   force =    -0.01882256   -0.00679564    0.26235035
     atom   16 type  1   force =    -0.02206044    0.03780176   -0.03075741
     atom   17 type  2   force =     0.23032354    0.30063851    0.14892928
     atom   18 type  2   force =     0.00118592   -0.00255199    0.27682427
     atom   19 type  1   force =     0.02187760   -0.00246188   -0.01246437
     atom   20 type  2   force =    -0.00322612   -0.02321153    0.26270304
     atom   21 type  1   force =     0.00719157    0.01523404    0.00392574
     atom   22 type  2   force =    -0.00736454    0.00225898   -0.26400950
     atom   23 type  2   force =     0.00591014   -0.01696251    0.26589701
     atom   24 type  1   force =    -0.00219259    0.00490436   -0.01015983
     atom   25 type  2   force =     0.00335523    0.00528223   -0.26374243
     atom   26 type  2   force =     0.00618998   -0.01304145    0.26689338
     atom   27 type  1   force =     0.00164303   -0.00182449    0.01728470
     atom   28 type  2   force =    -0.00169723   -0.01882314   -0.27384438
     atom   29 type  2   force =     0.00605383    0.00038715    0.26095736
     atom   30 type  1   force =    -0.00059550    0.01702142    0.00951444
     atom   31 type  2   force =    -0.01187938    0.00480738   -0.26432443
     atom   32 type  2   force =    -0.00303718   -0.01676964    0.27475502
     atom   33 type  1   force =    -0.00667479   -0.00067795    0.00376219
     atom   34 type  2   force =    -0.00170253   -0.02785854   -0.28054578
     atom   35 type  2   force =    -0.00022871   -0.00781593    0.26505876
     atom   36 type  3   force =    -0.86649883   -1.25242252   -1.20814830
     The ionic contribution  to forces
     atom    1 type  1   force =     1.00833746   -0.50800083    4.11719695
     atom    2 type  2   force =    -0.32645110    0.00048284   39.17261798
     atom    3 type  2   force =    -0.06622053   -0.03892836  -36.69656055
     atom    4 type  1   force =     0.71118801    0.40920846   -1.11775305
     atom    5 type  2   force =     1.08606497    0.44444798   37.61260918
     atom    6 type  2   force =     0.50728321   -0.69175893  -38.78643351
     atom    7 type  1   force =    -1.51103968   -1.60010446    0.35976368
     atom    8 type  2   force =    -0.57324272    0.43715943   37.08646696
     atom    9 type  2   force =     0.41542897    0.03708654  -38.63204282
     atom   10 type  1   force =    -0.65745621   -0.19944252    4.42358079
     atom   11 type  2   force =    -0.21344290   -1.17404205   38.87245177
     atom   12 type  2   force =     0.46191503    0.79073647  -38.40492830
     atom   13 type  1   force =    -0.43160679   -0.15098211    1.07216865
     atom   14 type  2   force =     0.17348645   -0.72451109   38.36383436
     atom   15 type  2   force =     0.24200576   -0.21553113  -37.58966171
     atom   16 type  1   force =     1.54945909    3.12304550   -5.13040886
     atom   17 type  2   force =    -2.60830876   -3.76818984   33.55566002
     atom   18 type  2   force =    -0.30750929   -0.86824202  -39.45880027
     atom   19 type  1   force =     2.03501037   -0.48356365   -2.40632075
     atom   20 type  2   force =     0.31796202   -0.05709299  -39.55012060
     atom   21 type  1   force =     0.22727021    0.21932063    0.13077741
     atom   22 type  2   force =     0.28456450   -1.03376140   38.14158009
     atom   23 type  2   force =    -0.13831149    0.79574879  -38.89580625
     atom   24 type  1   force =    -0.44860942    0.38726376    4.43752024
     atom   25 type  2   force =     0.25142130   -0.14097591   38.93518248
     atom   26 type  2   force =    -0.33932169   -0.00072452  -37.81455448
     atom   27 type  1   force =    -1.84094099   -0.34849529   -5.12443136
     atom   28 type  2   force =    -0.39160330    0.56581245   37.78434470
     atom   29 type  2   force =    -0.25939271   -0.51077063  -37.93844804
     atom   30 type  1   force =    -0.70831867   -0.32338729   -1.44383481
     atom   31 type  2   force =    -0.41778842    1.17571946   36.44108827
     atom   32 type  2   force =    -0.65738118    0.12221567  -39.45185811
     atom   33 type  1   force =     0.24707647   -0.40846497    1.15594583
     atom   34 type  2   force =     0.04464130   -0.97732833   39.08564583
     atom   35 type  2   force =    -0.27442163    0.59735998  -38.24093969
     atom   36 type  3   force =     2.60825236    5.11869038   45.93446797
     The local contribution  to forces
     atom    1 type  1   force =    -1.01632461    0.46343630   -4.10458281
     atom    2 type  2   force =     0.32244109    0.00702072  -38.92556883
     atom    3 type  2   force =     0.06769310    0.04784630   36.44392315
     atom    4 type  1   force =    -0.70471984   -0.42016536    1.10369544
     atom    5 type  2   force =    -1.11640540   -0.42000356  -37.39224817
     atom    6 type  2   force =    -0.49890342    0.69529844   38.54248063
     atom    7 type  1   force =     1.54227378    1.60638208   -0.35635972
     atom    8 type  2   force =     0.56885817   -0.43504634  -36.83303361
     atom    9 type  2   force =    -0.40904201   -0.02379977   38.38372892
     atom   10 type  1   force =     0.64898813    0.20951085   -4.43263591
     atom   11 type  2   force =     0.20688491    1.16578254  -38.63382350
     atom   12 type  2   force =    -0.45215975   -0.77532281   38.16904219
     atom   13 type  1   force =     0.45610213    0.14331937   -1.03654107
     atom   14 type  2   force =    -0.17619548    0.73193155  -38.11005596
     atom   15 type  2   force =    -0.23489158    0.22345658   37.33659113
     atom   16 type  1   force =    -1.52393049   -3.16007463    5.16342004
     atom   17 type  2   force =     2.40750509    3.54856731  -33.67542450
     atom   18 type  2   force =     0.30503368    0.86679691   39.21900702
     atom   19 type  1   force =    -2.05165125    0.48371518    2.41591408
     atom   20 type  2   force =    -0.31159032    0.07436768   39.30784949
     atom   21 type  1   force =    -0.23810618   -0.23119710   -0.13227871
     atom   22 type  2   force =    -0.27722216    1.02781894  -37.90112412
     atom   23 type  2   force =     0.13276941   -0.77827249   38.65515631
     atom   24 type  1   force =     0.44784138   -0.39185364   -4.43532467
     atom   25 type  2   force =    -0.24321994    0.14784518  -38.69418158
     atom   26 type  2   force =     0.32924156    0.01334218   37.56495611
     atom   27 type  1   force =     1.84216305    0.35776017    5.11868545
     atom   28 type  2   force =     0.39043750   -0.55171370  -37.53713931
     atom   29 type  2   force =     0.25665871    0.51099585   37.69476022
     atom   30 type  1   force =     0.70721311    0.30827417    1.43702098
     atom   31 type  2   force =     0.42963172   -1.17496342  -36.18833391
     atom   32 type  2   force =     0.65332848   -0.10304739   39.20136788
     atom   33 type  1   force =    -0.23569968    0.40666133   -1.15866168
     atom   34 type  2   force =    -0.04332130    0.97243344  -38.84112537
     atom   35 type  2   force =     0.26959551   -0.58278085   38.00566996
     atom   36 type  3   force =    -1.79577791   -3.93643824  -44.76521577
     The core correction contribution to forces
     atom    1 type  1   force =     0.00000000    0.00000000    0.00000000
     atom    2 type  2   force =     0.00012525   -0.00034184    0.02078266
     atom    3 type  2   force =     0.00055588   -0.00002784   -0.02077050
     atom    4 type  1   force =     0.00000000    0.00000000    0.00000000
     atom    5 type  2   force =    -0.00260009    0.00254632    0.02091490
     atom    6 type  2   force =     0.00077498   -0.00107027   -0.02102941
     atom    7 type  1   force =     0.00000000    0.00000000    0.00000000
     atom    8 type  2   force =    -0.00024635    0.00064521    0.02082370
     atom    9 type  2   force =    -0.00013902    0.00063382   -0.02098523
     atom   10 type  1   force =     0.00000000    0.00000000    0.00000000
     atom   11 type  2   force =    -0.00040938   -0.00065028    0.02100946
     atom   12 type  2   force =     0.00113216    0.00122112   -0.02070436
     atom   13 type  1   force =     0.00000000    0.00000000    0.00000000
     atom   14 type  2   force =    -0.00052747    0.00003281    0.02076902
     atom   15 type  2   force =     0.00112541    0.00033029   -0.02072226
     atom   16 type  1   force =     0.00000000    0.00000000    0.00000000
     atom   17 type  2   force =    -0.01336617   -0.01755126   -0.00225660
     atom   18 type  2   force =    -0.00022838   -0.00050314   -0.02120670
     atom   19 type  1   force =     0.00000000    0.00000000    0.00000000
     atom   20 type  2   force =     0.00028653    0.00083620   -0.02107886
     atom   21 type  1   force =     0.00000000    0.00000000    0.00000000
     atom   22 type  2   force =     0.00020277   -0.00056180    0.02087004
     atom   23 type  2   force =    -0.00048155    0.00130619   -0.02085976
     atom   24 type  1   force =     0.00000000    0.00000000    0.00000000
     atom   25 type  2   force =     0.00003160   -0.00054410    0.02079080
     atom   26 type  2   force =    -0.00058506    0.00066484   -0.02099287
     atom   27 type  1   force =     0.00000000    0.00000000    0.00000000
     atom   28 type  2   force =     0.00008282    0.00155046    0.02096701
     atom   29 type  2   force =    -0.00047177   -0.00041936   -0.02048660
     atom   30 type  1   force =     0.00000000    0.00000000    0.00000000
     atom   31 type  2   force =     0.00090735   -0.00004146    0.02124549
     atom   32 type  2   force =    -0.00013967    0.00095833   -0.02107020
     atom   33 type  1   force =     0.00000000    0.00000000    0.00000000
     atom   34 type  2   force =     0.00032097    0.00081407    0.02143911
     atom   35 type  2   force =    -0.00016271    0.00079124   -0.02089301
     atom   36 type  3   force =     0.00973387    0.01385517    0.01320916
     The Hubbard contrib.    to forces
     atom    1 type  1   force =     0.00000000    0.00000000    0.00000000
     atom    2 type  2   force =     0.00000000    0.00000000    0.00000000
     atom    3 type  2   force =     0.00000000    0.00000000    0.00000000
     atom    4 type  1   force =     0.00000000    0.00000000    0.00000000
     atom    5 type  2   force =     0.00000000    0.00000000    0.00000000
     atom    6 type  2   force =     0.00000000    0.00000000    0.00000000
     atom    7 type  1   force =     0.00000000    0.00000000    0.00000000
     atom    8 type  2   force =     0.00000000    0.00000000    0.00000000
     atom    9 type  2   force =     0.00000000    0.00000000    0.00000000
     atom   10 type  1   force =     0.00000000    0.00000000    0.00000000
     atom   11 type  2   force =     0.00000000    0.00000000    0.00000000
     atom   12 type  2   force =     0.00000000    0.00000000    0.00000000
     atom   13 type  1   force =     0.00000000    0.00000000    0.00000000
     atom   14 type  2   force =     0.00000000    0.00000000    0.00000000
     atom   15 type  2   force =     0.00000000    0.00000000    0.00000000
     atom   16 type  1   force =     0.00000000    0.00000000    0.00000000
     atom   17 type  2   force =     0.00000000    0.00000000    0.00000000
     atom   18 type  2   force =     0.00000000    0.00000000    0.00000000
     atom   19 type  1   force =     0.00000000    0.00000000    0.00000000
     atom   20 type  2   force =     0.00000000    0.00000000    0.00000000
     atom   21 type  1   force =     0.00000000    0.00000000    0.00000000
     atom   22 type  2   force =     0.00000000    0.00000000    0.00000000
     atom   23 type  2   force =     0.00000000    0.00000000    0.00000000
     atom   24 type  1   force =     0.00000000    0.00000000    0.00000000
     atom   25 type  2   force =     0.00000000    0.00000000    0.00000000
     atom   26 type  2   force =     0.00000000    0.00000000    0.00000000
     atom   27 type  1   force =     0.00000000    0.00000000    0.00000000
     atom   28 type  2   force =     0.00000000    0.00000000    0.00000000
     atom   29 type  2   force =     0.00000000    0.00000000    0.00000000
     atom   30 type  1   force =     0.00000000    0.00000000    0.00000000
     atom   31 type  2   force =     0.00000000    0.00000000    0.00000000
     atom   32 type  2   force =     0.00000000    0.00000000    0.00000000
     atom   33 type  1   force =     0.00000000    0.00000000    0.00000000
     atom   34 type  2   force =     0.00000000    0.00000000    0.00000000
     atom   35 type  2   force =     0.00000000    0.00000000    0.00000000
     atom   36 type  3   force =     0.00000000    0.00000000    0.00000000
     The SCF correction term to forces
     atom    1 type  1   force =     0.00001065   -0.00035108    0.00014405
     atom    2 type  2   force =     0.00000708   -0.00008552    0.00028009
     atom    3 type  2   force =     0.00001158   -0.00009218   -0.00005993
     atom    4 type  1   force =     0.00009402    0.00005540    0.00001518
     atom    5 type  2   force =     0.00008857   -0.00007020    0.00028027
     atom    6 type  2   force =     0.00000855   -0.00000344   -0.00011642
     atom    7 type  1   force =     0.00002541    0.00023248   -0.00002865
     atom    8 type  2   force =    -0.00003458    0.00007494    0.00024516
     atom    9 type  2   force =    -0.00001972    0.00007220   -0.00012489
     atom   10 type  1   force =    -0.00003431    0.00003495    0.00014755
     atom   11 type  2   force =     0.00000429    0.00006500    0.00023698
     atom   12 type  2   force =    -0.00000037   -0.00000175   -0.00005192
     atom   13 type  1   force =    -0.00007347   -0.00017099    0.00023694
     atom   14 type  2   force =    -0.00002383   -0.00010571    0.00026344
     atom   15 type  2   force =    -0.00000648   -0.00008085   -0.00003315
     atom   16 type  1   force =    -0.00003487    0.00003756   -0.00017249
     atom   17 type  2   force =    -0.00012868   -0.00030708    0.00012713
     atom   18 type  2   force =    -0.00002496   -0.00001358   -0.00008388
     atom   19 type  1   force =     0.00012143    0.00032014   -0.00020313
     atom   20 type  2   force =     0.00000649    0.00009018   -0.00013798
     atom   21 type  1   force =     0.00001588   -0.00000584    0.00015792
     atom   22 type  2   force =     0.00002737    0.00012200    0.00023332
     atom   23 type  2   force =    -0.00000335   -0.00000211   -0.00006371
     atom   24 type  1   force =     0.00003218   -0.00021651    0.00018758
     atom   25 type  2   force =     0.00001873   -0.00005902    0.00023264
     atom   26 type  2   force =     0.00000562   -0.00007245   -0.00001862
     atom   27 type  1   force =    -0.00006957   -0.00021241   -0.00013628
     atom   28 type  2   force =    -0.00001585   -0.00007729    0.00028415
     atom   29 type  2   force =     0.00001575   -0.00001005   -0.00011136
     atom   30 type  1   force =    -0.00013437    0.00022969   -0.00012377
     atom   31 type  2   force =    -0.00005742    0.00008460    0.00021937
     atom   32 type  2   force =     0.00001164    0.00005661   -0.00017626
     atom   33 type  1   force =     0.00001651    0.00007760    0.00010410
     atom   34 type  2   force =    -0.00002625    0.00010879    0.00024260
     atom   35 type  2   force =     0.00000164    0.00003557   -0.00007581
     atom   36 type  3   force =    -0.00006210   -0.00024430    0.00032700

     Total force =     0.128374     Total SCF correction =     0.001408
     Energy error            =      3.9E-02 Ry
     Gradient error          =      6.3E-02 Ry/Bohr

     number of scf cycles    =   2
     number of bfgs steps    =   1

     energy             old  =   -2246.2939760945 Ry
     energy             new  =   -2246.3328774073 Ry

     CASE: energy            _new < energy            _old

     new trust radius        =       0.1532341206 bohr
     new conv_thr            =       0.0000000632 Ry


ATOMIC_POSITIONS (angstrom)
Mo            6.5769293077        1.7560173169        2.8222275149
S             8.1590201029        0.8311038816        4.4336196532
S             8.1771542457        0.8237299994        1.2686510372
Mo            8.1100872025        4.4978006907        2.7128169212
S             6.5155693643        3.7005726555        4.3237781414
S             6.5501128062        3.5332096784        1.1242200247
Mo            6.4898630703        7.2134682010        2.6580401069
S             8.0831422226        6.3391685946        4.2636735796
S             8.1009459935        6.3098992466        1.0962568842
Mo            8.1498545914        9.9159116453        2.8164499702
S             6.5000905858        8.9370172874        4.3720647730
S             6.6154731237        9.0501687798        1.1468244447
Mo            3.4588956793        1.7374596799        2.7836800954
S             4.9888852556        0.8094454799        4.3692875754
S             5.0388780900        0.8503860958        1.2085753431
Mo            4.9829624408        4.5150190144        2.6467385137
S             3.4649860554        3.7994851998        4.3488143889
S             3.4343810248        3.5405226429        1.0805406828
Mo            3.4639567952        7.2116888509        2.6223480792
S             4.9892254003        6.3201886153        1.0378696688
Mo            5.0046506536        9.9069368920        2.7458729946
S             3.4709127677        8.9376621077        4.3221643382
S             3.4080662949        9.0683781928        1.1058468486
Mo            0.2882000476        1.7485356983        2.8309546260
S             1.8698880876        0.8121405574        4.3995847559
S             1.8505275336        0.8546339545        1.2022270187
Mo            1.8650315479        4.5100650141        2.6771118523
S             0.2663351794        3.6493391318        4.3297263370
S             0.2345639120        3.5261535317        1.1671965018
Mo            0.2663939118        7.2250492225        2.6996387642
S             1.9047549262        6.3186552067        4.2413593509
S             1.8498482961        6.3157790195        1.0501333356
Mo            1.8557775724        9.9353127346        2.7698347410
S             0.2978347368        9.0335159373        4.3948121815
S             0.2674461415        9.0546712248        1.1687168981
O             4.1247064894        4.7491433175        5.2786819288



     Writing config-only to output data dir ./MoS2-V-O.save/
     NEW-OLD atomic charge density approx. for the potential

     negative rho (up, down):  2.208E-04 0.000E+00

     total cpu time spent up to now is      244.6 secs

     Self-consistent Calculation

     iteration #  1     ecut=    80.00 Ry     beta= 0.70
     Davidson diagonalization with overlap
     ethr =  1.00E-06,  avg # of iterations = 18.0

     negative rho (up, down):  6.319E-05 0.000E+00

     total cpu time spent up to now is      263.1 secs

     total energy              =   -2246.33848871 Ry
     estimated scf accuracy    <       0.02115856 Ry

     iteration #  2     ecut=    80.00 Ry     beta= 0.70
     Davidson diagonalization with overlap
     ethr =  6.78E-06,  avg # of iterations =  4.0

     negative rho (up, down):  4.168E-05 0.000E+00

     total cpu time spent up to now is      276.5 secs

     total energy              =   -2246.34220737 Ry
     estimated scf accuracy    <       0.00882678 Ry

     iteration #  3     ecut=    80.00 Ry     beta= 0.70
     Davidson diagonalization with overlap
     ethr =  2.83E-06,  avg # of iterations =  2.0

     negative rho (up, down):  2.178E-05 0.000E+00

     total cpu time spent up to now is      290.9 secs

     total energy              =   -2246.34257510 Ry
     estimated scf accuracy    <       0.00121673 Ry

     iteration #  4     ecut=    80.00 Ry     beta= 0.70
     Davidson diagonalization with overlap
     ethr =  3.90E-07,  avg # of iterations =  4.0

     negative rho (up, down):  1.922E-05 0.000E+00

     total cpu time spent up to now is      304.6 secs

     total energy              =   -2246.34272226 Ry
     estimated scf accuracy    <       0.00018423 Ry

     iteration #  5     ecut=    80.00 Ry     beta= 0.70
     Davidson diagonalization with overlap
     ethr =  5.90E-08,  avg # of iterations =  2.0

     negative rho (up, down):  1.692E-05 0.000E+00

     total cpu time spent up to now is      316.2 secs

     total energy              =   -2246.34272935 Ry
     estimated scf accuracy    <       0.00006641 Ry

     iteration #  6     ecut=    80.00 Ry     beta= 0.70
     Davidson diagonalization with overlap
     ethr =  2.13E-08,  avg # of iterations =  4.0

     negative rho (up, down):  1.503E-05 0.000E+00

     total cpu time spent up to now is      328.5 secs

     total energy              =   -2246.34273709 Ry
     estimated scf accuracy    <       0.00003308 Ry

     iteration #  7     ecut=    80.00 Ry     beta= 0.70
     Davidson diagonalization with overlap
     ethr =  1.06E-08,  avg # of iterations =  2.0

     negative rho (up, down):  1.337E-05 0.000E+00

     total cpu time spent up to now is      340.1 secs

     total energy              =   -2246.34274095 Ry
     estimated scf accuracy    <       0.00000735 Ry

     iteration #  8     ecut=    80.00 Ry     beta= 0.70
     Davidson diagonalization with overlap
     ethr =  2.35E-09,  avg # of iterations =  5.0

     negative rho (up, down):  1.485E-05 0.000E+00

     total cpu time spent up to now is      351.0 secs

     total energy              =   -2246.34274505 Ry
     estimated scf accuracy    <       0.00000275 Ry

     iteration #  9     ecut=    80.00 Ry     beta= 0.70
     Davidson diagonalization with overlap
     ethr =  8.82E-10,  avg # of iterations =  2.0

     negative rho (up, down):  3.214E-05 0.000E+00

     total cpu time spent up to now is      362.0 secs

     total energy              =   -2246.34274719 Ry
     estimated scf accuracy    <       0.00000086 Ry

     iteration # 10     ecut=    80.00 Ry     beta= 0.70
     Davidson diagonalization with overlap
     ethr =  2.77E-10,  avg # of iterations =  4.0

     negative rho (up, down):  6.988E-05 0.000E+00

     total cpu time spent up to now is      374.2 secs

     total energy              =   -2246.34274801 Ry
     estimated scf accuracy    <       0.00000027 Ry

     iteration # 11     ecut=    80.00 Ry     beta= 0.70
     Davidson diagonalization with overlap
     ethr =  8.58E-11,  avg # of iterations =  2.0

     negative rho (up, down):  1.365E-04 0.000E+00

     total cpu time spent up to now is      384.2 secs

     total energy              =   -2246.34274826 Ry
     estimated scf accuracy    <       0.00000010 Ry

     iteration # 12     ecut=    80.00 Ry     beta= 0.70
     Davidson diagonalization with overlap
     ethr =  3.05E-11,  avg # of iterations =  2.0

     negative rho (up, down):  1.982E-04 0.000E+00

     total cpu time spent up to now is      388.4 secs

     End of self-consistent calculation

          k = 0.0000 0.0000 0.0000 (105382 PWs)   bands (ev):

   -63.0579 -62.9602 -62.9339 -62.9278 -62.9176 -62.9000 -62.8839 -62.8562
   -62.8545 -62.8165 -62.7976 -62.7310 -37.3275 -37.2740 -37.2530 -37.2279
   -37.2129 -37.1989 -37.1793 -37.1581 -37.1446 -37.1381 -37.1260 -37.1235
   -37.1113 -37.1046 -37.0954 -37.0860 -37.0809 -37.0735 -37.0666 -37.0639
   -37.0398 -37.0287 -37.0031 -36.9872 -36.9785 -36.9732 -36.9620 -36.9434
   -36.9352 -36.9237 -36.9094 -36.9023 -36.8852 -36.8779 -36.7955 -36.6984
   -23.0299 -16.0033 -15.2086 -15.1845 -14.9965 -14.9540 -14.8345 -14.5393
   -14.4993 -14.4839 -14.4679 -14.4231 -14.3946 -14.3723 -14.2912 -14.1871
   -14.1701 -14.1619 -14.1149 -13.9382 -13.9140 -13.9004 -13.8765 -13.6226
    -8.0648  -7.9927  -7.7463  -7.5980  -7.4446  -7.3355  -7.2771  -7.2524
    -7.2387  -7.0693  -7.0412  -6.8542  -6.8244  -6.6865  -6.6740  -6.6115
    -6.5533  -6.4829  -6.4026  -6.3226  -6.2147  -6.1087  -5.9533  -5.9427
    -5.8367  -5.8239  -5.8011  -5.7706  -5.7161  -5.7025  -5.6592  -5.6440
    -5.5684  -5.5000  -5.4474  -5.3114  -5.2494  -5.1957  -5.1557  -5.0781
    -5.0374  -5.0143  -4.9444  -4.8169  -4.7108  -4.6809  -4.4741  -4.3852
    -4.3661  -4.2926  -4.2789  -4.1311  -4.0667  -4.0392  -3.9388  -3.8580
    -3.7757  -3.7528  -3.7040  -3.6374  -3.6133  -3.5576  -3.5303  -3.4942
    -3.4666  -3.4405  -3.3809  -3.2736  -3.1160  -3.0677  -2.9858  -2.8575
    -2.8423  -2.7904  -2.7780  -2.7468  -2.7296  -2.6898  -2.6159  -2.4394
    -2.3121  -2.0815  -2.0016  -1.6979  -0.9952  -0.7805  -0.6288  -0.2209
    -0.1931  -0.0994  -0.0877   0.0469   0.0641   0.1019   0.2010   0.2096
     0.2329   0.3158   0.3605   0.4474   0.4993   0.5294   0.5381   0.5594
     0.6101   0.6579   0.6915   0.7325   0.7574   0.7933   0.8729   0.9074
     0.9346   0.9981   1.2672

     the Fermi energy is    -1.3466 ev

!    total energy              =   -2246.34274827 Ry
     estimated scf accuracy    <       0.00000002 Ry
     smearing contrib. (-TS)   =      -0.00001432 Ry
     internal energy E=F+TS    =   -2246.34273395 Ry

     The total energy is F=E-TS. E is the sum of the following terms:
     one-electron contribution =  -18453.78869537 Ry
     hartree contribution      =    9214.97758856 Ry
     xc contribution           =    -392.12536074 Ry
     ewald contribution        =    7394.45034981 Ry
     one-center paw contrib.   =      -9.85661620 Ry

     convergence has been achieved in  12 iterations

     negative rho (up, down):  1.982E-04 0.000E+00

     Forces acting on atoms (cartesian axes, Ry/au):

     atom    1 type  1   force =    -0.00603332   -0.00233530   -0.00802621
     atom    2 type  2   force =    -0.00325297    0.00427971   -0.00295209
     atom    3 type  2   force =    -0.00640379    0.00556087   -0.01026442
     atom    4 type  1   force =     0.00366241    0.00182021   -0.00273383
     atom    5 type  2   force =     0.00922726   -0.01133441   -0.00703309
     atom    6 type  2   force =    -0.00056480    0.00528964    0.00348031
     atom    7 type  1   force =     0.00500692   -0.00541944    0.00120135
     atom    8 type  2   force =    -0.00104770   -0.00303963    0.00508921
     atom    9 type  2   force =     0.00908158    0.00344303    0.00208047
     atom   10 type  1   force =    -0.00011512    0.00421490    0.00203066
     atom   11 type  2   force =     0.00223219   -0.00199486   -0.00798506
     atom   12 type  2   force =    -0.00408028    0.00169741   -0.00067891
     atom   13 type  1   force =     0.00284199    0.00907374    0.01059337
     atom   14 type  2   force =     0.00763155   -0.00414105    0.01010004
     atom   15 type  2   force =    -0.00741728   -0.00098014   -0.00722581
     atom   16 type  1   force =     0.00692169    0.00065529   -0.01370672
     atom   17 type  2   force =    -0.05008530   -0.05813656   -0.09135883
     atom   18 type  2   force =    -0.00062318   -0.00223303    0.01490354
     atom   19 type  1   force =     0.00213681   -0.00051577    0.00060132
     atom   20 type  2   force =     0.00212349   -0.00386687   -0.00334911
     atom   21 type  1   force =    -0.00079982    0.00244740    0.00132843
     atom   22 type  2   force =     0.00081028   -0.00348024   -0.00117165
     atom   23 type  2   force =    -0.00019460    0.00078075    0.00089374
     atom   24 type  1   force =    -0.00069728   -0.00118348   -0.00228912
     atom   25 type  2   force =     0.00745236    0.00757805   -0.00423489
     atom   26 type  2   force =     0.00193014    0.00083001    0.00191746
     atom   27 type  1   force =     0.00153066    0.00362478    0.00943531
     atom   28 type  2   force =     0.00010548   -0.00271476   -0.00343806
     atom   29 type  2   force =     0.00491116    0.00173430   -0.00239941
     atom   30 type  1   force =     0.00063620   -0.00399843    0.00513563
     atom   31 type  2   force =    -0.00063301    0.00839143    0.00560020
     atom   32 type  2   force =    -0.00345759    0.00264317    0.00303206
     atom   33 type  1   force =     0.00000908    0.00004328    0.00344401
     atom   34 type  2   force =    -0.00257916   -0.01565980   -0.01193144
     atom   35 type  2   force =    -0.00242916    0.00620952    0.00304887
     atom   36 type  3   force =     0.02216312    0.05071629    0.09686269
     The non-local contrib.  to forces
     atom    1 type  1   force =     0.00451485    0.02456423   -0.01515769
     atom    2 type  2   force =    -0.00045185   -0.00127002   -0.26875148
     atom    3 type  2   force =    -0.00824735   -0.00329446    0.26208211
     atom    4 type  1   force =     0.00414938    0.01379390    0.01096470
     atom    5 type  2   force =     0.04357877   -0.03870654   -0.24908818
     atom    6 type  2   force =    -0.00807088    0.00168613    0.26873219
     atom    7 type  1   force =    -0.03073419   -0.00871905   -0.00975759
     atom    8 type  2   force =     0.00407956   -0.00548722   -0.26728292
     atom    9 type  2   force =     0.00180479   -0.01067433    0.27282069
     atom   10 type  1   force =     0.00297214   -0.00203010   -0.00071510
     atom   11 type  2   force =     0.00859190    0.00523773   -0.26779611
     atom   12 type  2   force =    -0.01387302   -0.01490475    0.25724614
[...]
     atom   28 type  2   force =    -0.00085853   -0.00775972   -0.27877734
     atom   29 type  2   force =    -0.00041612   -0.00695266    0.26521762
     atom   30 type  1   force =    -0.00069221    0.01980755    0.00795011
     atom   31 type  2   force =    -0.00627240   -0.00054966   -0.26970316
     atom   32 type  2   force =     0.00632799   -0.01462891    0.26980999
     atom   33 type  1   force =    -0.00751911    0.00438157   -0.00083539
     atom   34 type  2   force =     0.00205576   -0.00675528   -0.27562238
     atom   35 type  2   force =    -0.00015893   -0.01580903    0.26684602
     atom   36 type  3   force =     0.01059466   -0.04992387   -2.31903915
     The ionic contribution  to forces
     atom    1 type  1   force =     0.49620767    0.02426752    1.80510311
     atom    2 type  2   force =    -0.17806115   -0.23987183   38.67793043
     atom    3 type  2   force =    -0.00135449   -0.18189512  -37.75985065
     atom    4 type  1   force =     0.06174077    0.52266775   -1.12814149
     atom    5 type  2   force =     0.25325041    1.13108766   37.75882538
     atom    6 type  2   force =     0.25539418   -0.51757029  -38.83875985
     atom    7 type  1   force =    -2.37476101   -1.11256275    0.58094655
     atom    8 type  2   force =    -1.11064894    0.46562529   37.82689373
     atom    9 type  2   force =     0.39798012    0.09187563  -38.58628208
     atom   10 type  1   force =    -0.45141097   -0.44127599    2.75644771
     atom   11 type  2   force =    -0.37071801   -1.46832322   38.37020443
     atom   12 type  2   force =     0.20752840    0.41943263  -38.31445088
     atom   13 type  1   force =     0.15613846   -0.47123899   -1.38426424
     atom   14 type  2   force =     0.55551503   -1.00402774   38.15071569
     atom   15 type  2   force =     0.13890661   -0.22375018  -38.15898839
     atom   16 type  1   force =     0.48963571    3.80730764   -2.05605557
     atom   17 type  2   force =     0.89003624    0.96757638   28.00061454
     atom   18 type  2   force =    -0.16138534   -0.42583576  -38.55332945
     atom   19 type  1   force =     2.66883804   -0.97646159    1.00523737
     atom   20 type  2   force =    -0.05865869    0.17414851  -39.59277302
     atom   21 type  1   force =     0.21098168   -0.76765014    0.67088876
     atom   22 type  2   force =     0.45484491   -1.38772974   38.27753092
     atom   23 type  2   force =    -0.19893458    0.38029157  -38.20583453
     atom   24 type  1   force =    -0.59627883   -0.12642136    1.12775050
     atom   25 type  2   force =    -0.41131389   -0.87619520   38.38880582
     atom   26 type  2   force =    -0.16259973   -0.16049843  -38.25097776
     atom   27 type  1   force =    -0.78775882    0.85063753   -4.05950180
     atom   28 type  2   force =    -0.95929784    0.47587470   37.37151832
     atom   29 type  2   force =    -0.05547865   -0.22319445  -38.47377993
     atom   30 type  1   force =    -0.29529840   -0.10603692    0.60779472
     atom   31 type  2   force =     0.61321893    1.21126631   37.45508832
     atom   32 type  2   force =    -0.30145035    0.18938196  -38.76651655
     atom   33 type  1   force =     0.30775046   -0.93780525    2.42404492
     atom   34 type  2   force =    -0.13349035   -0.49381692   38.79437594
     atom   35 type  2   force =    -0.05482581    0.23514232  -37.88924516
     atom   36 type  3   force =     0.50575823    1.19557847   49.96803422
     The local contribution  to forces
     atom    1 type  1   force =    -0.49451268   -0.05036325   -1.79791231
     atom    2 type  2   force =     0.17807916    0.24926726  -38.42957873
     atom    3 type  2   force =     0.00393442    0.19006854   37.51214505
     atom    4 type  1   force =    -0.06302935   -0.53181226    1.11505520
     atom    5 type  2   force =    -0.25255958   -1.11494182  -37.52031484
     atom    6 type  2   force =    -0.25632166    0.51861381   38.59792639
     atom    7 type  1   force =     2.39292295    1.09998818   -0.56196350
     atom    8 type  2   force =     1.10267450   -0.46586661  -37.57699227
     atom    9 type  2   force =    -0.39054477   -0.07563889   38.33750006
     atom   10 type  1   force =     0.44956804    0.43556902   -2.75854896
     atom   11 type  2   force =     0.36550402    1.46785858  -38.13013241
     atom   12 type  2   force =    -0.20032292   -0.40372408   38.07281356
     atom   13 type  1   force =    -0.15485434    0.44390619    1.37814256
     atom   14 type  2   force =    -0.55551807    1.01315967  -37.89930588
     atom   15 type  2   force =    -0.13771757    0.23286879   37.91784510
     atom   16 type  1   force =    -0.48121353   -3.82917424    2.07717275
     atom   17 type  2   force =    -0.87556247   -0.97181526  -28.28907153
     atom   18 type  2   force =     0.16125866    0.42910135   38.29692433
     atom   19 type  1   force =    -2.68033099    0.97636906   -0.98189856
     atom   20 type  2   force =     0.05773949   -0.16151086   39.35208915
     atom   21 type  1   force =    -0.21306183    0.74296754   -0.67423966
     atom   22 type  2   force =    -0.44962311    1.38715324  -38.03723050
     atom   23 type  2   force =     0.18956576   -0.36604949   37.96042851
     atom   24 type  1   force =     0.59320058    0.11086045   -1.12625680
     atom   25 type  2   force =     0.41035374    0.88549126  -38.13925569
     atom   26 type  2   force =     0.15918984    0.16919360   38.00555371
     atom   27 type  1   force =     0.78028583   -0.84873331    4.03583734
     atom   28 type  2   force =     0.96091305   -0.46884282  -37.11391420
     atom   29 type  2   force =     0.05620493    0.23014958   38.22942410
     atom   30 type  1   force =     0.29584831    0.08574992   -0.61489786
     atom   31 type  2   force =    -0.60699836   -1.21220329  -37.20592161
     atom   32 type  2   force =     0.29597786   -0.17525755   38.51667000
     atom   33 type  1   force =    -0.29975601    0.93340768   -2.42365672
     atom   34 type  2   force =     0.13202373    0.50148445  -38.54030345
     atom   35 type  2   force =     0.05485993   -0.22044028   37.64368845
     atom   36 type  3   force =    -0.51623248   -1.14666459  -47.67269737
     The core correction contribution to forces
     atom    1 type  1   force =     0.00000000    0.00000000    0.00000000
     atom    2 type  2   force =    -0.00002608    0.00042714    0.02097283
     atom    3 type  2   force =     0.00014621    0.00031352   -0.02094432
     atom    4 type  1   force =     0.00000000    0.00000000    0.00000000
     atom    5 type  2   force =    -0.00010373    0.00075540    0.02085119
     atom    6 type  2   force =     0.00003426   -0.00058346   -0.02075426
     atom    7 type  1   force =     0.00000000    0.00000000    0.00000000
     atom    8 type  2   force =    -0.00039419    0.00031030    0.02109615
     atom    9 type  2   force =     0.00078740    0.00081435   -0.02099369
     atom   10 type  1   force =     0.00000000    0.00000000    0.00000000
     atom   11 type  2   force =    -0.00011281   -0.00043994    0.02076069
     atom   12 type  2   force =     0.00062600    0.00117580   -0.02080930
     atom   13 type  1   force =     0.00000000    0.00000000    0.00000000
     atom   14 type  2   force =     0.00001146    0.00020161    0.02132620
     atom   15 type  2   force =     0.00019283    0.00045880   -0.02065673
     atom   16 type  1   force =     0.00000000    0.00000000    0.00000000
     atom   17 type  2   force =     0.00088773   -0.00035078   -0.00987226
     atom   18 type  2   force =     0.00000142   -0.00034279   -0.02127526
     atom   19 type  1   force =     0.00000000    0.00000000    0.00000000
     atom   20 type  2   force =    -0.00011500    0.00068155   -0.02118027
     atom   21 type  1   force =     0.00000000    0.00000000    0.00000000
     atom   22 type  2   force =     0.00007140   -0.00029489    0.02071427
     atom   23 type  2   force =    -0.00075316    0.00108410   -0.02088169
     atom   24 type  1   force =     0.00000000    0.00000000    0.00000000
     atom   25 type  2   force =    -0.00005327    0.00051486    0.02124148
     atom   26 type  2   force =    -0.00027515    0.00037690   -0.02089248
     atom   27 type  1   force =     0.00000000    0.00000000    0.00000000
     atom   28 type  2   force =     0.00008111    0.00062528    0.02153615
     atom   29 type  2   force =     0.00000770    0.00006163   -0.02069057
     atom   30 type  1   force =     0.00000000    0.00000000    0.00000000
     atom   31 type  2   force =     0.00036911    0.00026815    0.02121411
     atom   32 type  2   force =    -0.00051680    0.00082381   -0.02101783
     atom   33 type  1   force =     0.00000000    0.00000000    0.00000000
     atom   34 type  2   force =    -0.00011874    0.00017366    0.02134512
     atom   35 type  2   force =    -0.00001722    0.00096247   -0.02096539
     atom   36 type  3   force =    -0.00010211    0.00050833    0.02459300
     The Hubbard contrib.    to forces
     atom    1 type  1   force =     0.00000000    0.00000000    0.00000000
     atom    2 type  2   force =     0.00000000    0.00000000    0.00000000
     atom    3 type  2   force =     0.00000000    0.00000000    0.00000000
     atom    4 type  1   force =     0.00000000    0.00000000    0.00000000
     atom    5 type  2   force =     0.00000000    0.00000000    0.00000000
     atom    6 type  2   force =     0.00000000    0.00000000    0.00000000
     atom    7 type  1   force =     0.00000000    0.00000000    0.00000000
     atom    8 type  2   force =     0.00000000    0.00000000    0.00000000
     atom    9 type  2   force =     0.00000000    0.00000000    0.00000000
     atom   10 type  1   force =     0.00000000    0.00000000    0.00000000
     atom   11 type  2   force =     0.00000000    0.00000000    0.00000000
     atom   12 type  2   force =     0.00000000    0.00000000    0.00000000
     atom   13 type  1   force =     0.00000000    0.00000000    0.00000000
     atom   14 type  2   force =     0.00000000    0.00000000    0.00000000
     atom   15 type  2   force =     0.00000000    0.00000000    0.00000000
     atom   16 type  1   force =     0.00000000    0.00000000    0.00000000
     atom   17 type  2   force =     0.00000000    0.00000000    0.00000000
     atom   18 type  2   force =     0.00000000    0.00000000    0.00000000
     atom   19 type  1   force =     0.00000000    0.00000000    0.00000000
     atom   20 type  2   force =     0.00000000    0.00000000    0.00000000
     atom   21 type  1   force =     0.00000000    0.00000000    0.00000000
     atom   22 type  2   force =     0.00000000    0.00000000    0.00000000
     atom   23 type  2   force =     0.00000000    0.00000000    0.00000000
     atom   24 type  1   force =     0.00000000    0.00000000    0.00000000
     atom   25 type  2   force =     0.00000000    0.00000000    0.00000000
     atom   26 type  2   force =     0.00000000    0.00000000    0.00000000
     atom   27 type  1   force =     0.00000000    0.00000000    0.00000000
     atom   28 type  2   force =     0.00000000    0.00000000    0.00000000
     atom   29 type  2   force =     0.00000000    0.00000000    0.00000000
     atom   30 type  1   force =     0.00000000    0.00000000    0.00000000
     atom   31 type  2   force =     0.00000000    0.00000000    0.00000000
     atom   32 type  2   force =     0.00000000    0.00000000    0.00000000
     atom   33 type  1   force =     0.00000000    0.00000000    0.00000000
     atom   34 type  2   force =     0.00000000    0.00000000    0.00000000
     atom   35 type  2   force =     0.00000000    0.00000000    0.00000000
     atom   36 type  3   force =     0.00000000    0.00000000    0.00000000
     The SCF correction term to forces
     atom    1 type  1   force =    -0.00000227    0.00000741    0.00006262
     atom    2 type  2   force =     0.00000025    0.00000364    0.00003297
     atom    3 type  2   force =     0.00000109    0.00000085    0.00001133
     atom    4 type  1   force =    -0.00000897   -0.00000244    0.00007796
     atom    5 type  2   force =     0.00000069    0.00000572    0.00003111
     atom    6 type  2   force =    -0.00000525    0.00000859    0.00001822
     atom    7 type  1   force =     0.00000163   -0.00001593    0.00005625
     atom    8 type  2   force =    -0.00000328   -0.00001079    0.00003477
     atom    9 type  2   force =    -0.00001098   -0.00000577    0.00001892
     atom   10 type  1   force =    -0.00000149    0.00000819    0.00005673
     atom   11 type  2   force =     0.00000243   -0.00000204    0.00003169
     atom   12 type  2   force =    -0.00000521    0.00000011    0.00001542
     atom   13 type  1   force =    -0.00001384    0.00001366    0.00005682
     atom   14 type  2   force =     0.00000257    0.00000840    0.00003478
     atom   15 type  2   force =     0.00000045    0.00000222    0.00001463
     atom   16 type  1   force =    -0.00001020    0.00001022    0.00004993
     atom   17 type  2   force =     0.00000048    0.00000216    0.00001800
     atom   18 type  2   force =     0.00000078    0.00000465    0.00001832
     atom   19 type  1   force =     0.00001936   -0.00002541    0.00005063
     atom   20 type  2   force =     0.00000401   -0.00000927    0.00001594
     atom   21 type  1   force =     0.00000820   -0.00000249    0.00005194
     atom   22 type  2   force =    -0.00000082    0.00000188    0.00003520
     atom   23 type  2   force =     0.00000087    0.00000600    0.00000938
     atom   24 type  1   force =     0.00000840    0.00001079    0.00005291
     atom   25 type  2   force =    -0.00000170    0.00000284    0.00003097
     atom   26 type  2   force =     0.00000014    0.00000007    0.00001333
     atom   27 type  1   force =     0.00001377   -0.00000878    0.00006915
     atom   28 type  2   force =    -0.00000055    0.00000355    0.00003174
     atom   29 type  2   force =     0.00000355   -0.00000067    0.00001673
     atom   30 type  1   force =    -0.00000367   -0.00001040    0.00007174
     atom   31 type  2   force =    -0.00000042   -0.00000983    0.00003569
     atom   32 type  2   force =     0.00000560   -0.00000989    0.00001102
     atom   33 type  1   force =    -0.00000801    0.00001576    0.00005341
     atom   34 type  2   force =    -0.00000038    0.00000330    0.00003134
     atom   35 type  2   force =     0.00000287    0.00000692    0.00001373
     atom   36 type  3   force =     0.00001114   -0.00001053    0.00005148

     Total force =     0.006201     Total SCF correction =     0.000253
     Energy error            =      8.8E-05 Ry
     Gradient error          =      1.9E-03 Ry/Bohr

     bfgs converged in  28 scf cycles and  27 bfgs steps
     (criteria: energy <  1.0E-04 Ry, force <  1.0E-02 Ry/Bohr)

     End of BFGS Geometry Optimization

     Final energy             =   -2246.4442463778 Ry

     File ./MoS2-V-O.bfgs deleted, as requested
Begin final coordinates

ATOMIC_POSITIONS (angstrom)
Mo            6.5770775688        1.8013948041        2.7730303558
S             8.1522014001        0.8912121379        4.3795192313
S             8.1583854269        0.8767928030        1.1895177000
Mo            8.1351097018        4.5242186415        2.7053935175
S             6.5308671213        3.7278930303        4.3193855466
S             6.5727072267        3.5857187017        1.1052383099
Mo            6.5546275748        7.2164081819        2.6504459675
S             8.1135823926        6.3399241657        4.2904164884
S             8.1770183948        6.3604616802        1.1007644461
Mo            8.1586752242        9.9703217956        2.7809185023
S             6.5471563476        8.9654560256        4.3269621280
S             6.6184692803        9.0762284446        1.1308186182
Mo            3.4420950290        1.7461952382        2.7489373599
S             5.0145046409        0.8497679386        4.3599730726
S             5.0313285425        0.8652975396        1.1705041323
Mo            5.0426101821        4.5994644106        2.6423194521
S             3.4755286332        3.6774343467        4.2083199139
S             3.4581042264        3.5885424003        1.1261450108
Mo            3.5045084500        7.2180701372        2.6663257496
S             5.0252720147        6.3680229735        1.0209282828
Mo            5.0256624988        9.9429450426        2.7418048676
S             3.4943091776        8.9756447671        4.3303593707
S             3.4246479204        9.0743318888        1.1380102719
Mo            0.2868394223        1.7790658994        2.7722268434
S             1.8726267643        0.8799955948        4.3788025435
S             1.8494178313        0.8589943556        1.1712434744
Mo            1.8615715002        4.5458408964        2.6892274161
S             0.2846649626        3.6540726826        4.3081036005
S             0.2719208464        3.5817794777        1.1327314424
Mo            0.2980626570        7.2529185986        2.7304293946
S             1.9354841030        6.3382071112        4.3004017686
S             1.8793902547        6.3793571932        1.0973813451
Mo            1.8665780590        9.9691041390        2.7792527296
S             0.2850045096        9.0495711380        4.3700530307
S             0.2846534081        9.0926616827        1.1779917629
O             3.4646881627        3.7149194348        5.7064562241
End final coordinates



     Writing all to output data dir ./MoS2-V-O.save/
 
     init_run     :      4.60s CPU      5.10s WALL (       1 calls)
     electrons    :   2876.45s CPU   3269.32s WALL (      28 calls)
     update_pot   :     89.52s CPU     95.99s WALL (      27 calls)
     forces       :     83.34s CPU     96.90s WALL (      28 calls)

     Called by init_run:
     wfcinit      :      0.49s CPU      0.54s WALL (       1 calls)
     potinit      :      2.34s CPU      2.59s WALL (       1 calls)
     hinit0       :      0.45s CPU      0.47s WALL (       1 calls)

     Called by electrons:
     c_bands      :    399.27s CPU    409.74s WALL (     275 calls)
     sum_band     :    171.12s CPU    236.02s WALL (     275 calls)
     v_of_rho     :    329.49s CPU    401.86s WALL (     295 calls)
     newd         :    106.13s CPU    160.22s WALL (     295 calls)
     PAW_pot      :     11.74s CPU     11.79s WALL (     322 calls)
     mix_rho      :   1891.42s CPU   2087.12s WALL (     275 calls)

     Called by c_bands:
     init_us_2    :      6.32s CPU      6.82s WALL (     578 calls)
     init_us_2:cp :      6.31s CPU      6.81s WALL (     578 calls)
     regterg      :    378.70s CPU    388.66s WALL (     275 calls)

     Called by *egterg:
     rdiaghg      :     24.59s CPU     24.84s WALL (    1417 calls)
     h_psi        :    244.53s CPU    246.73s WALL (    1453 calls)
     s_psi        :     22.37s CPU     22.45s WALL (    1453 calls)
     g_psi        :      1.56s CPU      1.57s WALL (    1177 calls)

     Called by h_psi:
     h_psi:calbec :     26.08s CPU     26.23s WALL (    1453 calls)
     vloc_psi     :    192.72s CPU    194.63s WALL (    1453 calls)
     add_vuspsi   :     22.46s CPU     22.59s WALL (    1453 calls)

     General routines
     calbec       :     37.96s CPU     38.18s WALL (    1867 calls)
     fft          :    234.40s CPU    263.55s WALL (   19626 calls)
     ffts         :    844.61s CPU   1033.06s WALL (  450769 calls)
     fftw         :    122.71s CPU    123.81s WALL (  165324 calls)
     interpolate  :      3.73s CPU      4.26s WALL (     295 calls)
 
     Parallel routines
 
     PWSCF        :  51m 7.51s CPU  58m 7.43s WALL

 
   This run was terminated on:  17:29:34   1Nov2023            

=------------------------------------------------------------------------------=
   JOB DONE.
=------------------------------------------------------------------------------=
