
     Program PWSCF v.7.2 starts on  1Nov2023 at 23:48:11 

     This program is part of the open-source Quantum ESPRESSO suite
     for quantum simulation of materials; please cite
         "P. Giannozzi et al., J. Phys.:Condens. Matter 21 395502 (2009);
         "P. Giannozzi et al., J. Phys.:Condens. Matter 29 465901 (2017);
         "P. Giannozzi et al., J. Chem. Phys. 152 154105 (2020);
          URL http://www.quantum-espresso.org", 
     in publications or presentations arising from this work. More details at
     http://www.quantum-espresso.org/quote

     Parallel version (MPI & OpenMP), running on      48 processor cores
     Number of MPI processes:                48
     Threads/MPI process:                     1

     MPI processes distributed on     1 nodes
     73662 MiB available memory on the printing compute node when the environment starts
 
     Waiting for input...
     Reading input from standard input
Warning: card &CELL ignored
Warning: card CELL_DYNAMICS = 'BFGS', ignored
Warning: card CELL_DOFREE = '2DXY' ignored
Warning: card / ignored

     Current dimensions of program PWSCF are:
     Max number of different atomic species (ntypx) = 10
     Max number of k-points (npk) =  40000
     Max angular momentum in pseudopotentials (lmaxx) =  4
     file O.pbe-n-kjpaw_psl.0.1.UPF: wavefunction(s)  2P renormalized

     IMPORTANT: XC functional enforced from input :
     Exchange-correlation= RVV10
                           (   1   4  13   4  26   0   0)
     Any further DFT definition will be discarded
     Please, verify this is what you really want


     gamma-point specific algorithms are used
     signal trapping enabled: kill the code with -SIGUSR1 to stop cleanly the simulation 
 
     R & G space division:  proc/nbgrp/npool/nimage =      48
     Subspace diagonalization in iterative solution of the eigenvalue problem:
     one sub-group per band group will be used
     scalapack distributed-memory algorithm (size of sub-group:  2*  2 procs)

 
     Parallelization info
     --------------------
     sticks:   dense  smooth     PW     G-vecs:    dense   smooth      PW
     Min         396     194     47               101632    35090    4376
     Max         398     196     50               101674    35128    4410
     Sum       19091    9389   2349              4879585  1685513  210763
 
     Using Slab Decomposition
 


     bravais-lattice index     =            0
     lattice parameter (alat)  =      17.8707  a.u.
     unit-cell volume          =   17436.2743 (a.u.)^3
     number of atoms/cell      =           36
     number of atomic types    =            3
     number of electrons       =       312.00
     number of Kohn-Sham states=          187
     kinetic-energy cutoff     =      80.0000  Ry
     charge density cutoff     =     650.0000  Ry
     scf convergence threshold =      1.0E-06
     mixing beta               =       0.7000
     number of iterations used =            8  local-TF  mixing
     energy convergence thresh.=      1.0E-04
     force convergence thresh. =      1.0E-02
     Exchange-correlation= RVV10
                           (   1   4  13   4  26   0   0)
     nstep                     =          200


     celldm(1)=  17.870686  celldm(2)=   0.000000  celldm(3)=   0.000000
     celldm(4)=   0.000000  celldm(5)=   0.000000  celldm(6)=   0.000000

     crystal axes: (cart. coord. in units of alat)
               a(1) = (   1.000000   0.000000   0.000000 )  
               a(2) = (   0.000000   1.155671   0.000000 )  
               a(3) = (   0.000000   0.000000   2.643601 )  

     reciprocal axes: (cart. coord. in units 2 pi/alat)
               b(1) = (  1.000000  0.000000  0.000000 )  
               b(2) = (  0.000000  0.865298  0.000000 )  
               b(3) = (  0.000000  0.000000  0.378272 )  


     PseudoPot. # 1 for Mo read from file:
     ../pseudo/Mo_ONCV_PBE-1.0.oncvpsp.upf
     MD5 check sum: 1b5d28e075c9ccadda658a603575cd1f
     Pseudo is Norm-conserving, Zval = 14.0
     Generated using ONCVPSP code by D. R. Hamann
     Using radial grid of 1526 points,  6 beta functions with: 
                l(1) =   0
                l(2) =   0
                l(3) =   1
                l(4) =   1
                l(5) =   2
                l(6) =   2

     PseudoPot. # 2 for S  read from file:
     ../pseudo/s_pbe_v1.4.uspp.F.UPF
     MD5 check sum: 88d86576ff6df21479756cfb9bdac1df
     Pseudo is Ultrasoft + core correction, Zval =  6.0
     Generated by new atomic code, or converted to UPF format
     Using radial grid of  907 points,  6 beta functions with: 
                l(1) =   0
                l(2) =   0
                l(3) =   1
                l(4) =   1
                l(5) =   2
                l(6) =   2
     Q(r) pseudized with  8 coefficients,  rinner =    1.300   1.300   1.300
                                                       1.300   1.300

     PseudoPot. # 3 for O  read from file:
     ../pseudo/O.pbe-n-kjpaw_psl.0.1.UPF
     MD5 check sum: 0234752ac141de4415c5fc33072bef88
     Pseudo is Projector augmented-wave + core cor, Zval =  6.0
     Generated using "atomic" code by A. Dal Corso  v.5.0.99 svn rev. 10869
     Shape of augmentation charge: BESSEL
     Using radial grid of 1095 points,  4 beta functions with: 
                l(1) =   0
                l(2) =   0
                l(3) =   1
                l(4) =   1
     Q(r) pseudized with 0 coefficients 


     atomic species   valence    mass     pseudopotential
        Mo            14.00    95.94000     Mo( 1.00)
        S              6.00    32.06500     S ( 1.00)
        O              6.00    15.99940     O ( 1.00)

     No symmetry found



   Cartesian axes

     site n.     atom                  positions (alat units)
         1           Mo  tau(   1) = (   0.6952221   0.1890506   0.2985846  )
         2           S   tau(   2) = (   0.8646417   0.0856217   0.4689279  )
         3           S   tau(   3) = (   0.8663890   0.0857843   0.1351291  )
         4           Mo  tau(   4) = (   0.8560186   0.4753274   0.2873942  )
         5           S   tau(   5) = (   0.6873294   0.3936244   0.4596353  )
         6           S   tau(   6) = (   0.6929804   0.3713468   0.1185692  )
         7           Mo  tau(   7) = (   0.6862796   0.7633098   0.2825370  )
         8           S   tau(   8) = (   0.8545980   0.6708292   0.4486168  )
         9           S   tau(   9) = (   0.8545123   0.6666874   0.1146125  )
        10           Mo  tau(  10) = (   0.8629403   1.0471007   0.3006803  )
        11           S   tau(  11) = (   0.6868280   0.9456650   0.4634891  )
        12           S   tau(  12) = (   0.6998113   0.9568511   0.1205389  )
        13           Mo  tau(  13) = (   0.3618216   0.1847309   0.2935964  )
        14           S   tau(  14) = (   0.5260962   0.0863870   0.4600448  )
        15           S   tau(  15) = (   0.5348379   0.0894875   0.1297123  )
        16           Mo  tau(  16) = (   0.5265817   0.4772436   0.2784130  )
        17           S   tau(  17) = (   0.3624753   0.3882513   0.4525556  )
        18           S   tau(  18) = (   0.3635411   0.3752055   0.1119148  )
        19           Mo  tau(  19) = (   0.3652268   0.7630864   0.2781795  )
        20           S   tau(  20) = (   0.5269494   0.6690381   0.1096838  )
        21           Mo  tau(  21) = (   0.5300192   1.0470394   0.2900995  )
        22           S   tau(  22) = (   0.3670346   0.9457522   0.4574073  )
        23           S   tau(  23) = (   0.3604225   0.9585725   0.1159032  )
        24           Mo  tau(  24) = (   0.0313099   0.1847895   0.3013130  )
        25           S   tau(  25) = (   0.1956761   0.0838230   0.4650863  )
        26           S   tau(  26) = (   0.1967693   0.0903508   0.1278874  )
        27           Mo  tau(  27) = (   0.1967578   0.4753919   0.2813011  )
        28           S   tau(  28) = (   0.0287851   0.3864324   0.4586755  )
        29           S   tau(  29) = (   0.0244514   0.3729871   0.1239344  )
        30           Mo  tau(  30) = (   0.0286728   0.7631204   0.2856894  )
        31           S   tau(  31) = (   0.2011512   0.6675435   0.4465001  )
        32           S   tau(  32) = (   0.1969214   0.6672839   0.1104564  )
        33           Mo  tau(  33) = (   0.1950294   1.0511147   0.2932237  )
        34           S   tau(  34) = (   0.0312912   0.9612169   0.4667423  )
        35           S   tau(  35) = (   0.0292670   0.9563028   0.1216485  )
        36           O   tau(  36) = (   1.0000000   1.1556707   0.5656742  )

     number of k points=     1  Gaussian smearing, width (Ry)=  0.0100
                       cart. coord. in units 2pi/alat
        k(    1) = (   0.0000000   0.0000000   0.0000000), wk =   2.0000000

     Dense  grid:  2439793 G-vectors     FFT dimensions: ( 150, 180, 384)

     Smooth grid:   842757 G-vectors     FFT dimensions: ( 108, 120, 270)

     Estimated max dynamical RAM per process >     269.22 MB

     Estimated total dynamical RAM >      12.62 GB

     Initial potential from superposition of free atoms

     starting charge     311.9873, renormalised to     312.0000

     negative rho (up, down):  2.751E-04 0.000E+00


---------------------------------------------------------------------------------
Carrying out rVV10 run using the following parameters:
Nqs =      20    Nr_points =    1024   r_max =   100.000
b_value =  6.30000    beta =  0.00901
     q_mesh =  0.00010000  0.00030000  0.00058939  0.00100810
               0.00161396  0.00249058  0.00375900  0.00559430
               0.00824984  0.01209221  0.01765183  0.02569619
               0.03733578  0.05417739  0.07854596  0.11380545
               0.16482331  0.23864234  0.34545298  0.50000000

Gradients computed in Reciprocal space

---------------------------------------------------------------------------------


     Starting wfcs are  216 randomized atomic wfcs
     Checking if some PAW data can be deallocated... 

     total cpu time spent up to now is        5.4 secs

     Self-consistent Calculation

     iteration #  1     ecut=    80.00 Ry     beta= 0.70
     Davidson diagonalization with overlap
     ethr =  1.00E-02,  avg # of iterations =  2.0

     Threshold (ethr) on eigenvalues was too large:
     Diagonalizing with lowered threshold

     Davidson diagonalization with overlap
     ethr =  4.37E-04,  avg # of iterations =  4.0

     negative rho (up, down):  3.251E-08 0.000E+00

     total cpu time spent up to now is       23.4 secs

     total energy              =   -2246.17814503 Ry
     estimated scf accuracy    <       1.62495464 Ry

     iteration #  2     ecut=    80.00 Ry     beta= 0.70
     Davidson diagonalization with overlap
     ethr =  5.21E-04,  avg # of iterations =  4.0

     total cpu time spent up to now is       28.0 secs

     total energy              =   -2246.17169828 Ry
     estimated scf accuracy    <       0.66633858 Ry

     iteration #  3     ecut=    80.00 Ry     beta= 0.70
     Davidson diagonalization with overlap
     ethr =  2.14E-04,  avg # of iterations =  4.0

     total cpu time spent up to now is       32.0 secs

     total energy              =   -2246.15745909 Ry
     estimated scf accuracy    <       0.21370324 Ry

     iteration #  4     ecut=    80.00 Ry     beta= 0.70
     Davidson diagonalization with overlap
     c_bands:  1 eigenvalues not converged
     ethr =  6.85E-05,  avg # of iterations = 20.0

     total cpu time spent up to now is       36.9 secs

     total energy              =   -2246.19737153 Ry
     estimated scf accuracy    <       0.03177700 Ry

     iteration #  5     ecut=    80.00 Ry     beta= 0.70
     Davidson diagonalization with overlap
     ethr =  1.02E-05,  avg # of iterations = 10.0

     total cpu time spent up to now is       41.2 secs

     total energy              =   -2246.19847556 Ry
     estimated scf accuracy    <       0.01776357 Ry

     iteration #  6     ecut=    80.00 Ry     beta= 0.70
     Davidson diagonalization with overlap
     ethr =  5.69E-06,  avg # of iterations =  9.0

     total cpu time spent up to now is       45.2 secs

     total energy              =   -2246.19755628 Ry
     estimated scf accuracy    <       0.01215368 Ry

     iteration #  7     ecut=    80.00 Ry     beta= 0.70
     Davidson diagonalization with overlap
     ethr =  3.90E-06,  avg # of iterations =  2.0

     total cpu time spent up to now is       49.1 secs

     total energy              =   -2246.19647780 Ry
     estimated scf accuracy    <       0.00712200 Ry

     iteration #  8     ecut=    80.00 Ry     beta= 0.70
     Davidson diagonalization with overlap
     ethr =  2.28E-06,  avg # of iterations =  8.0

     negative rho (up, down):  4.029E-03 0.000E+00

     total cpu time spent up to now is       55.2 secs

     total energy              =   -2246.19566937 Ry
     estimated scf accuracy    <       0.00387616 Ry

     iteration #  9     ecut=    80.00 Ry     beta= 0.70
     Davidson diagonalization with overlap
     ethr =  1.24E-06,  avg # of iterations =  2.0

     negative rho (up, down):  2.294E-02 0.000E+00

     total cpu time spent up to now is       61.6 secs

     total energy              =   -2246.19547413 Ry
     estimated scf accuracy    <       0.00216814 Ry

     iteration # 10     ecut=    80.00 Ry     beta= 0.70
     Davidson diagonalization with overlap
     ethr =  6.95E-07,  avg # of iterations =  2.0

     negative rho (up, down):  2.525E-02 0.000E+00

     total cpu time spent up to now is       68.2 secs

     total energy              =   -2246.19550539 Ry
     estimated scf accuracy    <       0.00095170 Ry

     iteration # 11     ecut=    80.00 Ry     beta= 0.70
     Davidson diagonalization with overlap
     ethr =  3.05E-07,  avg # of iterations =  2.0

     negative rho (up, down):  1.574E-02 0.000E+00

     total cpu time spent up to now is       75.5 secs

     total energy              =   -2246.19549576 Ry
     estimated scf accuracy    <       0.00018793 Ry

     iteration # 12     ecut=    80.00 Ry     beta= 0.70
     Davidson diagonalization with overlap
     ethr =  6.02E-08,  avg # of iterations =  5.0

     negative rho (up, down):  5.117E-03 0.000E+00

     total cpu time spent up to now is       83.7 secs

     total energy              =   -2246.19552280 Ry
     estimated scf accuracy    <       0.00003904 Ry

     iteration # 13     ecut=    80.00 Ry     beta= 0.70
     Davidson diagonalization with overlap
     ethr =  1.25E-08,  avg # of iterations =  5.0

     negative rho (up, down):  9.273E-04 0.000E+00

     total cpu time spent up to now is       92.8 secs

     total energy              =   -2246.19554509 Ry
     estimated scf accuracy    <       0.00000716 Ry

     iteration # 14     ecut=    80.00 Ry     beta= 0.70
     Davidson diagonalization with overlap
     ethr =  2.30E-09,  avg # of iterations =  4.0

     negative rho (up, down):  4.504E-04 0.000E+00

     total cpu time spent up to now is      102.7 secs

     total energy              =   -2246.19554836 Ry
     estimated scf accuracy    <       0.00000152 Ry

     iteration # 15     ecut=    80.00 Ry     beta= 0.70
     Davidson diagonalization with overlap
     ethr =  4.88E-10,  avg # of iterations =  4.0

     negative rho (up, down):  2.124E-04 0.000E+00

     total cpu time spent up to now is      106.4 secs

     End of self-consistent calculation

          k = 0.0000 0.0000 0.0000 (105382 PWs)   bands (ev):

   -62.9918 -62.9518 -62.9482 -62.9343 -62.8879 -62.8785 -62.8661 -62.8545
   -62.8362 -62.8263 -62.7773 -62.7263 -37.3166 -37.2713 -37.2330 -37.2242
   -37.1943 -37.1803 -37.1693 -37.1470 -37.1308 -37.1291 -37.1259 -37.1115
   -37.1052 -37.0980 -37.0637 -37.0571 -37.0502 -37.0453 -37.0332 -37.0268
   -37.0234 -37.0104 -37.0087 -36.9995 -36.9897 -36.9733 -36.9574 -36.9493
   -36.9238 -36.9052 -36.8879 -36.8781 -36.8566 -36.8335 -36.8052 -36.7671
   -20.7823 -15.9750 -15.3281 -15.1938 -15.0908 -14.9111 -14.8466 -14.7980
   -14.5572 -14.5342 -14.4838 -14.4491 -14.4219 -14.3572 -14.2891 -14.2326
   -14.1966 -14.1655 -14.1105 -14.0699 -13.9199 -13.8996 -13.8789 -13.8581
    -8.1744  -7.7825  -7.6153  -7.4850  -7.3843  -7.3516  -7.3092  -7.2497
    -7.2174  -7.1454  -6.8889  -6.8710  -6.8205  -6.7201  -6.6878  -6.6170
    -6.5450  -6.4494  -6.4319  -6.3381  -6.1744  -6.0700  -5.9687  -5.9309
    -5.9091  -5.8469  -5.8062  -5.7407  -5.7301  -5.7046  -5.6367  -5.6206
    -5.5652  -5.5049  -5.4389  -5.3841  -5.3339  -5.1715  -5.0980  -5.0606
    -5.0320  -4.9899  -4.9017  -4.7280  -4.6838  -4.5823  -4.4411  -4.4285
    -4.3539  -4.3004  -4.1972  -4.1538  -3.9692  -3.9442  -3.8806  -3.8450
    -3.8076  -3.7729  -3.7004  -3.6578  -3.6128  -3.5966  -3.5226  -3.4961
    -3.4611  -3.4360  -3.2979  -3.2413  -3.0348  -2.9897  -2.9094  -2.8636
    -2.8492  -2.8111  -2.7788  -2.7438  -2.7008  -2.6467  -2.4004  -2.3218
    -2.0573  -1.9738  -1.9427  -1.8339  -1.4305  -0.8404  -0.7726  -0.2314
    -0.1981  -0.1267  -0.0773   0.0584   0.0839   0.1396   0.1524   0.2111
     0.2368   0.3008   0.3618   0.4647   0.4859   0.5016   0.5374   0.5594
     0.6406   0.6893   0.6936   0.7308   0.7833   0.8210   0.8642   0.9066
     0.9660   0.9924   1.2122

     the Fermi energy is    -1.6314 ev

!    total energy              =   -2246.19555024 Ry
     estimated scf accuracy    <       0.00000068 Ry
     smearing contrib. (-TS)   =      -0.00129271 Ry
     internal energy E=F+TS    =   -2246.19425753 Ry

     The total energy is F=E-TS. E is the sum of the following terms:
     one-electron contribution =  -18464.87505771 Ry
     hartree contribution      =    9220.73095228 Ry
     xc contribution           =    -392.02970806 Ry
     ewald contribution        =    7399.84981172 Ry
     one-center paw contrib.   =      -9.87025577 Ry

     convergence has been achieved in  15 iterations

     negative rho (up, down):  2.124E-04 0.000E+00

     Forces acting on atoms (cartesian axes, Ry/au):

     atom    1 type  1   force =    -0.00101401    0.01008824   -0.00598677
     atom    2 type  2   force =     0.08721740   -0.05659233    0.04569983
     atom    3 type  2   force =    -0.01314185    0.00930169   -0.00341987
     atom    4 type  1   force =     0.00452399   -0.00514686   -0.00324398
     atom    5 type  2   force =    -0.00297329   -0.00195323   -0.00521397
     atom    6 type  2   force =     0.00090740    0.00488345   -0.00120854
     atom    7 type  1   force =     0.00375580   -0.01329393   -0.00805978
     atom    8 type  2   force =     0.00094465   -0.00607379    0.01957220
     atom    9 type  2   force =     0.01080835    0.00664851    0.00955598
     atom   10 type  1   force =    -0.02582280   -0.00901333   -0.06086588
     atom   11 type  2   force =     0.00393524   -0.00199677   -0.00573539
     atom   12 type  2   force =    -0.00431807    0.00061316    0.00533914
     atom   13 type  1   force =     0.01307712    0.00472172   -0.01681279
     atom   14 type  2   force =    -0.00056844    0.00037173    0.01005204
     atom   15 type  2   force =    -0.01070660    0.00120317   -0.01115117
     atom   16 type  1   force =    -0.00385214    0.01355801    0.00456117
     atom   17 type  2   force =     0.00683314   -0.00018104    0.00311812
     atom   18 type  2   force =    -0.00115607   -0.00468521    0.01118427
     atom   19 type  1   force =     0.00507763   -0.01119243   -0.00333193
     atom   20 type  2   force =     0.00301120   -0.00377584    0.00163660
     atom   21 type  1   force =    -0.00266588    0.00170167    0.00035360
     atom   22 type  2   force =    -0.00203557   -0.00210349   -0.00254407
     atom   23 type  2   force =     0.00315678    0.00049080    0.00654503
     atom   24 type  1   force =    -0.00489835    0.01352139   -0.04622434
     atom   25 type  2   force =     0.04759521    0.03244214   -0.02093065
     atom   26 type  2   force =    -0.01069824   -0.00084997   -0.00190790
     atom   27 type  1   force =    -0.00283068   -0.00085497    0.00942427
     atom   28 type  2   force =     0.00180093   -0.00047238   -0.00298281
     atom   29 type  2   force =     0.00493033    0.00317181   -0.00259015
     atom   30 type  1   force =     0.00244400   -0.00805395   -0.01934452
     atom   31 type  2   force =    -0.00040669    0.00407273    0.01643354
     atom   32 type  2   force =    -0.00971278    0.00751155    0.00726292
     atom   33 type  1   force =     0.01268673   -0.00210449   -0.01148783
     atom   34 type  2   force =     0.00375528   -0.03092513   -0.01263685
     atom   35 type  2   force =    -0.00783192    0.00737641    0.01652582
     atom   36 type  3   force =    -0.11182780    0.03759094    0.07841468
     The non-local contrib.  to forces
     atom    1 type  1   force =    -0.01026403    0.00599571   -0.01594205
     atom    2 type  2   force =     0.35120845   -0.18640976    0.08719126
     atom    3 type  2   force =    -0.01517796   -0.00141077    0.27136197
     atom    4 type  1   force =     0.00218364    0.01089536    0.00547271
     atom    5 type  2   force =     0.00458338   -0.03114052   -0.25025495
     atom    6 type  2   force =    -0.00471406    0.00609282    0.26754800
     atom    7 type  1   force =    -0.01767087    0.00464365   -0.01930075
     atom    8 type  2   force =     0.00234878   -0.00729703   -0.25209263
     atom    9 type  2   force =     0.00217603   -0.00948040    0.27844513
     atom   10 type  1   force =     0.00524545   -0.00237719    0.01572472
     atom   11 type  2   force =     0.01554646    0.00665723   -0.26167386
     atom   12 type  2   force =    -0.01255872   -0.01797081    0.26453025
     atom   13 type  1   force =    -0.02037420    0.01657832    0.00189680
     atom   14 type  2   force =     0.00271951   -0.01157532   -0.25995262
     atom   15 type  2   force =    -0.01054113   -0.00430262    0.26112248
     atom   16 type  1   force =    -0.00383392    0.03387965   -0.02957242
     atom   17 type  2   force =     0.00110379   -0.02800958   -0.24969496
     atom   18 type  2   force =    -0.00343635    0.00015344    0.27035433
     atom   19 type  1   force =     0.01267171    0.00187271   -0.01270931
     atom   20 type  2   force =     0.00006657   -0.02111209    0.26679860
     atom   21 type  1   force =     0.00045301    0.02643851    0.00738496
     atom   22 type  2   force =    -0.00312836    0.00273274   -0.25993427
     atom   23 type  2   force =     0.00890926   -0.01461944    0.26811416
     atom   24 type  1   force =     0.00842241    0.01689004    0.00570090
     atom   25 type  2   force =    -0.01493040   -0.00620014   -0.25963161
     atom   26 type  2   force =    -0.00361808   -0.01305506    0.25872258
     atom   27 type  1   force =    -0.00128044    0.00571420    0.01275285
     atom   28 type  2   force =    -0.00500478   -0.02818281   -0.27490147
     atom   29 type  2   force =     0.00648603    0.00162017    0.26448321
     atom   30 type  1   force =     0.00505130    0.03878475    0.00796268
     atom   31 type  2   force =    -0.00882382    0.00280185   -0.25137379
     atom   32 type  2   force =    -0.00681411   -0.01262827    0.27602197
     atom   33 type  1   force =    -0.00026004    0.00180532    0.01279641
     atom   34 type  2   force =    -0.00437343    0.11349703   -0.18648701
     atom   35 type  2   force =    -0.00258061   -0.01027205    0.26891431
     atom   36 type  3   force =    -0.77841012    0.42064655   -0.72651132
     The ionic contribution  to forces
     atom    1 type  1   force =    -0.76713053    1.19726978    3.77302779
     atom    2 type  2   force =    -5.17958888    3.30425735   35.91770452
     atom    3 type  2   force =    -0.38425063    0.17999670  -37.22472905
     atom    4 type  1   force =    -0.19262300    1.16538977   -0.55415189
     atom    5 type  2   force =    -1.26644439    1.94309842   38.49921150
     atom    6 type  2   force =     0.25077575   -0.34344878  -38.59285031
     atom    7 type  1   force =    -3.03677574   -3.42828582    1.37737451
     atom    8 type  2   force =    -1.16681489   -0.33535646   37.11120468
     atom    9 type  2   force =     0.28391758   -0.13412587  -38.55730002
     atom   10 type  1   force =    -3.06994507   -1.97442978    1.07746381
     atom   11 type  2   force =    -1.41583984   -2.33193640   38.68994231
     atom   12 type  2   force =     0.27252067    0.51534808  -38.57877262
     atom   13 type  1   force =     1.32044944    1.72758356    1.20374850
     atom   14 type  2   force =    -0.10259411    0.19926862   38.17517584
     atom   15 type  2   force =     0.11140309    0.01080047  -37.47406475
     atom   16 type  1   force =    -0.07381773    4.22834829   -0.46658328
     atom   17 type  2   force =     1.05011359    1.88021078   37.68911381
     atom   18 type  2   force =    -0.08931450   -0.51064743  -39.10538878
     atom   19 type  1   force =     3.04517165   -3.00064647   -0.47115178
     atom   20 type  2   force =     0.21776991   -0.25727490  -38.95260013
     atom   21 type  1   force =    -0.18197913   -0.33337691   -0.34038474
     atom   22 type  2   force =     1.04348620   -2.24750796   38.05537610
     atom   23 type  2   force =     0.04239215    0.51623893  -38.95719467
     atom   24 type  1   force =    -0.12604322    3.75006340    1.52887272
     atom   25 type  2   force =     3.82492585    1.69004006   37.48957168
     atom   26 type  2   force =    -0.04203097    0.20529349  -38.33004065
     atom   27 type  1   force =     0.35132496    0.91713025   -3.43037834
     atom   28 type  2   force =     0.13399031    2.04104137   37.77761656
     atom   29 type  2   force =    -0.24830160   -0.18312046  -37.95593088
     atom   30 type  1   force =    -0.24260337   -2.11379819   -1.68122844
     atom   31 type  2   force =     1.43388921   -0.35820564   37.06536853
     atom   32 type  2   force =    -0.41376303   -0.09546189  -39.17369165
     atom   33 type  1   force =     2.75632974   -2.01853468   -1.51285865
     atom   34 type  2   force =     0.86853846   -5.41114725   37.23713087
     atom   35 type  2   force =    -0.26141899    0.18138840  -38.81423345
     atom   36 type  3   force =     1.25428103   -0.57546284   47.50563031
     The local contribution  to forces
     atom    1 type  1   force =     0.77634978   -1.19320719   -3.76387673
     atom    2 type  2   force =     4.93572500   -3.18521043  -35.96066445
     atom    3 type  2   force =     0.38554938   -0.16925017   36.97058917
     atom    4 type  1   force =     0.19504101   -1.18163959    0.54443204
     atom    5 type  2   force =     1.25952688   -1.91594839  -38.27478663
     atom    6 type  2   force =    -0.24564096    0.34299174   38.34478440
     atom    7 type  1   force =     3.05848827    3.41066024   -1.36725786
     atom    8 type  2   force =     1.16552575    0.33594267  -36.86018949
     atom    9 type  2   force =    -0.27543906    0.14970058   38.30896426
     atom   10 type  1   force =     3.03889087    1.96783263   -1.15481634
     atom   11 type  2   force =     1.40503929    2.32405109  -38.45506287
     atom   12 type  2   force =    -0.26545082   -0.49821707   38.34008823
     atom   13 type  1   force =    -1.28685331   -1.73942540   -1.22345467
     atom   14 type  2   force =     0.09978780   -0.18742100  -37.92602795
     atom   15 type  2   force =    -0.11208108   -0.00556472   37.22197598
     atom   16 type  1   force =     0.07381615   -4.24915567    0.49952722
     atom   17 type  2   force =    -1.04441289   -1.85393024  -37.45689925
     atom   18 type  2   force =     0.09162880    0.50654879   38.86664694
     atom   19 type  1   force =    -3.05307748    2.98780462    0.47932905
     atom   20 type  2   force =    -0.21496895    0.27374857   38.70807115
     atom   21 type  1   force =     0.17897108    0.30880843    0.33242050
     atom   22 type  2   force =    -1.04243374    2.24318076  -37.81889920
     atom   23 type  2   force =    -0.04750559   -0.50242293   38.71606533
     atom   24 type  1   force =     0.11262262   -3.75348930   -1.58151073
     atom   25 type  2   force =    -3.76272428   -1.65124931  -37.27217425
     atom   26 type  2   force =     0.03506924   -0.19375824   38.08966216
     atom   27 type  1   force =    -0.35298688   -0.92378540    3.42597506
     atom   28 type  2   force =    -0.12761230   -2.01544617  -37.52697386
     atom   29 type  2   force =     0.24730135    0.18532225   37.70902914
     atom   30 type  1   force =     0.24000424    2.06713012    1.65285950
     atom   31 type  2   force =    -1.42605687    0.35954583  -36.81831612
     atom   32 type  2   force =     0.41084902    0.11488694   38.92554715
     atom   33 type  1   force =    -2.74353496    2.01458850    1.48771128
     atom   34 type  2   force =    -0.86080605    5.27264906  -37.08041406
     atom   35 type  2   force =     0.25623593   -0.16467242   38.58243448
     atom   36 type  3   force =    -0.59660559    0.19734547  -46.70823830
     The core correction contribution to forces
     atom    1 type  1   force =     0.00000000    0.00000000    0.00000000
     atom    2 type  2   force =    -0.02015411    0.01076384    0.00131047
     atom    3 type  2   force =     0.00071118   -0.00005170   -0.02101014
     atom    4 type  1   force =     0.00000000    0.00000000    0.00000000
     atom    5 type  2   force =    -0.00058630    0.00187424    0.02024666
     atom    6 type  2   force =     0.00042487   -0.00078727   -0.02108877
     atom    7 type  1   force =     0.00000000    0.00000000    0.00000000
     atom    8 type  2   force =    -0.00004932    0.00069050    0.02032472
     atom    9 type  2   force =     0.00018393    0.00057741   -0.02105397
     atom   10 type  1   force =     0.00000000    0.00000000    0.00000000
     atom   11 type  2   force =    -0.00069840   -0.00062805    0.02075317
     atom   12 type  2   force =     0.00120343    0.00144186   -0.02091843
     atom   13 type  1   force =     0.00000000    0.00000000    0.00000000
     atom   14 type  2   force =    -0.00039502    0.00009949    0.02054101
     atom   15 type  2   force =     0.00053765    0.00031707   -0.02056035
     atom   16 type  1   force =     0.00000000    0.00000000    0.00000000
     atom   17 type  2   force =     0.00002020    0.00146169    0.02025671
     atom   18 type  2   force =     0.00001342   -0.00072782   -0.02087742
     atom   19 type  1   force =     0.00000000    0.00000000    0.00000000
     atom   20 type  2   force =     0.00012388    0.00085035   -0.02123654
     atom   21 type  1   force =     0.00000000    0.00000000    0.00000000
     atom   22 type  2   force =    -0.00004117   -0.00041373    0.02062289
     atom   23 type  2   force =    -0.00067474    0.00126795   -0.02088815
     atom   24 type  1   force =     0.00000000    0.00000000    0.00000000
     atom   25 type  2   force =     0.00022384   -0.00019145    0.02108121
     atom   26 type  2   force =    -0.00011371    0.00065717   -0.02065350
     atom   27 type  1   force =     0.00000000    0.00000000    0.00000000
     atom   28 type  2   force =     0.00039516    0.00199860    0.02098994
     atom   29 type  2   force =    -0.00054970   -0.00062517   -0.02061078
     atom   30 type  1   force =     0.00000000    0.00000000    0.00000000
     atom   31 type  2   force =     0.00051943   -0.00002897    0.02042519
     atom   32 type  2   force =    -0.00000000    0.00073005   -0.02111921
     atom   33 type  1   force =     0.00000000    0.00000000    0.00000000
     atom   34 type  2   force =     0.00036970   -0.00582299    0.01690772
     atom   35 type  2   force =    -0.00007078    0.00091404   -0.02099399
     atom   36 type  3   force =     0.00884218   -0.00490710    0.00732261
     The Hubbard contrib.    to forces
     atom    1 type  1   force =     0.00000000    0.00000000    0.00000000
     atom    2 type  2   force =     0.00000000    0.00000000    0.00000000
     atom    3 type  2   force =     0.00000000    0.00000000    0.00000000
     atom    4 type  1   force =     0.00000000    0.00000000    0.00000000
     atom    5 type  2   force =     0.00000000    0.00000000    0.00000000
     atom    6 type  2   force =     0.00000000    0.00000000    0.00000000
     atom    7 type  1   force =     0.00000000    0.00000000    0.00000000
     atom    8 type  2   force =     0.00000000    0.00000000    0.00000000
     atom    9 type  2   force =     0.00000000    0.00000000    0.00000000
     atom   10 type  1   force =     0.00000000    0.00000000    0.00000000
     atom   11 type  2   force =     0.00000000    0.00000000    0.00000000
     atom   12 type  2   force =     0.00000000    0.00000000    0.00000000
     atom   13 type  1   force =     0.00000000    0.00000000    0.00000000
     atom   14 type  2   force =     0.00000000    0.00000000    0.00000000
     atom   15 type  2   force =     0.00000000    0.00000000    0.00000000
     atom   16 type  1   force =     0.00000000    0.00000000    0.00000000
     atom   17 type  2   force =     0.00000000    0.00000000    0.00000000
     atom   18 type  2   force =     0.00000000    0.00000000    0.00000000
     atom   19 type  1   force =     0.00000000    0.00000000    0.00000000
     atom   20 type  2   force =     0.00000000    0.00000000    0.00000000
     atom   21 type  1   force =     0.00000000    0.00000000    0.00000000
     atom   22 type  2   force =     0.00000000    0.00000000    0.00000000
     atom   23 type  2   force =     0.00000000    0.00000000    0.00000000
     atom   24 type  1   force =     0.00000000    0.00000000    0.00000000
     atom   25 type  2   force =     0.00000000    0.00000000    0.00000000
     atom   26 type  2   force =     0.00000000    0.00000000    0.00000000
     atom   27 type  1   force =     0.00000000    0.00000000    0.00000000
     atom   28 type  2   force =     0.00000000    0.00000000    0.00000000
     atom   29 type  2   force =     0.00000000    0.00000000    0.00000000
     atom   30 type  1   force =     0.00000000    0.00000000    0.00000000
     atom   31 type  2   force =     0.00000000    0.00000000    0.00000000
     atom   32 type  2   force =     0.00000000    0.00000000    0.00000000
     atom   33 type  1   force =     0.00000000    0.00000000    0.00000000
     atom   34 type  2   force =     0.00000000    0.00000000    0.00000000
     atom   35 type  2   force =     0.00000000    0.00000000    0.00000000
     atom   36 type  3   force =     0.00000000    0.00000000    0.00000000
     The SCF correction term to forces
     atom    1 type  1   force =     0.00002982    0.00002954    0.00078602
     atom    2 type  2   force =     0.00002599    0.00000627    0.00013983
     atom    3 type  2   force =     0.00002524    0.00001722    0.00034999
     atom    4 type  1   force =    -0.00007860    0.00020720    0.00098497
     atom    5 type  2   force =    -0.00005380    0.00016262    0.00035126
     atom    6 type  2   force =     0.00006086    0.00003453    0.00037994
     atom    7 type  1   force =    -0.00028681   -0.00031240    0.00110612
     atom    8 type  2   force =    -0.00006661   -0.00005387    0.00030672
     atom    9 type  2   force =    -0.00003107   -0.00002361    0.00048238
     atom   10 type  1   force =    -0.00001499   -0.00003939    0.00074372
     atom   11 type  2   force =    -0.00011321   -0.00014104    0.00028765
     atom   12 type  2   force =    -0.00003358    0.00001070    0.00039350
     atom   13 type  1   force =    -0.00014576   -0.00001515    0.00097838
     atom   14 type  2   force =    -0.00008758   -0.00000046    0.00029756
     atom   15 type  2   force =    -0.00002607   -0.00004742    0.00035728
     atom   16 type  1   force =    -0.00001759    0.00048534    0.00117146
     atom   17 type  2   force =     0.00000751    0.00008591    0.00032362
     atom   18 type  2   force =    -0.00004837   -0.00001259    0.00043099
     atom   19 type  1   force =     0.00031080   -0.00022369    0.00118191
     atom   20 type  2   force =     0.00001886    0.00001184    0.00058533
     atom   21 type  1   force =    -0.00011179   -0.00016876    0.00091468
     atom   22 type  2   force =     0.00008055   -0.00009570    0.00027221
     atom   23 type  2   force =     0.00003476    0.00002590    0.00043017
     atom   24 type  1   force =     0.00009890    0.00005686    0.00069457
     atom   25 type  2   force =     0.00009927    0.00004258    0.00020412
     atom   26 type  2   force =    -0.00000566    0.00001227    0.00038332
     atom   27 type  1   force =     0.00011074    0.00008557    0.00105651
     atom   28 type  2   force =     0.00003161    0.00011624    0.00026783
     atom   29 type  2   force =    -0.00000670   -0.00002539    0.00042097
     atom   30 type  1   force =    -0.00000912   -0.00017104    0.00104355
     atom   31 type  2   force =     0.00006441   -0.00004074    0.00031154
     atom   32 type  2   force =     0.00001439   -0.00001567    0.00048647
     atom   33 type  1   force =     0.00015104    0.00003597    0.00084493
     atom   34 type  2   force =     0.00002567   -0.00010137    0.00020744
     atom   35 type  2   force =     0.00000160    0.00001805    0.00038628
     atom   36 type  3   force =     0.00006377   -0.00003154    0.00019319

     Total force =     0.222732     Total SCF correction =     0.003917

     BFGS Geometry Optimization
     Energy error            =      0.0E+00 Ry
     Gradient error          =      1.1E-01 Ry/Bohr

     number of scf cycles    =   1
     number of bfgs steps    =   0

     energy             new  =   -2246.1955502409 Ry

     new trust radius        =       0.1416594427 bohr
     new conv_thr            =       0.0000010000 Ry


ATOMIC_POSITIONS (angstrom)
Mo            6.5740118149        1.7931446951        2.8204749676
S             8.2228628017        0.7797566512        4.4587216607
S             8.1862787189        0.8161639869        1.2760737097
Mo            8.0975565561        4.4923333419        2.7161017519
S             6.4983358593        3.7213778804        4.3439015365
S             6.5538299757        3.5143217662        1.1206406951
Mo            6.4919691796        7.2114024396        2.6676194305
S             8.0822276161        6.3406568831        4.2528187269
S             8.0866371810        6.3082205590        1.0889198056
Mo            8.1469542110        9.8974107670        2.8112529226
S             6.4972500342        8.9418701718        4.3800704942
S             6.6156621737        9.0490356834        1.1427326514
Mo            3.4285797747        1.7494544781        2.7675742156
S             4.9748646843        0.8171379189        4.3558524006
S             5.0521680644        0.8468988007        1.2207575171
Mo            4.9777182142        4.5203525926        2.6352982184
S             3.4314576035        3.6715038846        4.2813596160
S             3.4373088172        3.5457493888        1.0642701408
Mo            3.4565487075        7.2104017603        2.6289136818
S             4.9848276538        6.3249341969        1.0381197832
Mo            5.0108531975        9.9025005383        2.7435880770
S             3.4698809399        8.9426381518        4.3242450484
S             3.4100996624        9.0652497062        1.0995317774
Mo            0.2934983899        1.7546647450        2.8249838406
S             1.8756485145        0.8098616477        4.3871334162
S             1.8551387711        0.8539761327        1.2083912382
Mo            1.8591933798        4.4952143292        2.6651844885
S             0.2731668607        3.6541488559        4.3360056642
S             0.2338402233        3.5289276756        1.1706472365
Mo            0.2724454594        7.2123841262        2.6914597463
S             1.9020230357        6.3149540334        4.2311403772
S             1.8570984334        6.3143187556        1.0484026552
Mo            1.8510601885        9.9390255035        2.7668671533
S             0.2979001088        9.0736329519        4.4071823328
S             0.2726269272        9.0474291432        1.1591458685
O             9.3975832779       10.9487922679        5.3909399730



     Writing config-only to output data dir ./MoS2-V-O.save/
     NEW-OLD atomic charge density approx. for the potential

     negative rho (up, down):  1.650E-04 0.000E+00

     total cpu time spent up to now is      114.1 secs

     Self-consistent Calculation

     iteration #  1     ecut=    80.00 Ry     beta= 0.70
     Davidson diagonalization with overlap
     ethr =  1.00E-06,  avg # of iterations = 11.0

     negative rho (up, down):  1.756E-04 0.000E+00

     total cpu time spent up to now is      128.8 secs

     total energy              =   -2246.23787824 Ry
     estimated scf accuracy    <       0.01934142 Ry

     iteration #  2     ecut=    80.00 Ry     beta= 0.70
     Davidson diagonalization with overlap
     ethr =  6.20E-06,  avg # of iterations =  5.0

     negative rho (up, down):  2.538E-04 0.000E+00

     total cpu time spent up to now is      139.2 secs

     total energy              =   -2246.24093463 Ry
     estimated scf accuracy    <       0.00720539 Ry

     iteration #  3     ecut=    80.00 Ry     beta= 0.70
     Davidson diagonalization with overlap
     ethr =  2.31E-06,  avg # of iterations =  3.0

     negative rho (up, down):  3.053E-04 0.000E+00

     total cpu time spent up to now is      156.8 secs

     total energy              =   -2246.24167163 Ry
     estimated scf accuracy    <       0.00039657 Ry

     iteration #  4     ecut=    80.00 Ry     beta= 0.70
     Davidson diagonalization with overlap
     ethr =  1.27E-07,  avg # of iterations =  5.0

     negative rho (up, down):  3.234E-04 0.000E+00

     total cpu time spent up to now is      168.4 secs

     total energy              =   -2246.24172719 Ry
     estimated scf accuracy    <       0.00006658 Ry

     iteration #  5     ecut=    80.00 Ry     beta= 0.70
     Davidson diagonalization with overlap
     ethr =  2.13E-08,  avg # of iterations =  4.0

     negative rho (up, down):  3.399E-04 0.000E+00

     total cpu time spent up to now is      184.2 secs

     total energy              =   -2246.24173406 Ry
     estimated scf accuracy    <       0.00001351 Ry

     iteration #  6     ecut=    80.00 Ry     beta= 0.70
     Davidson diagonalization with overlap
     ethr =  4.33E-09,  avg # of iterations =  5.0

     negative rho (up, down):  3.398E-04 0.000E+00

     total cpu time spent up to now is      199.8 secs

     total energy              =   -2246.24173738 Ry
     estimated scf accuracy    <       0.00000192 Ry

     iteration #  7     ecut=    80.00 Ry     beta= 0.70
     Davidson diagonalization with overlap
     ethr =  6.16E-10,  avg # of iterations =  2.0

     negative rho (up, down):  2.101E-04 0.000E+00

     total cpu time spent up to now is      203.5 secs

     End of self-consistent calculation

          k = 0.0000 0.0000 0.0000 (105382 PWs)   bands (ev):

   -63.0412 -62.9571 -62.9534 -62.9321 -62.8912 -62.8697 -62.8662 -62.8585
   -62.8393 -62.8306 -62.8146 -62.7148 -37.3382 -37.2979 -37.2559 -37.2349
   -37.1988 -37.1842 -37.1802 -37.1588 -37.1411 -37.1368 -37.1279 -37.1171
   -37.1040 -37.0981 -37.0653 -37.0561 -37.0517 -37.0482 -37.0407 -37.0307
   -37.0247 -37.0164 -37.0113 -37.0053 -36.9939 -36.9855 -36.9672 -36.9560
   -36.9427 -36.9000 -36.8975 -36.8774 -36.8678 -36.8460 -36.8116 -36.7628
   -21.1723 -15.9863 -15.2884 -15.1815 -15.0710 -14.9252 -14.8084 -14.7363
   -14.5586 -14.5297 -14.4913 -14.4476 -14.4304 -14.3711 -14.2889 -14.2347
   -14.2017 -14.1780 -14.1057 -14.0396 -13.9364 -13.8969 -13.8793 -13.7957
    -8.1614  -7.7865  -7.6098  -7.4785  -7.4073  -7.3582  -7.3246  -7.2626
    -7.2235  -7.1260  -6.8862  -6.8803  -6.8307  -6.7301  -6.6966  -6.6221
    -6.5486  -6.4604  -6.4390  -6.3352  -6.1370  -6.0774  -5.9609  -5.9233
    -5.9039  -5.8445  -5.8098  -5.7555  -5.7394  -5.7157  -5.6651  -5.6267
    -5.5674  -5.5078  -5.4297  -5.3662  -5.3346  -5.1665  -5.0832  -5.0671
    -5.0304  -5.0016  -4.9103  -4.7280  -4.7102  -4.5937  -4.4422  -4.4107
    -4.3523  -4.3006  -4.2129  -4.1559  -3.9979  -3.9615  -3.8740  -3.8480
    -3.8176  -3.7700  -3.7031  -3.6570  -3.6003  -3.5961  -3.5436  -3.5045
    -3.4606  -3.4422  -3.2815  -3.2514  -3.0436  -2.9970  -2.9209  -2.8623
    -2.8491  -2.8156  -2.7950  -2.7392  -2.7140  -2.6569  -2.4302  -2.3345
    -2.0937  -2.0574  -1.9858  -1.8491  -1.3148  -0.8350  -0.7758  -0.2287
    -0.1933  -0.1355  -0.0805   0.0578   0.0856   0.1529   0.1560   0.2165
     0.2381   0.2908   0.3627   0.4619   0.4860   0.5064   0.5308   0.5579
     0.6393   0.6729   0.6951   0.7118   0.7977   0.8101   0.8730   0.9075
     0.9514   0.9867   1.2142

     the Fermi energy is    -1.5819 ev

!    total energy              =   -2246.24173774 Ry
     estimated scf accuracy    <       0.00000052 Ry
     smearing contrib. (-TS)   =      -0.00023976 Ry
     internal energy E=F+TS    =   -2246.24149799 Ry

     The total energy is F=E-TS. E is the sum of the following terms:
     one-electron contribution =  -18457.56850150 Ry
     hartree contribution      =    9216.99058257 Ry
     xc contribution           =    -392.05353791 Ry
     ewald contribution        =    7396.25670312 Ry
     one-center paw contrib.   =      -9.86674427 Ry

     convergence has been achieved in   7 iterations

     negative rho (up, down):  2.101E-04 0.000E+00

     Forces acting on atoms (cartesian axes, Ry/au):

     atom    1 type  1   force =     0.00064050    0.00095999    0.00721822
     atom    2 type  2   force =     0.08249931   -0.05565656    0.02055205
     atom    3 type  2   force =    -0.01506790    0.01026052   -0.00965269
     atom    4 type  1   force =     0.00369139   -0.00284345    0.00153485
     atom    5 type  2   force =    -0.00230852   -0.00086865   -0.00524952
     atom    6 type  2   force =    -0.00185284    0.00486358   -0.00157879
     atom    7 type  1   force =     0.00214420   -0.00945846    0.00002428
     atom    8 type  2   force =     0.00246389   -0.00560426    0.01234624
     atom    9 type  2   force =     0.00926668    0.00428883    0.00506036
     atom   10 type  1   force =    -0.00830778   -0.00308514   -0.02555955
     atom   11 type  2   force =     0.00459725   -0.00253365   -0.00983481
     atom   12 type  2   force =    -0.01001209   -0.00300054   -0.00388068
     atom   13 type  1   force =     0.00784092    0.00419210   -0.00667824
     atom   14 type  2   force =     0.00267616    0.00219969    0.00319876
     atom   15 type  2   force =    -0.00543184    0.00077119   -0.01073759
     atom   16 type  1   force =    -0.00021768    0.00990709    0.00375276
     atom   17 type  2   force =     0.00565516    0.00012612    0.00250898
     atom   18 type  2   force =    -0.00093885   -0.00156315    0.00804715
     atom   19 type  1   force =     0.00363770   -0.00920286    0.00047936
     atom   20 type  2   force =     0.00231781   -0.00370574   -0.00243970
     atom   21 type  1   force =    -0.00179194    0.00161594    0.00303368
     atom   22 type  2   force =    -0.00223218   -0.00216894   -0.00383871
     atom   23 type  2   force =     0.00320283   -0.00086064    0.00298605
     atom   24 type  1   force =     0.00060502    0.00593236   -0.02264258
     atom   25 type  2   force =     0.03094634    0.02550584   -0.02233605
     atom   26 type  2   force =    -0.00620341   -0.00138779   -0.00776445
     atom   27 type  1   force =    -0.00109888    0.00064244    0.00713213
     atom   28 type  2   force =     0.00023888   -0.00274599   -0.00437716
     atom   29 type  2   force =     0.00440022    0.00707298   -0.00752889
     atom   30 type  1   force =    -0.00141081   -0.00235582   -0.00262832
     atom   31 type  2   force =     0.00004014    0.00229112    0.01162656
     atom   32 type  2   force =    -0.00535779    0.00480765    0.00468599
     atom   33 type  1   force =     0.00627922    0.00065372   -0.00078738
     atom   34 type  2   force =     0.00063024   -0.03908938   -0.02957221
     atom   35 type  2   force =    -0.00410128    0.00560332    0.00548289
     atom   36 type  3   force =    -0.10744003    0.05443652    0.07741703
     The non-local contrib.  to forces
     atom    1 type  1   force =    -0.01444006    0.00725709   -0.02258635
     atom    2 type  2   force =     0.34586530   -0.19252978    0.12558710
     atom    3 type  2   force =    -0.01523878   -0.00269100    0.26868557
     atom    4 type  1   force =     0.00330208    0.01165495    0.00441443
     atom    5 type  2   force =     0.00558150   -0.02991160   -0.24936713
     atom    6 type  2   force =    -0.00701979    0.00561713    0.26831851
     atom    7 type  1   force =    -0.01496823    0.00591639   -0.02218020
     atom    8 type  2   force =     0.00294037   -0.00697786   -0.25825924
     atom    9 type  2   force =     0.00031899   -0.01158027    0.27555501
     atom   10 type  1   force =     0.00242202    0.00143414    0.01819328
     atom   11 type  2   force =     0.01338580    0.00542578   -0.26331440
     atom   12 type  2   force =    -0.01727028   -0.02092082    0.25887813
     atom   13 type  1   force =    -0.01451972    0.01997031    0.00014475
     atom   14 type  2   force =     0.00538172   -0.01037548   -0.26334294
     atom   15 type  2   force =    -0.00612984   -0.00316855    0.26154577
     atom   16 type  1   force =    -0.00524669    0.03659251   -0.03087825
     atom   17 type  2   force =     0.00065992   -0.02739964   -0.25056132
     atom   18 type  2   force =    -0.00352821    0.00122954    0.26977709
     atom   19 type  1   force =     0.01187241    0.00399932   -0.01472049
     atom   20 type  2   force =    -0.00027967   -0.02045060    0.26389962
     atom   21 type  1   force =    -0.00046780    0.02601622    0.00527980
     atom   22 type  2   force =    -0.00155109    0.00222340   -0.26119417
     atom   23 type  2   force =     0.00885203   -0.01594377    0.26697033
     atom   24 type  1   force =    -0.00013685    0.01682135    0.00840648
     atom   25 type  2   force =     0.00406829    0.00098616   -0.26570142
     atom   26 type  2   force =     0.00032441   -0.01137405    0.25660868
     atom   27 type  1   force =    -0.00282260    0.00619830    0.01174583
     atom   28 type  2   force =    -0.00536409   -0.02805130   -0.27549982
     atom   29 type  2   force =     0.00495767    0.00418774    0.26108288
     atom   30 type  1   force =     0.00756921    0.03823900    0.00806372
     atom   31 type  2   force =    -0.00812404    0.00147846   -0.25602031
     atom   32 type  2   force =    -0.00123162   -0.01379474    0.27382912
     atom   33 type  1   force =     0.00038490    0.00028134    0.00898506
     atom   34 type  2   force =    -0.00665756    0.06488491   -0.22816173
     atom   35 type  2   force =    -0.00184979   -0.01167009    0.26449139
     atom   36 type  3   force =    -1.03708371    0.62581203   -0.90868352
     The ionic contribution  to forces
     atom    1 type  1   force =    -0.55130171    0.90718161    4.13292977
     atom    2 type  2   force =    -5.56063840    3.56822338   35.36019646
     atom    3 type  2   force =    -0.41052967    0.20154817  -37.16960602
     atom    4 type  1   force =    -0.25483433    1.16642495   -0.43684369
     atom    5 type  2   force =    -1.21868693    1.87494338   38.50295642
     atom    6 type  2   force =     0.20611972   -0.32118606  -38.57377396
     atom    7 type  1   force =    -3.00379683   -3.29309229    1.41700230
     atom    8 type  2   force =    -1.13587634   -0.27349822   37.23563053
     atom    9 type  2   force =     0.24685268   -0.17790374  -38.53150843
     atom   10 type  1   force =    -2.60818567   -1.61735975    0.18190984
     atom   11 type  2   force =    -1.34219625   -2.28726382   38.64820942
     atom   12 type  2   force =     0.11600154    0.44167247  -38.60535483
     atom   13 type  1   force =     1.24916710    1.62252272    0.92751173
     atom   14 type  2   force =    -0.02951932    0.18861731   38.23399873
     atom   15 type  2   force =     0.16886357   -0.02175894  -37.49998146
     atom   16 type  1   force =    -0.02159560    4.09798966   -0.23118078
     atom   17 type  2   force =     1.02780121    1.81411870   37.74711763
     atom   18 type  2   force =    -0.08957268   -0.44258792  -39.04790587
     atom   19 type  1   force =     2.95501172   -2.82838199   -0.39756117
     atom   20 type  2   force =     0.19578365   -0.24413176  -39.00793973
     atom   21 type  1   force =    -0.17649054   -0.28023168   -0.05173632
     atom   22 type  2   force =     0.98032535   -2.21060153   38.07630485
     atom   23 type  2   force =     0.04450121    0.47826364  -38.90449957
     atom   24 type  1   force =    -0.17538807    3.21090497    0.91997136
     atom   25 type  2   force =     3.34559250    1.45817577   37.42038380
     atom   26 type  2   force =     0.00106136    0.14103241  -38.27494890
     atom   27 type  1   force =     0.41156885    0.94144379   -3.02373353
     atom   28 type  2   force =     0.10690905    1.89324046   37.81516982
     atom   29 type  2   force =    -0.22675383   -0.08425185  -38.02657485
     atom   30 type  1   force =    -0.22157112   -1.94273849   -1.84890428
     atom   31 type  2   force =     1.40201765   -0.28642676   37.18173009
     atom   32 type  2   force =    -0.33971552   -0.12949531  -39.15107197
     atom   33 type  1   force =     2.37261300   -1.82952566   -1.21788296
     atom   34 type  2   force =     0.83119327   -4.94483737   37.12366238
     atom   35 type  2   force =    -0.13556022    0.19736962  -38.68124831
     atom   36 type  3   force =     1.84082960   -0.98839988   47.75757150
     The local contribution  to forces
     atom    1 type  1   force =     0.56654418   -0.91358846   -4.10219800
     atom    2 type  2   force =     5.31760541   -3.44280855  -35.46337022
     atom    3 type  2   force =     0.41001005   -0.18871282   36.91247510
     atom    4 type  1   force =     0.25502737   -1.18062150    0.43470191
     atom    5 type  2   force =     1.21148274   -1.84768885  -38.27878593
     atom    6 type  2   force =    -0.20149895    0.32128563   38.32515436
     atom    7 type  1   force =     3.02101283    3.27768201   -1.39402555
     atom    8 type  2   force =     1.13541183    0.27419967  -36.98521630
     atom    9 type  2   force =    -0.23821050    0.19310471   38.28208097
     atom   10 type  1   force =     2.59735210    1.61292481   -0.22455993
     atom   11 type  2   force =     1.33402992    2.27986688  -38.41518257
     atom   12 type  2   force =    -0.11008080   -0.42530970   38.36347354
     atom   13 type  1   force =    -1.22671056   -1.63825743   -0.93368418
     atom   14 type  2   force =     0.02746475   -0.17615363  -37.98785266
     atom   15 type  2   force =    -0.16853035    0.02543456   37.24842894
     atom   16 type  1   force =     0.02676502   -4.12456588    0.26636142
     atom   17 type  2   force =    -1.02285263   -1.78791573  -37.51401778
     atom   18 type  2   force =     0.09221702    0.44061183   38.80718078
     atom   19 type  1   force =    -2.96319676    2.81522614    0.41335397
     atom   20 type  2   force =    -0.19329950    0.26007017   38.76278952
     atom   21 type  1   force =     0.17529170    0.25560563    0.05020464
     atom   22 type  2   force =    -0.98084124    2.20657053  -37.83931911
     atom   23 type  2   force =    -0.04945925   -0.46455892   38.66144904
     atom   24 type  1   force =     0.17588578   -3.22200402   -0.94984793
     atom   25 type  2   force =    -3.31810685   -1.43316691  -37.19802192
     atom   26 type  2   force =    -0.00733417   -0.13168561   38.03127028
     atom   27 type  1   force =    -0.40979963   -0.94675864    3.01979934
     atom   28 type  2   force =    -0.10175062   -1.86987276  -37.56467939
     atom   29 type  2   force =     0.22662066    0.08789223   37.77860096
     atom   30 type  1   force =     0.21250241    1.90201189    1.83898852
     atom   31 type  2   force =    -1.39434087    0.28716570  -36.93432652
     atom   32 type  2   force =     0.33584224    0.14737336   38.90303778
     atom   33 type  1   force =    -2.36682816    1.82982530    1.20883216
     atom   34 type  2   force =    -0.82436474    4.84395261  -36.94359207
     atom   35 type  2   force =     0.13334830   -0.18111685   38.44317759
     atom   36 type  3   force =    -0.92316375    0.42426461  -46.78007970
     The core correction contribution to forces
     atom    1 type  1   force =     0.00000000    0.00000000    0.00000000
     atom    2 type  2   force =    -0.02025030    0.01135460   -0.00145846
     atom    3 type  2   force =     0.00066744    0.00005195   -0.02096678
     atom    4 type  1   force =     0.00000000    0.00000000    0.00000000
     atom    5 type  2   force =    -0.00062643    0.00184204    0.02022009
     atom    6 type  2   force =     0.00049953   -0.00070562   -0.02113270
     atom    7 type  1   force =     0.00000000    0.00000000    0.00000000
     atom    8 type  2   force =    -0.00002407    0.00072959    0.02054017
     atom    9 type  2   force =     0.00024940    0.00063731   -0.02099785
     atom   10 type  1   force =     0.00000000    0.00000000    0.00000000
     atom   11 type  2   force =    -0.00050646   -0.00056936    0.02080695
     atom   12 type  2   force =     0.00124999    0.00147856   -0.02078065
     atom   13 type  1   force =     0.00000000    0.00000000    0.00000000
     atom   14 type  2   force =    -0.00052242    0.00004001    0.02067849
     atom   15 type  2   force =     0.00039492    0.00019708   -0.02060447
     atom   16 type  1   force =     0.00000000    0.00000000    0.00000000
     atom   17 type  2   force =     0.00003274    0.00139290    0.02028106
     atom   18 type  2   force =    -0.00000226   -0.00068434   -0.02089774
     atom   19 type  1   force =     0.00000000    0.00000000    0.00000000
     atom   20 type  2   force =     0.00013274    0.00083487   -0.02117357
     atom   21 type  1   force =     0.00000000    0.00000000    0.00000000
     atom   22 type  2   force =    -0.00014147   -0.00043082    0.02068307
     atom   23 type  2   force =    -0.00063930    0.00128140   -0.02087475
     atom   24 type  1   force =     0.00000000    0.00000000    0.00000000
     atom   25 type  2   force =    -0.00081288   -0.00052916    0.02138219
     atom   26 type  2   force =    -0.00025074    0.00054097   -0.02056213
     atom   27 type  1   force =     0.00000000    0.00000000    0.00000000
     atom   28 type  2   force =     0.00039641    0.00189468    0.02104984
     atom   29 type  2   force =    -0.00044175   -0.00060912   -0.02055032
     atom   30 type  1   force =     0.00000000    0.00000000    0.00000000
     atom   31 type  2   force =     0.00044018    0.00011625    0.02059058
     atom   32 type  2   force =    -0.00022448    0.00073461   -0.02107096
     atom   33 type  1   force =     0.00000000    0.00000000    0.00000000
     atom   34 type  2   force =     0.00031688   -0.00303269    0.01902132
     atom   35 type  2   force =    -0.00000179    0.00096745   -0.02084537
     atom   36 type  3   force =     0.01165008   -0.00717806    0.00941558
     The Hubbard contrib.    to forces
     atom    1 type  1   force =     0.00000000    0.00000000    0.00000000
     atom    2 type  2   force =     0.00000000    0.00000000    0.00000000
     atom    3 type  2   force =     0.00000000    0.00000000    0.00000000
     atom    4 type  1   force =     0.00000000    0.00000000    0.00000000
     atom    5 type  2   force =     0.00000000    0.00000000    0.00000000
     atom    6 type  2   force =     0.00000000    0.00000000    0.00000000
     atom    7 type  1   force =     0.00000000    0.00000000    0.00000000
     atom    8 type  2   force =     0.00000000    0.00000000    0.00000000
     atom    9 type  2   force =     0.00000000    0.00000000    0.00000000
     atom   10 type  1   force =     0.00000000    0.00000000    0.00000000
     atom   11 type  2   force =     0.00000000    0.00000000    0.00000000
     atom   12 type  2   force =     0.00000000    0.00000000    0.00000000
     atom   13 type  1   force =     0.00000000    0.00000000    0.00000000
     atom   14 type  2   force =     0.00000000    0.00000000    0.00000000
     atom   15 type  2   force =     0.00000000    0.00000000    0.00000000
     atom   16 type  1   force =     0.00000000    0.00000000    0.00000000
     atom   17 type  2   force =     0.00000000    0.00000000    0.00000000
     atom   18 type  2   force =     0.00000000    0.00000000    0.00000000
     atom   19 type  1   force =     0.00000000    0.00000000    0.00000000
     atom   20 type  2   force =     0.00000000    0.00000000    0.00000000
     atom   21 type  1   force =     0.00000000    0.00000000    0.00000000
     atom   22 type  2   force =     0.00000000    0.00000000    0.00000000
     atom   23 type  2   force =     0.00000000    0.00000000    0.00000000
     atom   24 type  1   force =     0.00000000    0.00000000    0.00000000
     atom   25 type  2   force =     0.00000000    0.00000000    0.00000000
     atom   26 type  2   force =     0.00000000    0.00000000    0.00000000
     atom   27 type  1   force =     0.00000000    0.00000000    0.00000000
     atom   28 type  2   force =     0.00000000    0.00000000    0.00000000
     atom   29 type  2   force =     0.00000000    0.00000000    0.00000000
     atom   30 type  1   force =     0.00000000    0.00000000    0.00000000
     atom   31 type  2   force =     0.00000000    0.00000000    0.00000000
     atom   32 type  2   force =     0.00000000    0.00000000    0.00000000
     atom   33 type  1   force =     0.00000000    0.00000000    0.00000000
     atom   34 type  2   force =     0.00000000    0.00000000    0.00000000
     atom   35 type  2   force =     0.00000000    0.00000000    0.00000000
     atom   36 type  3   force =     0.00000000    0.00000000    0.00000000
     The SCF correction term to forces
     atom    1 type  1   force =    -0.00016445    0.00010986   -0.00091535
     atom    2 type  2   force =    -0.00008524    0.00010391   -0.00039098
     atom    3 type  2   force =     0.00002052    0.00006434   -0.00022870
     atom    4 type  1   force =     0.00019373   -0.00030174   -0.00072594
     atom    5 type  2   force =    -0.00006194   -0.00005351   -0.00026112
     atom    6 type  2   force =     0.00004410   -0.00014739   -0.00013316
     atom    7 type  1   force =    -0.00010611    0.00003554   -0.00076041
     atom    8 type  2   force =     0.00000957   -0.00005733   -0.00033707
     atom    9 type  2   force =     0.00005358    0.00003093   -0.00005750
     atom   10 type  1   force =     0.00010123   -0.00008422   -0.00109088
     atom   11 type  2   force =    -0.00011830    0.00000698   -0.00034236
     atom   12 type  2   force =     0.00008493    0.00007907   -0.00008502
     atom   13 type  1   force =    -0.00009843   -0.00004340   -0.00063869
     atom   14 type  2   force =    -0.00013110    0.00007159   -0.00027102
     atom   15 type  2   force =    -0.00003268    0.00006715   -0.00011452
     atom   16 type  1   force =    -0.00014294   -0.00010909   -0.00053778
     atom   17 type  2   force =     0.00001139   -0.00006999   -0.00029876
     atom   18 type  2   force =    -0.00005526   -0.00013214   -0.00009526
     atom   19 type  1   force =    -0.00005220   -0.00004623   -0.00058109
     atom   20 type  2   force =    -0.00002196   -0.00002831   -0.00000369
     atom   21 type  1   force =    -0.00012784    0.00022588   -0.00070259
     atom   22 type  2   force =    -0.00002626    0.00006960   -0.00030150
     atom   23 type  2   force =    -0.00005440    0.00009712   -0.00004715
     atom   24 type  1   force =     0.00024162    0.00021017   -0.00116064
     atom   25 type  2   force =     0.00020274    0.00004009   -0.00036684
     atom   26 type  2   force =    -0.00000682    0.00009860   -0.00012053
     atom   27 type  1   force =    -0.00004804   -0.00024089   -0.00066765
     atom   28 type  2   force =     0.00004559    0.00004305   -0.00040574
     atom   29 type  2   force =     0.00001493   -0.00014590   -0.00007570
     atom   30 type  1   force =     0.00008616    0.00013189   -0.00076442
     atom   31 type  2   force =     0.00004470   -0.00004242   -0.00033543
     atom   32 type  2   force =    -0.00003095   -0.00001015   -0.00002614
     atom   33 type  1   force =     0.00010695    0.00007286   -0.00070978
     atom   34 type  2   force =     0.00013985   -0.00005673   -0.00049024
     atom   35 type  2   force =    -0.00004031    0.00005330   -0.00008055
     atom   36 type  3   force =     0.00032523   -0.00006207   -0.00079497

     Total force =     0.197967     Total SCF correction =     0.003250
     Energy error            =      4.6E-02 Ry
     Gradient error          =      1.1E-01 Ry/Bohr

     number of scf cycles    =   2
     number of bfgs steps    =   1

     energy             old  =   -2246.1955502409 Ry
     energy             new  =   -2246.2417377449 Ry

     CASE: energy            _new < energy            _old


     WARNING: bfgs curvature condition failed, Theta= 0.955
     new trust radius        =       0.1558253870 bohr
     new conv_thr            =       0.0000001074 Ry


ATOMIC_POSITIONS (angstrom)
Mo            6.5740392200        1.7955958569        2.8219134352
S             8.2716182756        0.7473312837        4.4758447240
S             8.1779526892        0.8219068482        1.2717778440
Mo            8.0998671301        4.4902084416        2.7159984036
S             6.4968609595        3.7206496571        4.3408688877
S             6.5533300710        3.5171424241        1.1198032779
Mo            6.4935455019        7.2051286553        2.6659550606
S             8.0833390420        6.3373139348        4.2614687865
S             8.0923236621        6.3111941714        1.0927836839
Mo            8.1385066124        9.8943933201        2.7891208395
S             6.4997748839        8.9405143876        4.3752262223
S             6.6110463095        9.0480483366        1.1423995628
Mo            3.4342076530        1.7519921111        2.7616026431
S             4.9757408145        0.8180322480        4.3591277146
S             5.0479272926        0.8474350908        1.2144534394
Mo            4.9768375596        4.5268478666        2.6376393108
S             3.4349771184        3.6715131498        4.2829390537
S             3.4367200245        3.5441959481        1.0695816319
Mo            3.4589542836        7.2046592440        2.6283999761
S             4.9863138755        6.3227736249        1.0375532664
Mo            5.0096340226        9.9034541397        2.7447884560
S             3.4686290899        8.9413956945        4.3222908222
S             3.4119448806        9.0650318954        1.1019999392
Mo            0.2927061372        1.7596758641        2.8069752767
S             1.8970264192        0.8260723749        4.3744902561
S             1.8506131080        0.8532841169        1.2051107433
Mo            1.8581974510        4.4952754756        2.6697906500
S             0.2736295123        3.6530306894        4.3337603216
S             0.2364984797        3.5322137168        1.1673125991
Mo            0.2724287930        7.2098367981        2.6864670146
S             1.9019535105        6.3166507375        4.2388714290
S             1.8530915094        6.3176642893        1.0516513700
Mo            1.8560268669        9.9388314113        2.7641895265
S             0.2989139127        9.0526911149        4.3935730305
S             0.2694772843        9.0510421947        1.1646138034
O             9.3344530559       10.9768192967        5.4359798174



     Writing config-only to output data dir ./MoS2-V-O.save/
     NEW-OLD atomic charge density approx. for the potential

     negative rho (up, down):  1.601E-04 0.000E+00

     total cpu time spent up to now is      210.9 secs

     Self-consistent Calculation

     iteration #  1     ecut=    80.00 Ry     beta= 0.70
     Davidson diagonalization with overlap
     ethr =  1.00E-06,  avg # of iterations = 10.0

     negative rho (up, down):  1.292E-04 0.000E+00

     total cpu time spent up to now is      224.4 secs

     total energy              =   -2246.27739044 Ry
     estimated scf accuracy    <       0.01450605 Ry

     iteration #  2     ecut=    80.00 Ry     beta= 0.70
     Davidson diagonalization with overlap
     ethr =  4.65E-06,  avg # of iterations =  5.0

     negative rho (up, down):  1.599E-04 0.000E+00

     total cpu time spent up to now is      237.6 secs

     total energy              =   -2246.28032103 Ry
     estimated scf accuracy    <       0.00641467 Ry

     iteration #  3     ecut=    80.00 Ry     beta= 0.70
     Davidson diagonalization with overlap
     ethr =  2.06E-06,  avg # of iterations =  4.0

     negative rho (up, down):  1.600E-04 0.000E+00

     total cpu time spent up to now is      251.6 secs

     total energy              =   -2246.28088225 Ry
     estimated scf accuracy    <       0.00036870 Ry

     iteration #  4     ecut=    80.00 Ry     beta= 0.70
     Davidson diagonalization with overlap
     ethr =  1.18E-07,  avg # of iterations =  5.0

     negative rho (up, down):  1.683E-04 0.000E+00

     total cpu time spent up to now is      270.8 secs

     total energy              =   -2246.28092653 Ry
     estimated scf accuracy    <       0.00003728 Ry

     iteration #  5     ecut=    80.00 Ry     beta= 0.70
     Davidson diagonalization with overlap
     ethr =  1.19E-08,  avg # of iterations =  4.0

     negative rho (up, down):  1.830E-04 0.000E+00

     total cpu time spent up to now is      293.0 secs

     total energy              =   -2246.28093198 Ry
     estimated scf accuracy    <       0.00000577 Ry

     iteration #  6     ecut=    80.00 Ry     beta= 0.70
     Davidson diagonalization with overlap
     ethr =  1.85E-09,  avg # of iterations =  5.0

     negative rho (up, down):  1.919E-04 0.000E+00

     total cpu time spent up to now is      305.9 secs

     total energy              =   -2246.28093357 Ry
     estimated scf accuracy    <       0.00000090 Ry

     iteration #  7     ecut=    80.00 Ry     beta= 0.70
     Davidson diagonalization with overlap
     ethr =  2.90E-10,  avg # of iterations =  2.0

     negative rho (up, down):  2.018E-04 0.000E+00

     total cpu time spent up to now is      320.0 secs

     total energy              =   -2246.28093366 Ry
     estimated scf accuracy    <       0.00000014 Ry

     iteration #  8     ecut=    80.00 Ry     beta= 0.70
     Davidson diagonalization with overlap
     ethr =  4.47E-11,  avg # of iterations =  5.0

     negative rho (up, down):  2.077E-04 0.000E+00

     total cpu time spent up to now is      324.0 secs

     End of self-consistent calculation

          k = 0.0000 0.0000 0.0000 (105382 PWs)   bands (ev):

   -63.0554 -62.9605 -62.9569 -62.9340 -62.8967 -62.8807 -62.8730 -62.8667
   -62.8473 -62.8352 -62.7932 -62.7341 -37.3441 -37.3051 -37.2621 -37.2398
   -37.2044 -37.1918 -37.1825 -37.1642 -37.1477 -37.1406 -37.1300 -37.1223
   -37.1062 -37.0985 -37.0732 -37.0643 -37.0579 -37.0520 -37.0420 -37.0378
   -37.0331 -37.0206 -37.0113 -37.0089 -36.9996 -36.9746 -36.9716 -36.9660
   -36.9390 -36.9130 -36.9099 -36.8825 -36.8706 -36.8548 -36.8258 -36.7750
   -21.7947 -15.9965 -15.2794 -15.1778 -15.0554 -14.9313 -14.8150 -14.6296
   -14.5519 -14.5275 -14.4967 -14.4526 -14.4298 -14.3816 -14.2733 -14.2409
   -14.2049 -14.1867 -14.1097 -14.0174 -13.9464 -13.9109 -13.8778 -13.6778
    -8.1593  -7.8085  -7.6289  -7.4892  -7.4447  -7.3617  -7.3371  -7.2737
    -7.2271  -7.1277  -6.8936  -6.8829  -6.8499  -6.7454  -6.7140  -6.6248
    -6.5526  -6.4810  -6.4434  -6.3380  -6.1265  -6.0916  -5.9631  -5.9170
    -5.8946  -5.8435  -5.8089  -5.7661  -5.7478  -5.7235  -5.6875  -5.6351
    -5.5728  -5.5144  -5.4255  -5.3658  -5.3274  -5.1697  -5.0892  -5.0750
    -5.0203  -5.0122  -4.9175  -4.7377  -4.7227  -4.6069  -4.4678  -4.3941
    -4.3515  -4.3054  -4.2369  -4.1444  -4.0226  -3.9902  -3.8793  -3.8516
    -3.8247  -3.7725  -3.7017  -3.6525  -3.6027  -3.5792  -3.5602  -3.5155
    -3.4622  -3.4403  -3.2757  -3.2533  -3.0549  -3.0061  -2.9457  -2.8699
    -2.8390  -2.8247  -2.8057  -2.7416  -2.7220  -2.6647  -2.4679  -2.3533
    -2.2110  -2.0706  -2.0108  -1.8820  -1.2035  -0.8345  -0.7702  -0.2312
    -0.1947  -0.1429  -0.0888   0.0596   0.0977   0.1525   0.1649   0.2154
     0.2419   0.2868   0.3615   0.4575   0.4781   0.5099   0.5223   0.5604
     0.6308   0.6593   0.6921   0.7069   0.7961   0.8141   0.8751   0.9076
     0.9418   0.9888   1.2151

     the Fermi energy is    -1.5427 ev

!    total energy              =   -2246.28093375 Ry
     estimated scf accuracy    <       0.00000003 Ry
     smearing contrib. (-TS)   =      -0.00002255 Ry
     internal energy E=F+TS    =   -2246.28091120 Ry

     The total energy is F=E-TS. E is the sum of the following terms:
     one-electron contribution =  -18450.69681706 Ry
     hartree contribution      =    9213.50003862 Ry
     xc contribution           =    -392.09991096 Ry
     ewald contribution        =    7392.87823564 Ry
     one-center paw contrib.   =      -9.86245744 Ry

     convergence has been achieved in   8 iterations

     negative rho (up, down):  2.077E-04 0.000E+00

     Forces acting on atoms (cartesian axes, Ry/au):

     atom    1 type  1   force =     0.00157168   -0.00634585    0.01403806
     atom    2 type  2   force =     0.05320507   -0.03701594   -0.01706483
     atom    3 type  2   force =    -0.01523974    0.01030442   -0.01111245
     atom    4 type  1   force =     0.00302490    0.00003319    0.00329069
     atom    5 type  2   force =    -0.00158669   -0.00020241   -0.00416326
     atom    6 type  2   force =    -0.00301697    0.00476771   -0.00027525
     atom    7 type  1   force =     0.00112261   -0.00596005    0.00371665
     atom    8 type  2   force =     0.00295562   -0.00523130    0.00718947
     atom    9 type  2   force =     0.00763489    0.00206882    0.00246041
     atom   10 type  1   force =     0.00353127    0.00078001   -0.00387256
     atom   11 type  2   force =     0.00502810   -0.00257499   -0.01122493
     atom   12 type  2   force =    -0.01352482   -0.00568738   -0.00872300
     atom   13 type  1   force =     0.00426619    0.00368882   -0.00242094
     atom   14 type  2   force =     0.00507676    0.00283428    0.00001466
     atom   15 type  2   force =    -0.00123356    0.00026091   -0.00833474
     atom   16 type  1   force =     0.00181018    0.00643002    0.00240691
     atom   17 type  2   force =     0.00466068    0.00073376    0.00230315
     atom   18 type  2   force =    -0.00066816    0.00110679    0.00593667
     atom   19 type  1   force =     0.00214288   -0.00656078    0.00208236
     atom   20 type  2   force =     0.00193521   -0.00335789   -0.00441321
     atom   21 type  1   force =    -0.00169702    0.00216228    0.00284192
     atom   22 type  2   force =    -0.00198138   -0.00197657   -0.00358789
     atom   23 type  2   force =     0.00259317   -0.00180648    0.00172639
     atom   24 type  1   force =     0.00535530   -0.00083991   -0.00766251
     atom   25 type  2   force =     0.01686195    0.01821658   -0.01769221
     atom   26 type  2   force =    -0.00225278   -0.00180504   -0.01088434
     atom   27 type  1   force =     0.00017085    0.00161170    0.00459029
     atom   28 type  2   force =    -0.00072309   -0.00443143   -0.00450842
     atom   29 type  2   force =     0.00335745    0.00965496   -0.00989732
     atom   30 type  1   force =    -0.00315402    0.00152934    0.00745743
     atom   31 type  2   force =     0.00057607   -0.00000090    0.00788621
     atom   32 type  2   force =    -0.00229438    0.00280963    0.00334355
     atom   33 type  1   force =     0.00257115    0.00141272    0.00259903
     atom   34 type  2   force =    -0.00000330   -0.04156548   -0.03537624
     atom   35 type  2   force =    -0.00071698    0.00401211   -0.00210497
     atom   36 type  3   force =    -0.08135908    0.05094434    0.08943525
     The non-local contrib.  to forces
     atom    1 type  1   force =    -0.01384154    0.00732042   -0.02473464
     atom    2 type  2   force =     0.30745144   -0.17425293    0.14682657
     atom    3 type  2   force =    -0.01362759   -0.00447076    0.26785572
     atom    4 type  1   force =     0.00427792    0.01115008    0.00365424
     atom    5 type  2   force =     0.00679855   -0.02903739   -0.24812782
     atom    6 type  2   force =    -0.00815218    0.00538118    0.26921745
     atom    7 type  1   force =    -0.01384074    0.00567200   -0.02452275
     atom    8 type  2   force =     0.00311497   -0.00665582   -0.26208607
     atom    9 type  2   force =    -0.00125180   -0.01314372    0.27363564
     atom   10 type  1   force =     0.00002511    0.00738510    0.02224205
     atom   11 type  2   force =     0.01199620    0.00470015   -0.26355489
     atom   12 type  2   force =    -0.02054791   -0.02301715    0.25536905
     atom   13 type  1   force =    -0.01004570    0.02275486   -0.00085561
     atom   14 type  2   force =     0.00776250   -0.00993043   -0.26528441
     atom   15 type  2   force =    -0.00300170   -0.00264805    0.26234791
     atom   16 type  1   force =    -0.00569957    0.03823675   -0.03158784
     atom   17 type  2   force =     0.00014803   -0.02653203   -0.25135949
     atom   18 type  2   force =    -0.00344060    0.00213507    0.26931239
     atom   19 type  1   force =     0.01226142    0.00476135   -0.01673653
     atom   20 type  2   force =    -0.00055818   -0.01950467    0.26189089
     atom   21 type  1   force =    -0.00070567    0.02618593    0.00407545
     atom   22 type  2   force =    -0.00064590    0.00202267   -0.26174385
     atom   23 type  2   force =     0.00830296   -0.01693583    0.26672455
     atom   24 type  1   force =    -0.00904637    0.01482168    0.01289566
     atom   25 type  2   force =     0.01289781    0.00229953   -0.26913480
     atom   26 type  2   force =     0.00408092   -0.00974546    0.25605617
     atom   27 type  1   force =    -0.00420852    0.00615679    0.01092312
     atom   28 type  2   force =    -0.00540741   -0.02796633   -0.27545309
     atom   29 type  2   force =     0.00361961    0.00637294    0.25884052
     atom   30 type  1   force =     0.00889574    0.03548833    0.00775292
     atom   31 type  2   force =    -0.00779384   -0.00001845   -0.25938152
     atom   32 type  2   force =     0.00288178   -0.01428699    0.27229957
     atom   33 type  1   force =     0.00007755    0.00070249    0.00639696
     atom   34 type  2   force =    -0.00300019    0.02232136   -0.25843526
     atom   35 type  2   force =    -0.00064488   -0.01325783    0.26189423
     atom   36 type  3   force =    -1.22723678    0.79335972   -1.10866365
     The ionic contribution  to forces
     atom    1 type  1   force =    -0.36048871    0.70093809    4.55194434
     atom    2 type  2   force =    -5.94562886    3.85494448   34.58503524
     atom    3 type  2   force =    -0.42801416    0.21289407  -37.14286186
     atom    4 type  1   force =    -0.30716421    1.12560713   -0.34758396
     atom    5 type  2   force =    -1.17932995    1.81645881   38.48972420
     atom    6 type  2   force =     0.18090906   -0.32912828  -38.54357787
     atom    7 type  1   force =    -2.98290545   -3.16019297    1.46907839
     atom    8 type  2   force =    -1.12488253   -0.23501118   37.34245469
     atom    9 type  2   force =     0.21628759   -0.20749845  -38.51218258
[...]
     atom   28 type  2   force =    -0.00064489   -0.01308712   -0.27761553
     atom   29 type  2   force =    -0.00012858   -0.00760567    0.26632060
     atom   30 type  1   force =     0.00491450    0.01813951    0.00475667
     atom   31 type  2   force =    -0.00912033   -0.00038425   -0.26699827
     atom   32 type  2   force =     0.00711709   -0.01258158    0.26938758
     atom   33 type  1   force =    -0.00256101    0.00671619    0.00244200
     atom   34 type  2   force =    -0.00212674   -0.00592260   -0.27853437
     atom   35 type  2   force =    -0.00075827   -0.01428766    0.26515250
     atom   36 type  3   force =    -0.01851185   -0.01262200   -2.31949413
     The ionic contribution  to forces
     atom    1 type  1   force =    -1.15193075    1.25702652   -1.26574467
     atom    2 type  2   force =    -0.25648102   -0.05696382   28.70159014
     atom    3 type  2   force =     0.01348003   -0.07645561  -38.15668061
     atom    4 type  1   force =    -0.14531587    1.23003366   -0.73714159
     atom    5 type  2   force =    -1.32274726    2.12639358   37.81867521
     atom    6 type  2   force =     0.16420865   -0.19484613  -38.75084132
     atom    7 type  1   force =    -2.80022816   -2.33647729    1.90960217
     atom    8 type  2   force =    -1.14062876    0.16239095   37.92233741
     atom    9 type  2   force =     0.32407561   -0.01319613  -38.29706799
     atom   10 type  1   force =    -0.47864613   -1.57113676   -1.22220270
     atom   11 type  2   force =    -1.00956718   -2.29709997   37.94865261
     atom   12 type  2   force =     0.10074816    0.22285838  -38.67074317
     atom   13 type  1   force =     0.20405024    1.05050323    1.30223888
     atom   14 type  2   force =    -0.97447102   -0.13373222   37.86601547
     atom   15 type  2   force =    -0.03519111   -0.12615359  -38.26125109
     atom   16 type  1   force =    -0.39452864    3.78344702    1.14701638
     atom   17 type  2   force =     0.81519935    1.45023639   38.03836154
     atom   18 type  2   force =    -0.16197492   -0.24680923  -38.38828453
     atom   19 type  1   force =     2.62550154   -1.99922378    1.80444151
     atom   20 type  2   force =    -0.04055891   -0.03145357  -39.11591398
     atom   21 type  1   force =    -0.53089189   -0.79030281   -0.42914444
     atom   22 type  2   force =     0.44163638   -1.70343135   38.22858328
     atom   23 type  2   force =    -0.18333951    0.20391722  -38.36006639
     atom   24 type  1   force =     0.94644834    0.98347797   -1.80898850
     atom   25 type  2   force =     1.17966571    0.00108412   38.16151958
     atom   26 type  2   force =     0.01103682   -0.08661941  -38.32175484
     atom   27 type  1   force =     0.52341659    0.86926249   -0.42195485
     atom   28 type  2   force =     0.51718806    1.52716724   37.58624168
     atom   29 type  2   force =     0.00736513    0.08231835  -38.42900483
     atom   30 type  1   force =     0.17482824   -1.16879020    0.75149123
     atom   31 type  2   force =     1.28124276    0.15085409   38.05109845
     atom   32 type  2   force =    -0.28076058   -0.02346472  -38.38114936
     atom   33 type  1   force =     1.04113909   -0.98631902    1.41159895
     atom   34 type  2   force =     0.57484097   -1.44882661   38.22088988
     atom   35 type  2   force =     0.08025152    0.06289189  -38.33927714
     atom   36 type  3   force =    -0.11906150    0.12743911   50.48685764
     The local contribution  to forces
     atom    1 type  1   force =     1.14346775   -1.26951234    1.25440732
     atom    2 type  2   force =     0.24966188    0.05307235  -28.98877996
     atom    3 type  2   force =    -0.01147759    0.08709078   37.89941836
     atom    4 type  1   force =     0.14060264   -1.23329232    0.73474869
     atom    5 type  2   force =     1.31834721   -2.10580652  -37.58125461
     atom    6 type  2   force =    -0.16377810    0.19690751   38.50651051
     atom    7 type  1   force =     2.81934279    2.33761977   -1.88283931
     atom    8 type  2   force =     1.13446233   -0.16298095  -37.67547422
     atom    9 type  2   force =    -0.31846402    0.02602562   38.04667392
     atom   10 type  1   force =     0.47828549    1.55486285    1.20693205
     atom   11 type  2   force =     1.00315280    2.29648309  -37.70659758
     atom   12 type  2   force =    -0.09394017   -0.20972676   38.42694691
     atom   13 type  1   force =    -0.20428371   -1.07601926   -1.30446494
     atom   14 type  2   force =     0.97441314    0.13793145  -37.61234402
     atom   15 type  2   force =     0.03606507    0.13587748   38.02111891
     atom   16 type  1   force =     0.39459983   -3.81936696   -1.11220552
     atom   17 type  2   force =    -0.81121146   -1.42686992  -37.80043459
     atom   18 type  2   force =     0.16205068    0.25225438   38.14087348
     atom   19 type  1   force =    -2.64066451    1.99561965   -1.77893484
     atom   20 type  2   force =     0.04128773    0.04399320   38.87502382
     atom   21 type  1   force =     0.53027741    0.76153366    0.42629046
     atom   22 type  2   force =    -0.43695696    1.70226939  -37.98695210
     atom   23 type  2   force =     0.17599093   -0.19102301   38.11470410
     atom   24 type  1   force =    -0.93745993   -0.99011908    1.79037789
     atom   25 type  2   force =    -1.18061415    0.00570292  -37.91027272
     atom   26 type  2   force =    -0.01414899    0.09611727   38.07857869
     atom   27 type  1   force =    -0.51985080   -0.87539927    0.41602998
     atom   28 type  2   force =    -0.51696320   -1.51456362  -37.32994339
     atom   29 type  2   force =    -0.00765189   -0.07486088   38.18275829
     atom   30 type  1   force =    -0.18007283    1.15068408   -0.75461482
     atom   31 type  2   force =    -1.27270867   -0.15156962  -37.80412634
     atom   32 type  2   force =     0.27465377    0.03537958   38.13302856
     atom   33 type  1   force =    -1.03854612    0.97960292   -1.41384667
     atom   34 type  2   force =    -0.57291488    1.45473661  -37.96356323
     atom   35 type  2   force =    -0.07962812   -0.05017128   38.09485680
     atom   36 type  3   force =     0.13747251   -0.11491679  -48.19346623
     The core correction contribution to forces
     atom    1 type  1   force =     0.00000000    0.00000000    0.00000000
     atom    2 type  2   force =    -0.00035086   -0.00028880   -0.00982093
     atom    3 type  2   force =     0.00013538    0.00048128   -0.02133977
     atom    4 type  1   force =     0.00000000    0.00000000    0.00000000
     atom    5 type  2   force =    -0.00036026    0.00096344    0.02069705
     atom    6 type  2   force =     0.00017727   -0.00027458   -0.02084319
     atom    7 type  1   force =     0.00000000    0.00000000    0.00000000
     atom    8 type  2   force =    -0.00026083    0.00029789    0.02096210
     atom    9 type  2   force =     0.00058785    0.00074701   -0.02102742
     atom   10 type  1   force =     0.00000000    0.00000000    0.00000000
     atom   11 type  2   force =    -0.00012343   -0.00019875    0.02093198
     atom   12 type  2   force =     0.00058368    0.00094038   -0.02085010
     atom   13 type  1   force =     0.00000000    0.00000000    0.00000000
     atom   14 type  2   force =    -0.00001168   -0.00014956    0.02137132
     atom   15 type  2   force =     0.00005572    0.00043407   -0.02058212
     atom   16 type  1   force =     0.00000000    0.00000000    0.00000000
     atom   17 type  2   force =     0.00041335    0.00105245    0.02057051
     atom   18 type  2   force =    -0.00011162   -0.00020057   -0.02090011
     atom   19 type  1   force =     0.00000000    0.00000000    0.00000000
     atom   20 type  2   force =     0.00008460    0.00060363   -0.02121174
     atom   21 type  1   force =     0.00000000    0.00000000    0.00000000
     atom   22 type  2   force =     0.00004782   -0.00032737    0.02073941
     atom   23 type  2   force =    -0.00069836    0.00096411   -0.02089437
     atom   24 type  1   force =     0.00000000    0.00000000    0.00000000
     atom   25 type  2   force =    -0.00011921    0.00022037    0.02132246
     atom   26 type  2   force =    -0.00018131    0.00037022   -0.02075844
     atom   27 type  1   force =     0.00000000    0.00000000    0.00000000
     atom   28 type  2   force =     0.00000783    0.00084265    0.02146508
     atom   29 type  2   force =    -0.00003893    0.00025496   -0.02079344
     atom   30 type  1   force =     0.00000000    0.00000000    0.00000000
     atom   31 type  2   force =     0.00044257    0.00028413    0.02097519
     atom   32 type  2   force =    -0.00064702    0.00064924   -0.02100533
     atom   33 type  1   force =     0.00000000    0.00000000    0.00000000
     atom   34 type  2   force =     0.00011056    0.00024063    0.02159863
     atom   35 type  2   force =     0.00008112    0.00085192   -0.02089618
     atom   36 type  3   force =     0.00019531    0.00011671    0.02461483
     The Hubbard contrib.    to forces
     atom    1 type  1   force =     0.00000000    0.00000000    0.00000000
     atom    2 type  2   force =     0.00000000    0.00000000    0.00000000
     atom    3 type  2   force =     0.00000000    0.00000000    0.00000000
     atom    4 type  1   force =     0.00000000    0.00000000    0.00000000
     atom    5 type  2   force =     0.00000000    0.00000000    0.00000000
     atom    6 type  2   force =     0.00000000    0.00000000    0.00000000
     atom    7 type  1   force =     0.00000000    0.00000000    0.00000000
     atom    8 type  2   force =     0.00000000    0.00000000    0.00000000
     atom    9 type  2   force =     0.00000000    0.00000000    0.00000000
     atom   10 type  1   force =     0.00000000    0.00000000    0.00000000
     atom   11 type  2   force =     0.00000000    0.00000000    0.00000000
     atom   12 type  2   force =     0.00000000    0.00000000    0.00000000
     atom   13 type  1   force =     0.00000000    0.00000000    0.00000000
     atom   14 type  2   force =     0.00000000    0.00000000    0.00000000
     atom   15 type  2   force =     0.00000000    0.00000000    0.00000000
     atom   16 type  1   force =     0.00000000    0.00000000    0.00000000
     atom   17 type  2   force =     0.00000000    0.00000000    0.00000000
     atom   18 type  2   force =     0.00000000    0.00000000    0.00000000
     atom   19 type  1   force =     0.00000000    0.00000000    0.00000000
     atom   20 type  2   force =     0.00000000    0.00000000    0.00000000
     atom   21 type  1   force =     0.00000000    0.00000000    0.00000000
     atom   22 type  2   force =     0.00000000    0.00000000    0.00000000
     atom   23 type  2   force =     0.00000000    0.00000000    0.00000000
     atom   24 type  1   force =     0.00000000    0.00000000    0.00000000
     atom   25 type  2   force =     0.00000000    0.00000000    0.00000000
     atom   26 type  2   force =     0.00000000    0.00000000    0.00000000
     atom   27 type  1   force =     0.00000000    0.00000000    0.00000000
     atom   28 type  2   force =     0.00000000    0.00000000    0.00000000
     atom   29 type  2   force =     0.00000000    0.00000000    0.00000000
     atom   30 type  1   force =     0.00000000    0.00000000    0.00000000
     atom   31 type  2   force =     0.00000000    0.00000000    0.00000000
     atom   32 type  2   force =     0.00000000    0.00000000    0.00000000
     atom   33 type  1   force =     0.00000000    0.00000000    0.00000000
     atom   34 type  2   force =     0.00000000    0.00000000    0.00000000
     atom   35 type  2   force =     0.00000000    0.00000000    0.00000000
     atom   36 type  3   force =     0.00000000    0.00000000    0.00000000
     The SCF correction term to forces
     atom    1 type  1   force =    -0.00004097    0.00002635   -0.00001989
     atom    2 type  2   force =    -0.00002494    0.00001460   -0.00002510
     atom    3 type  2   force =    -0.00000997   -0.00000114   -0.00001624
     atom    4 type  1   force =    -0.00003423    0.00002168   -0.00003921
     atom    5 type  2   force =    -0.00001914    0.00000514   -0.00002549
     atom    6 type  2   force =    -0.00000837    0.00000919    0.00001213
     atom    7 type  1   force =    -0.00000601   -0.00002506   -0.00004976
     atom    8 type  2   force =    -0.00001610   -0.00001687   -0.00002508
     atom    9 type  2   force =    -0.00000070    0.00000078   -0.00001470
     atom   10 type  1   force =    -0.00001568   -0.00003376   -0.00008878
     atom   11 type  2   force =    -0.00001927   -0.00000411   -0.00002414
     atom   12 type  2   force =    -0.00000677   -0.00000598   -0.00000952
     atom   13 type  1   force =     0.00002702    0.00002316   -0.00002718
     atom   14 type  2   force =     0.00000435    0.00001339   -0.00002099
     atom   15 type  2   force =     0.00000283   -0.00000492    0.00000342
     atom   16 type  1   force =     0.00000548    0.00000739   -0.00001786
     atom   17 type  2   force =     0.00002101    0.00000880   -0.00001878
     atom   18 type  2   force =     0.00000698    0.00001812    0.00000211
     atom   19 type  1   force =     0.00001379   -0.00001939   -0.00007558
     atom   20 type  2   force =    -0.00000478   -0.00000504   -0.00000680
     atom   21 type  1   force =    -0.00001021   -0.00000133   -0.00005420
     atom   22 type  2   force =     0.00001509    0.00000746   -0.00002386
     atom   23 type  2   force =     0.00000234   -0.00000485   -0.00002070
     atom   24 type  1   force =     0.00001428    0.00003332   -0.00006405
     atom   25 type  2   force =     0.00002490    0.00000576   -0.00002009
     atom   26 type  2   force =     0.00000733   -0.00001085   -0.00001639
     atom   27 type  1   force =     0.00001482    0.00001977   -0.00003416
     atom   28 type  2   force =     0.00000231    0.00001688   -0.00002383
     atom   29 type  2   force =     0.00000440    0.00001587   -0.00000815
     atom   30 type  1   force =     0.00001224   -0.00003369   -0.00008397
     atom   31 type  2   force =     0.00000460   -0.00001932   -0.00002437
     atom   32 type  2   force =     0.00000029    0.00000239   -0.00002486
     atom   33 type  1   force =     0.00001971   -0.00001144   -0.00006983
     atom   34 type  2   force =     0.00000583   -0.00000905   -0.00002559
     atom   35 type  2   force =     0.00000431   -0.00001118   -0.00003022
     atom   36 type  3   force =    -0.00003353    0.00001612    0.00000066

     Total force =     0.005825     Total SCF correction =     0.000260
     Energy error            =      7.7E-05 Ry
     Gradient error          =      2.0E-03 Ry/Bohr

     bfgs converged in  25 scf cycles and  24 bfgs steps
     (criteria: energy <  1.0E-04 Ry, force <  1.0E-02 Ry/Bohr)

     End of BFGS Geometry Optimization

     Final energy             =   -2246.4498537336 Ry

     File ./MoS2-V-O.bfgs deleted, as requested
Begin final coordinates

ATOMIC_POSITIONS (angstrom)
Mo            6.5766833436        1.7554917775        2.7488017182
S             8.1701339444        0.8215481054        4.2727686346
S             8.1764349891        0.8235225881        1.1849077372
Mo            8.1606537345        4.4714482930        2.7153980231
S             6.5568208975        3.6495009349        4.3179906673
S             6.5868995107        3.5595753312        1.1049097574
Mo            6.5490769190        7.1596606017        2.6726846529
S             8.1284285614        6.2840675291        4.3019896713
S             8.1762133610        6.3064489068        1.1167920528
Mo            8.1739792411        9.8834269093        2.7512936669
S             6.5602132466        8.9225302575        4.3253951360
S             6.6150465513        8.9939666320        1.1176963678
Mo            3.4610763550        1.7238976783        2.7594633892
S             5.0323645001        0.7937413883        4.3426665411
S             5.0224881308        0.8115108501        1.1617568678
Mo            5.0325084281        4.5234251938        2.6611855930
S             3.5026128431        3.6389278864        4.3099947213
S             3.4742550508        3.5385069713        1.1178501501
Mo            3.5114883744        7.1579649986        2.6674287142
S             5.0329146611        6.2928349193        1.0436267333
Mo            5.0331381879        9.8830306498        2.7274545034
S             3.5047233943        8.9250939668        4.3210595626
S             3.4344301275        9.0060609127        1.1268570365
Mo            0.3245510236        1.7414902741        2.7508149147
S             1.8843471679        0.8271439825        4.3655738206
S             1.8950449859        0.8130396133        1.1654920415
Mo            1.9028710524        4.4737984607        2.7126686270
S             0.3064524971        3.5867303884        4.3221905935
S             0.3058916311        3.5551910586        1.1370512256
Mo            0.3114179083        7.1975466972        2.7330460477
S             1.9466849338        6.2838053417        4.3004691584
S             1.8907649389        6.3019550929        1.1115619539
Mo            1.8868368449        9.9147030290        2.7663733981
S             0.3023885353        9.0014495002        4.3609613211
S             0.3165680433        9.0221502199        1.1576358893
O             8.1827030963       11.7646594701        5.7725119302
End final coordinates



     Writing all to output data dir ./MoS2-V-O.save/
 
     init_run     :      4.68s CPU      5.19s WALL (       1 calls)
     electrons    :   2420.59s CPU   2762.42s WALL (      25 calls)
     update_pot   :     73.65s CPU     79.33s WALL (      24 calls)
     forces       :     69.21s CPU     81.11s WALL (      25 calls)

     Called by init_run:
     wfcinit      :      0.48s CPU      0.54s WALL (       1 calls)
     potinit      :      2.44s CPU      2.69s WALL (       1 calls)
     hinit0       :      0.44s CPU      0.47s WALL (       1 calls)

     Called by electrons:
     c_bands      :    342.00s CPU    350.67s WALL (     239 calls)
     sum_band     :    141.94s CPU    191.07s WALL (     239 calls)
     v_of_rho     :    241.65s CPU    299.21s WALL (     255 calls)
     newd         :     80.43s CPU    125.03s WALL (     255 calls)
     PAW_pot      :     10.14s CPU     10.18s WALL (     279 calls)
     mix_rho      :   1629.85s CPU   1815.01s WALL (     239 calls)

     Called by c_bands:
     init_us_2    :      5.46s CPU      5.87s WALL (     503 calls)
     init_us_2:cp :      5.46s CPU      5.87s WALL (     503 calls)
     regterg      :    323.95s CPU    332.16s WALL (     239 calls)

     Called by *egterg:
     rdiaghg      :     21.85s CPU     22.08s WALL (    1240 calls)
     h_psi        :    210.43s CPU    212.33s WALL (    1274 calls)
     s_psi        :     20.02s CPU     20.11s WALL (    1274 calls)
     g_psi        :      1.01s CPU      1.02s WALL (    1034 calls)

     Called by h_psi:
     h_psi:calbec :     23.08s CPU     23.23s WALL (    1274 calls)
     vloc_psi     :    164.77s CPU    166.38s WALL (    1274 calls)
     add_vuspsi   :     19.96s CPU     20.08s WALL (    1274 calls)

     General routines
     calbec       :     33.72s CPU     33.94s WALL (    1637 calls)
     fft          :    165.89s CPU    189.62s WALL (   17013 calls)
     ffts         :    726.27s CPU    904.90s WALL (  400661 calls)
     fftw         :    106.21s CPU    107.17s WALL (  145622 calls)
     interpolate  :      3.16s CPU      3.64s WALL (     255 calls)
 
     Parallel routines
 
     PWSCF        :  42m59.26s CPU  49m 4.89s WALL

 
   This run was terminated on:   0:37:16   2Nov2023            

=------------------------------------------------------------------------------=
   JOB DONE.
=------------------------------------------------------------------------------=
