
     Program PWSCF v.7.2 starts on  1Nov2023 at 18:21:46 

     This program is part of the open-source Quantum ESPRESSO suite
     for quantum simulation of materials; please cite
         "P. Giannozzi et al., J. Phys.:Condens. Matter 21 395502 (2009);
         "P. Giannozzi et al., J. Phys.:Condens. Matter 29 465901 (2017);
         "P. Giannozzi et al., J. Chem. Phys. 152 154105 (2020);
          URL http://www.quantum-espresso.org", 
     in publications or presentations arising from this work. More details at
     http://www.quantum-espresso.org/quote

     Parallel version (MPI & OpenMP), running on      48 processor cores
     Number of MPI processes:                48
     Threads/MPI process:                     1

     MPI processes distributed on     1 nodes
     152086 MiB available memory on the printing compute node when the environment starts
 
     Waiting for input...
     Reading input from standard input
Warning: card &CELL ignored
Warning: card CELL_DYNAMICS = 'BFGS', ignored
Warning: card CELL_DOFREE = '2DXY' ignored
Warning: card / ignored

     Current dimensions of program PWSCF are:
     Max number of different atomic species (ntypx) = 10
     Max number of k-points (npk) =  40000
     Max angular momentum in pseudopotentials (lmaxx) =  4
     file O.pbe-n-kjpaw_psl.0.1.UPF: wavefunction(s)  2P renormalized

     IMPORTANT: XC functional enforced from input :
     Exchange-correlation= RVV10
                           (   1   4  13   4  26   0   0)
     Any further DFT definition will be discarded
     Please, verify this is what you really want


     gamma-point specific algorithms are used
     signal trapping enabled: kill the code with -SIGUSR1 to stop cleanly the simulation 
 
     R & G space division:  proc/nbgrp/npool/nimage =      48
     Subspace diagonalization in iterative solution of the eigenvalue problem:
     one sub-group per band group will be used
     scalapack distributed-memory algorithm (size of sub-group:  2*  2 procs)

 
     Parallelization info
     --------------------
     sticks:   dense  smooth     PW     G-vecs:    dense   smooth      PW
     Min         396     194     47               101632    35090    4376
     Max         398     196     50               101674    35128    4410
     Sum       19091    9389   2349              4879585  1685513  210763
 
     Using Slab Decomposition
 


     bravais-lattice index     =            0
     lattice parameter (alat)  =      17.8707  a.u.
     unit-cell volume          =   17436.2743 (a.u.)^3
     number of atoms/cell      =           36
     number of atomic types    =            3
     number of electrons       =       312.00
     number of Kohn-Sham states=          187
     kinetic-energy cutoff     =      80.0000  Ry
     charge density cutoff     =     650.0000  Ry
     scf convergence threshold =      1.0E-06
     mixing beta               =       0.7000
     number of iterations used =            8  local-TF  mixing
     energy convergence thresh.=      1.0E-04
     force convergence thresh. =      1.0E-02
     Exchange-correlation= RVV10
                           (   1   4  13   4  26   0   0)
     nstep                     =          200


     celldm(1)=  17.870686  celldm(2)=   0.000000  celldm(3)=   0.000000
     celldm(4)=   0.000000  celldm(5)=   0.000000  celldm(6)=   0.000000

     crystal axes: (cart. coord. in units of alat)
               a(1) = (   1.000000   0.000000   0.000000 )  
               a(2) = (   0.000000   1.155671   0.000000 )  
               a(3) = (   0.000000   0.000000   2.643601 )  

     reciprocal axes: (cart. coord. in units 2 pi/alat)
               b(1) = (  1.000000  0.000000  0.000000 )  
               b(2) = (  0.000000  0.865298  0.000000 )  
               b(3) = (  0.000000  0.000000  0.378272 )  


     PseudoPot. # 1 for Mo read from file:
     ../pseudo/Mo_ONCV_PBE-1.0.oncvpsp.upf
     MD5 check sum: 1b5d28e075c9ccadda658a603575cd1f
     Pseudo is Norm-conserving, Zval = 14.0
     Generated using ONCVPSP code by D. R. Hamann
     Using radial grid of 1526 points,  6 beta functions with: 
                l(1) =   0
                l(2) =   0
                l(3) =   1
                l(4) =   1
                l(5) =   2
                l(6) =   2

     PseudoPot. # 2 for S  read from file:
     ../pseudo/s_pbe_v1.4.uspp.F.UPF
     MD5 check sum: 88d86576ff6df21479756cfb9bdac1df
     Pseudo is Ultrasoft + core correction, Zval =  6.0
     Generated by new atomic code, or converted to UPF format
     Using radial grid of  907 points,  6 beta functions with: 
                l(1) =   0
                l(2) =   0
                l(3) =   1
                l(4) =   1
                l(5) =   2
                l(6) =   2
     Q(r) pseudized with  8 coefficients,  rinner =    1.300   1.300   1.300
                                                       1.300   1.300

     PseudoPot. # 3 for O  read from file:
     ../pseudo/O.pbe-n-kjpaw_psl.0.1.UPF
     MD5 check sum: 0234752ac141de4415c5fc33072bef88
     Pseudo is Projector augmented-wave + core cor, Zval =  6.0
     Generated using "atomic" code by A. Dal Corso  v.5.0.99 svn rev. 10869
     Shape of augmentation charge: BESSEL
     Using radial grid of 1095 points,  4 beta functions with: 
                l(1) =   0
                l(2) =   0
                l(3) =   1
                l(4) =   1
     Q(r) pseudized with 0 coefficients 


     atomic species   valence    mass     pseudopotential
        Mo            14.00    95.94000     Mo( 1.00)
        S              6.00    32.06500     S ( 1.00)
        O              6.00    15.99940     O ( 1.00)

     No symmetry found



   Cartesian axes

     site n.     atom                  positions (alat units)
         1           Mo  tau(   1) = (   0.6952221   0.1890506   0.2985846  )
         2           S   tau(   2) = (   0.8646417   0.0856217   0.4689279  )
         3           S   tau(   3) = (   0.8663890   0.0857843   0.1351291  )
         4           Mo  tau(   4) = (   0.8560186   0.4753274   0.2873942  )
         5           S   tau(   5) = (   0.6873294   0.3936244   0.4596353  )
         6           S   tau(   6) = (   0.6929804   0.3713468   0.1185692  )
         7           Mo  tau(   7) = (   0.6862796   0.7633098   0.2825370  )
         8           S   tau(   8) = (   0.8545980   0.6708292   0.4486168  )
         9           S   tau(   9) = (   0.8545123   0.6666874   0.1146125  )
        10           Mo  tau(  10) = (   0.8629403   1.0471007   0.3006803  )
        11           S   tau(  11) = (   0.6868280   0.9456650   0.4634891  )
        12           S   tau(  12) = (   0.6998113   0.9568511   0.1205389  )
        13           Mo  tau(  13) = (   0.3618216   0.1847309   0.2935964  )
        14           S   tau(  14) = (   0.5260962   0.0863870   0.4600448  )
        15           S   tau(  15) = (   0.5348379   0.0894875   0.1297123  )
        16           Mo  tau(  16) = (   0.5265817   0.4772436   0.2784130  )
        17           S   tau(  17) = (   0.3624753   0.3882513   0.4525556  )
        18           S   tau(  18) = (   0.3635411   0.3752055   0.1119148  )
        19           Mo  tau(  19) = (   0.3652268   0.7630864   0.2781795  )
        20           S   tau(  20) = (   0.5269494   0.6690381   0.1096838  )
        21           Mo  tau(  21) = (   0.5300192   1.0470394   0.2900995  )
        22           S   tau(  22) = (   0.3670346   0.9457522   0.4574073  )
        23           S   tau(  23) = (   0.3604225   0.9585725   0.1159032  )
        24           Mo  tau(  24) = (   0.0313099   0.1847895   0.3013130  )
        25           S   tau(  25) = (   0.1956761   0.0838230   0.4650863  )
        26           S   tau(  26) = (   0.1967693   0.0903508   0.1278874  )
        27           Mo  tau(  27) = (   0.1967578   0.4753919   0.2813011  )
        28           S   tau(  28) = (   0.0287851   0.3864324   0.4586755  )
        29           S   tau(  29) = (   0.0244514   0.3729871   0.1239344  )
        30           Mo  tau(  30) = (   0.0286728   0.7631204   0.2856894  )
        31           S   tau(  31) = (   0.2011512   0.6675435   0.4465001  )
        32           S   tau(  32) = (   0.1969214   0.6672839   0.1104564  )
        33           Mo  tau(  33) = (   0.1950294   1.0511147   0.2932237  )
        34           S   tau(  34) = (   0.0312912   0.9612169   0.4667423  )
        35           S   tau(  35) = (   0.0292670   0.9563028   0.1216485  )
        36           O   tau(  36) = (   0.8888889   0.6420393   0.5656742  )

     number of k points=     1  Gaussian smearing, width (Ry)=  0.0100
                       cart. coord. in units 2pi/alat
        k(    1) = (   0.0000000   0.0000000   0.0000000), wk =   2.0000000

     Dense  grid:  2439793 G-vectors     FFT dimensions: ( 150, 180, 384)

     Smooth grid:   842757 G-vectors     FFT dimensions: ( 108, 120, 270)

     Estimated max dynamical RAM per process >     269.22 MB

     Estimated total dynamical RAM >      12.62 GB

     Initial potential from superposition of free atoms

     starting charge     311.9873, renormalised to     312.0000

     negative rho (up, down):  2.743E-04 0.000E+00


---------------------------------------------------------------------------------
Carrying out rVV10 run using the following parameters:
Nqs =      20    Nr_points =    1024   r_max =   100.000
b_value =  6.30000    beta =  0.00901
     q_mesh =  0.00010000  0.00030000  0.00058939  0.00100810
               0.00161396  0.00249058  0.00375900  0.00559430
               0.00824984  0.01209221  0.01765183  0.02569619
               0.03733578  0.05417739  0.07854596  0.11380545
               0.16482331  0.23864234  0.34545298  0.50000000

Gradients computed in Reciprocal space

---------------------------------------------------------------------------------


     Starting wfcs are  216 randomized atomic wfcs
     Checking if some PAW data can be deallocated... 

     total cpu time spent up to now is        5.1 secs

     Self-consistent Calculation

     iteration #  1     ecut=    80.00 Ry     beta= 0.70
     Davidson diagonalization with overlap
     ethr =  1.00E-02,  avg # of iterations =  2.0

     Threshold (ethr) on eigenvalues was too large:
     Diagonalizing with lowered threshold

     Davidson diagonalization with overlap
     ethr =  4.75E-04,  avg # of iterations =  4.0

     negative rho (up, down):  3.924E-08 0.000E+00

     total cpu time spent up to now is       19.7 secs

     total energy              =   -2246.03910317 Ry
     estimated scf accuracy    <       1.73711637 Ry

     iteration #  2     ecut=    80.00 Ry     beta= 0.70
     Davidson diagonalization with overlap
     ethr =  5.57E-04,  avg # of iterations =  4.0

     total cpu time spent up to now is       24.3 secs

     total energy              =   -2246.02544008 Ry
     estimated scf accuracy    <       0.56446036 Ry

     iteration #  3     ecut=    80.00 Ry     beta= 0.70
     Davidson diagonalization with overlap
     ethr =  1.81E-04,  avg # of iterations =  2.0

     total cpu time spent up to now is       28.1 secs

     total energy              =   -2246.04732820 Ry
     estimated scf accuracy    <       0.10209907 Ry

     iteration #  4     ecut=    80.00 Ry     beta= 0.70
     Davidson diagonalization with overlap
     ethr =  3.27E-05,  avg # of iterations = 11.0

     total cpu time spent up to now is       32.5 secs

     total energy              =   -2246.06127184 Ry
     estimated scf accuracy    <       0.02226255 Ry

     iteration #  5     ecut=    80.00 Ry     beta= 0.70
     Davidson diagonalization with overlap
     ethr =  7.14E-06,  avg # of iterations =  2.0

     total cpu time spent up to now is       36.1 secs

     total energy              =   -2246.06129425 Ry
     estimated scf accuracy    <       0.01365857 Ry

     iteration #  6     ecut=    80.00 Ry     beta= 0.70
     Davidson diagonalization with overlap
     ethr =  4.38E-06,  avg # of iterations =  2.0

     total cpu time spent up to now is       39.6 secs

     total energy              =   -2246.05984967 Ry
     estimated scf accuracy    <       0.00889683 Ry

     iteration #  7     ecut=    80.00 Ry     beta= 0.70
     Davidson diagonalization with overlap
     ethr =  2.85E-06,  avg # of iterations = 10.0

     negative rho (up, down):  3.204E-04 0.000E+00

     total cpu time spent up to now is       45.5 secs

     total energy              =   -2246.05923328 Ry
     estimated scf accuracy    <       0.00471992 Ry

     iteration #  8     ecut=    80.00 Ry     beta= 0.70
     Davidson diagonalization with overlap
     ethr =  1.51E-06,  avg # of iterations =  2.0

     negative rho (up, down):  2.129E-02 0.000E+00

     total cpu time spent up to now is       51.1 secs

     total energy              =   -2246.05885478 Ry
     estimated scf accuracy    <       0.00287517 Ry

     iteration #  9     ecut=    80.00 Ry     beta= 0.70
     Davidson diagonalization with overlap
     ethr =  9.22E-07,  avg # of iterations =  2.0

     negative rho (up, down):  3.061E-02 0.000E+00

     total cpu time spent up to now is       56.5 secs

     total energy              =   -2246.05877463 Ry
     estimated scf accuracy    <       0.00149468 Ry

     iteration # 10     ecut=    80.00 Ry     beta= 0.70
     Davidson diagonalization with overlap
     ethr =  4.79E-07,  avg # of iterations =  2.0

     negative rho (up, down):  1.911E-02 0.000E+00

     total cpu time spent up to now is       63.9 secs

     total energy              =   -2246.05876929 Ry
     estimated scf accuracy    <       0.00040879 Ry

     iteration # 11     ecut=    80.00 Ry     beta= 0.70
     Davidson diagonalization with overlap
     ethr =  1.31E-07,  avg # of iterations =  4.0

     negative rho (up, down):  7.435E-03 0.000E+00

     total cpu time spent up to now is       71.1 secs

     total energy              =   -2246.05880108 Ry
     estimated scf accuracy    <       0.00005551 Ry

     iteration # 12     ecut=    80.00 Ry     beta= 0.70
     Davidson diagonalization with overlap
     ethr =  1.78E-08,  avg # of iterations =  7.0

     negative rho (up, down):  2.786E-03 0.000E+00

     total cpu time spent up to now is       80.2 secs

     total energy              =   -2246.05883542 Ry
     estimated scf accuracy    <       0.00000968 Ry

     iteration # 13     ecut=    80.00 Ry     beta= 0.70
     Davidson diagonalization with overlap
     ethr =  3.10E-09,  avg # of iterations =  4.0

     negative rho (up, down):  3.173E-04 0.000E+00

     total cpu time spent up to now is       87.3 secs

     total energy              =   -2246.05883614 Ry
     estimated scf accuracy    <       0.00000214 Ry

     iteration # 14     ecut=    80.00 Ry     beta= 0.70
     Davidson diagonalization with overlap
     ethr =  6.86E-10,  avg # of iterations =  4.0

     negative rho (up, down):  2.501E-04 0.000E+00

     total cpu time spent up to now is       90.8 secs

     End of self-consistent calculation

          k = 0.0000 0.0000 0.0000 (105382 PWs)   bands (ev):

   -62.9243 -62.8954 -62.8786 -62.8748 -62.8614 -62.8574 -62.8474 -62.8391
   -62.8310 -62.7899 -62.6789 -62.6691 -37.2714 -37.2037 -37.1627 -37.1528
   -37.1498 -37.1402 -37.1160 -37.1020 -37.0869 -37.0842 -37.0774 -37.0593
   -37.0496 -37.0452 -37.0390 -37.0351 -37.0304 -37.0175 -37.0162 -37.0046
   -36.9964 -36.9885 -36.9728 -36.9569 -36.9433 -36.9399 -36.9032 -36.8895
   -36.8665 -36.8412 -36.8405 -36.8188 -36.8060 -36.7863 -36.7598 -36.7279
   -27.7246 -15.9619 -15.2100 -15.1007 -14.9762 -14.8981 -14.7838 -14.5227
   -14.4954 -14.4399 -14.4245 -14.3629 -14.3488 -14.3110 -14.2607 -14.1674
   -14.1375 -14.1224 -14.0675 -13.9370 -13.8965 -13.8644 -13.8242 -13.1469
   -10.0954 -10.0211  -8.4458  -7.5937  -7.4440  -7.2782  -7.2341  -7.2134
    -7.1608  -7.1386  -7.1041  -6.8455  -6.7796  -6.7286  -6.6609  -6.6452
    -6.4554  -6.4281  -6.3171  -6.2996  -6.2061  -6.1677  -5.9414  -5.8986
    -5.8472  -5.8015  -5.7754  -5.7641  -5.7221  -5.6685  -5.6442  -5.6198
    -5.5534  -5.5284  -5.5054  -5.3489  -5.2514  -5.1784  -5.1043  -5.0364
    -5.0145  -4.9634  -4.9304  -4.8249  -4.7503  -4.6889  -4.4633  -4.3490
    -4.3314  -4.2864  -4.2702  -4.2352  -4.0761  -4.0255  -3.9454  -3.8033
    -3.7605  -3.7418  -3.7028  -3.6106  -3.5568  -3.5386  -3.5110  -3.4851
    -3.4616  -3.4201  -3.3465  -3.2263  -3.1244  -3.0213  -2.9257  -2.8738
    -2.8425  -2.8027  -2.7403  -2.7121  -2.6729  -2.6262  -2.5598  -2.4504
    -2.2409  -2.0393  -1.9669  -1.9537  -0.8616  -0.8289  -0.1943  -0.1808
    -0.0839  -0.0437  -0.0211   0.1164   0.1440   0.2024   0.2082   0.2477
     0.3078   0.3937   0.4794   0.5028   0.5286   0.5403   0.5872   0.6747
     0.7113   0.7334   0.7619   0.7842   0.8169   0.8761   0.9031   0.9645
     1.0541   1.0750   1.2478

     the Fermi energy is    -1.4056 ev

!    total energy              =   -2246.05883638 Ry
     estimated scf accuracy    <       0.00000036 Ry
     smearing contrib. (-TS)   =      -0.00000000 Ry
     internal energy E=F+TS    =   -2246.05883637 Ry

     The total energy is F=E-TS. E is the sum of the following terms:
     one-electron contribution =  -18460.66626158 Ry
     hartree contribution      =    9218.39910577 Ry
     xc contribution           =    -392.64840828 Ry
     ewald contribution        =    7398.68827903 Ry
     one-center paw contrib.   =      -9.83155131 Ry

     convergence has been achieved in  14 iterations

     negative rho (up, down):  2.501E-04 0.000E+00

     Forces acting on atoms (cartesian axes, Ry/au):

     atom    1 type  1   force =     0.01200904   -0.02430181    0.00478540
     atom    2 type  2   force =    -0.01476012    0.01636559    0.00074016
     atom    3 type  2   force =    -0.01111418    0.00910510   -0.00241821
     atom    4 type  1   force =    -0.00703921   -0.00706153   -0.03230993
     atom    5 type  2   force =     0.00170864   -0.00439678   -0.00081360
     atom    6 type  2   force =    -0.00399520    0.00903231    0.00016180
     atom    7 type  1   force =    -0.00851663   -0.01591169    0.01160218
     atom    8 type  2   force =    -0.37721897    0.32799948   -1.54405068
     atom    9 type  2   force =     0.01194614    0.00661740    0.01723535
     atom   10 type  1   force =    -0.01127485    0.01052798   -0.02580123
     atom   11 type  2   force =     0.00642053    0.00163998   -0.00287414
     atom   12 type  2   force =     0.00068689    0.00394241    0.00460411
     atom   13 type  1   force =     0.00486594    0.00449074   -0.00578984
     atom   14 type  2   force =     0.00756037   -0.00089817    0.01265378
     atom   15 type  2   force =    -0.01218616    0.00301129   -0.00765426
     atom   16 type  1   force =     0.00487107    0.01381808    0.00286338
     atom   17 type  2   force =     0.00602256   -0.00042114    0.00087366
     atom   18 type  2   force =    -0.00327622   -0.00638705    0.01201255
     atom   19 type  1   force =    -0.00046354   -0.01126780   -0.00192594
     atom   20 type  2   force =     0.00535984   -0.00730201   -0.00154480
     atom   21 type  1   force =    -0.00481464    0.00378837   -0.00038658
     atom   22 type  2   force =    -0.00238368    0.00003713   -0.00316580
     atom   23 type  2   force =     0.00023328    0.00132324    0.00988687
     atom   24 type  1   force =    -0.01021791   -0.00063524   -0.02246080
     atom   25 type  2   force =     0.01692807    0.01809676    0.00718777
     atom   26 type  2   force =    -0.01100484   -0.00041079   -0.00298130
     atom   27 type  1   force =     0.00073749    0.00171982    0.00662525
     atom   28 type  2   force =     0.00095816   -0.00224706   -0.00361798
     atom   29 type  2   force =     0.00699995   -0.00156958   -0.00292471
     atom   30 type  1   force =    -0.00433205    0.01209503   -0.00906696
     atom   31 type  2   force =     0.00531591    0.00226389    0.01418260
     atom   32 type  2   force =    -0.00627141    0.00353765    0.00810832
     atom   33 type  1   force =     0.01317766   -0.00786997   -0.01076710
     atom   34 type  2   force =     0.00023574   -0.04277991   -0.00718921
     atom   35 type  2   force =    -0.00968695    0.01185159    0.01437033
     atom   36 type  3   force =     0.39251926   -0.32780331    1.55984955
     The non-local contrib.  to forces
     atom    1 type  1   force =    -0.00173422    0.03330816   -0.01081898
     atom    2 type  2   force =    -0.01230281    0.00210831   -0.27190920
     atom    3 type  2   force =    -0.01466218   -0.00247643    0.27122251
     atom    4 type  1   force =    -0.00061186    0.04734039    0.03915447
     atom    5 type  2   force =     0.00848602   -0.02666043   -0.25313058
     atom    6 type  2   force =    -0.00822011    0.01011522    0.26176392
     atom    7 type  1   force =    -0.00582608   -0.01501236   -0.00061242
     atom    8 type  2   force =    -0.24821553    0.19326209   -0.83049778
     atom    9 type  2   force =     0.00851717   -0.00626492    0.28589956
     atom   10 type  1   force =     0.00709210    0.00336826   -0.00087218
     atom   11 type  2   force =     0.01491468   -0.01437545   -0.26064078
     atom   12 type  2   force =    -0.01245226   -0.01382283    0.26221195
     atom   13 type  1   force =    -0.00151324    0.02350696   -0.00867074
     atom   14 type  2   force =     0.01127660   -0.01326571   -0.26451396
     atom   15 type  2   force =    -0.01424481   -0.00614137    0.26143279
     atom   16 type  1   force =     0.00095466    0.02341384   -0.03413810
     atom   17 type  2   force =     0.00533252   -0.02947809   -0.25092911
     atom   18 type  2   force =    -0.00388001   -0.00188060    0.27502361
     atom   19 type  1   force =     0.00878252    0.00430289   -0.02469226
     atom   20 type  2   force =    -0.00138971   -0.02092402    0.26555310
     atom   21 type  1   force =    -0.00173049    0.02919614    0.00689088
     atom   22 type  2   force =    -0.00896021    0.00202178   -0.26105226
     atom   23 type  2   force =     0.00871209   -0.01353921    0.26862148
     atom   24 type  1   force =     0.01131935    0.01389473   -0.01170522
     atom   25 type  2   force =     0.00837687    0.00424695   -0.26109491
     atom   26 type  2   force =    -0.00253354   -0.01402435    0.26444556
     atom   27 type  1   force =    -0.00666638    0.00716133    0.00905966
     atom   28 type  2   force =     0.00210643   -0.02870288   -0.27375570
     atom   29 type  2   force =     0.01139215   -0.00057112    0.26238405
     atom   30 type  1   force =    -0.02698620   -0.00377643    0.03645583
     atom   31 type  2   force =    -0.00018039    0.00386948   -0.25373277
     atom   32 type  2   force =     0.00190358   -0.01304263    0.26807061
     atom   33 type  1   force =    -0.00361430    0.00781386    0.00748455
     atom   34 type  2   force =    -0.00464384   -0.04704288   -0.27215368
     atom   35 type  2   force =    -0.00386866   -0.00719017    0.26966794
     atom   36 type  3   force =    -0.76578352    0.63631890   -2.03554767
     The ionic contribution  to forces
     atom    1 type  1   force =     0.01046276   -0.44171927    4.50105867
     atom    2 type  2   force =    -0.69322837    0.30452026   39.06022841
     atom    3 type  2   force =    -0.17398050   -0.01474337  -36.63749260
     atom    4 type  1   force =    -0.34485688   -1.73478549   -3.78515710
     atom    5 type  2   force =    -1.97194101    0.16890433   38.07323173
     atom    6 type  2   force =     0.20161011   -0.74025379  -38.77288550
     atom    7 type  1   force =    -4.32717538   -1.62206885   -0.68672247
     atom    8 type  2   force =    -4.87726565    3.31110701   23.94519095
     atom    9 type  2   force =     0.28110540    0.01448099  -39.22273456
     atom   10 type  1   force =    -1.18891428    0.89880117    4.10775180
     atom   11 type  2   force =    -1.23690796   -0.52500027   38.66482872
     atom   12 type  2   force =     0.31978751    0.92709857  -38.54947642
     atom   13 type  1   force =     0.53939444    0.63988995    1.91826703
     atom   14 type  2   force =    -0.07142307   -0.05550466   38.33969391
     atom   15 type  2   force =     0.10363388   -0.08593894  -37.28223144
     atom   16 type  1   force =    -0.84647665    3.28977359   -1.23835442
     atom   17 type  2   force =     0.90478694    1.11246962   37.65130115
     atom   18 type  2   force =    -0.14023743   -0.78459201  -39.13922178
     atom   19 type  1   force =     2.88020037   -2.03734601   -0.85450843
     atom   20 type  2   force =     0.07081311   -0.17033361  -39.21980529
     atom   21 type  1   force =    -0.29551113    0.61248985    0.08267244
     atom   22 type  2   force =     0.51954369   -1.33931505   38.18770778
     atom   23 type  2   force =    -0.06613515    0.80436961  -38.83523789
     atom   24 type  1   force =    -0.23168375    0.40845639    4.59614945
     atom   25 type  2   force =     0.82289592    0.23146318   39.08936284
     atom   26 type  2   force =    -0.22509056    0.04005055  -37.82201143
     atom   27 type  1   force =     1.14476797   -0.43219326   -4.25690588
     atom   28 type  2   force =     0.98509263   -0.76302019   37.35440530
     atom   29 type  2   force =    -0.14186716   -0.70493244  -38.07393640
     atom   30 type  1   force =     1.32428276    0.65197477   -4.18137992
     atom   31 type  2   force =     2.71432048    0.09391708   36.53699864
     atom   32 type  2   force =    -0.27689152    0.02293068  -39.44359667
     atom   33 type  1   force =     1.20983244   -0.21246215    0.92514359
     atom   34 type  2   force =     0.80059186   -0.15220862   38.84235866
     atom   35 type  2   force =    -0.19509781    0.73497882  -38.54538118
     atom   36 type  3   force =     2.47156199   -2.45125844   54.67068830
     The local contribution  to forces
     atom    1 type  1   force =     0.00349955    0.38452433   -4.48580339
     atom    2 type  2   force =     0.69045967   -0.29003972  -38.80864827
     atom    3 type  2   force =     0.17687467    0.02637267   36.38481186
     atom    4 type  1   force =     0.33853811    1.68058041    3.71366503
     atom    5 type  2   force =     1.96615629   -0.14777004  -37.84143859
     atom    6 type  2   force =    -0.19806279    0.74027203   38.53211673
     atom    7 type  1   force =     4.32472981    1.62084007    0.69887175
     atom    8 type  2   force =     4.73187025   -3.16374218  -24.72065343
     atom    9 type  2   force =    -0.27747976   -0.00206955   38.97572915
     atom   10 type  1   force =     1.17059947   -0.89183350   -4.13296701
     atom   11 type  2   force =     1.22936831    0.54023497  -38.42785079
     atom   12 type  2   force =    -0.30777836   -0.91062057   38.31269584
     atom   13 type  1   force =    -0.53308859   -0.65857342   -1.91577676
     atom   14 type  2   force =     0.06835513    0.06771035  -38.08350689
     atom   15 type  2   force =    -0.10230125    0.09472782   37.03369430
     atom   16 type  1   force =     0.85054903   -3.29919738    1.27507723
     atom   17 type  2   force =    -0.90396413   -1.08483596  -37.42002571
     atom   18 type  2   force =     0.14080203    0.78077034   38.89731830
     atom   19 type  1   force =    -2.88951136    2.02155279    0.87701088
     atom   20 type  2   force =    -0.06424638    0.18305545   38.97383220
     atom   21 type  1   force =     0.29249006   -0.63809715   -0.09037496
     atom   22 type  2   force =    -0.51327076    1.33759555  -37.95079544
     atom   23 type  2   force =     0.05829692   -0.79084955   38.59746000
     atom   24 type  1   force =     0.20999994   -0.42254481   -4.60718307
     atom   25 type  2   force =    -0.81439841   -0.21717565  -38.84205822
     atom   26 type  2   force =     0.21672887   -0.02713955   37.57548470
     atom   27 type  1   force =    -1.13761759    0.42690396    4.25425301
     atom   28 type  2   force =    -0.98640100    0.78774850  -37.10546012
     atom   29 type  2   force =     0.13831064    0.70449364   37.82920341
     atom   30 type  1   force =    -1.30186102   -0.63643702    4.13583535
     atom   31 type  2   force =    -2.70913902   -0.09548285  -36.28983862
     atom   32 type  2   force =     0.26915472   -0.00720762   39.20441988
     atom   33 type  1   force =    -1.19314578    0.19656932   -0.94377555
     atom   34 type  2   force =    -0.79645886    0.15447045  -38.59861149
     atom   35 type  2   force =     0.18928876   -0.71670820   38.31110121
     atom   36 type  3   force =    -1.31790744    1.49092268  -51.08464796
     The core correction contribution to forces
     atom    1 type  1   force =     0.00000000    0.00000000    0.00000000
     atom    2 type  2   force =     0.00035245   -0.00011005    0.02082372
     atom    3 type  2   force =     0.00067049    0.00003373   -0.02095167
     atom    4 type  1   force =     0.00000000    0.00000000    0.00000000
     atom    5 type  2   force =    -0.00082232    0.00129528    0.02027978
     atom    6 type  2   force =     0.00072789   -0.00100047   -0.02078257
     atom    7 type  1   force =     0.00000000    0.00000000    0.00000000
     atom    8 type  2   force =     0.01641229   -0.01271322    0.06170055
     atom    9 type  2   force =    -0.00019554    0.00035965   -0.02156971
     atom   10 type  1   force =     0.00000000    0.00000000    0.00000000
     atom   11 type  2   force =    -0.00083036    0.00059697    0.02055620
     atom   12 type  2   force =     0.00114019    0.00119069   -0.02082538
     atom   13 type  1   force =     0.00000000    0.00000000    0.00000000
     atom   14 type  2   force =    -0.00058506    0.00022458    0.02072093
     atom   15 type  2   force =     0.00077522    0.00040429   -0.02060394
     atom   16 type  1   force =     0.00000000    0.00000000    0.00000000
     atom   17 type  2   force =    -0.00018250    0.00154444    0.02029579
     atom   18 type  2   force =     0.00003484   -0.00056747   -0.02112180
     atom   19 type  1   force =     0.00000000    0.00000000    0.00000000
     atom   20 type  2   force =     0.00019083    0.00082374   -0.02116394
     atom   21 type  1   force =     0.00000000    0.00000000    0.00000000
     atom   22 type  2   force =     0.00024711   -0.00038579    0.02067591
     atom   23 type  2   force =    -0.00065901    0.00124097   -0.02093552
     atom   24 type  1   force =     0.00000000    0.00000000    0.00000000
     atom   25 type  2   force =    -0.00005244   -0.00037689    0.02074414
     atom   26 type  2   force =    -0.00017461    0.00074641   -0.02092960
     atom   27 type  1   force =     0.00000000    0.00000000    0.00000000
     atom   28 type  2   force =     0.00004240    0.00190072    0.02095325
     atom   29 type  2   force =    -0.00088455   -0.00046103   -0.02048093
     atom   30 type  1   force =     0.00000000    0.00000000    0.00000000
     atom   31 type  2   force =     0.00018407   -0.00012530    0.02055578
     atom   32 type  2   force =    -0.00043384    0.00077142   -0.02075873
     atom   33 type  1   force =     0.00000000    0.00000000    0.00000000
     atom   34 type  2   force =     0.00067999    0.00181395    0.02101953
     atom   35 type  2   force =    -0.00000618    0.00070502   -0.02102009
     atom   36 type  3   force =     0.00469257   -0.00385203    0.00907520
     The Hubbard contrib.    to forces
     atom    1 type  1   force =     0.00000000    0.00000000    0.00000000
     atom    2 type  2   force =     0.00000000    0.00000000    0.00000000
     atom    3 type  2   force =     0.00000000    0.00000000    0.00000000
     atom    4 type  1   force =     0.00000000    0.00000000    0.00000000
     atom    5 type  2   force =     0.00000000    0.00000000    0.00000000
     atom    6 type  2   force =     0.00000000    0.00000000    0.00000000
     atom    7 type  1   force =     0.00000000    0.00000000    0.00000000
     atom    8 type  2   force =     0.00000000    0.00000000    0.00000000
     atom    9 type  2   force =     0.00000000    0.00000000    0.00000000
     atom   10 type  1   force =     0.00000000    0.00000000    0.00000000
     atom   11 type  2   force =     0.00000000    0.00000000    0.00000000
     atom   12 type  2   force =     0.00000000    0.00000000    0.00000000
     atom   13 type  1   force =     0.00000000    0.00000000    0.00000000
     atom   14 type  2   force =     0.00000000    0.00000000    0.00000000
     atom   15 type  2   force =     0.00000000    0.00000000    0.00000000
     atom   16 type  1   force =     0.00000000    0.00000000    0.00000000
     atom   17 type  2   force =     0.00000000    0.00000000    0.00000000
     atom   18 type  2   force =     0.00000000    0.00000000    0.00000000
     atom   19 type  1   force =     0.00000000    0.00000000    0.00000000
     atom   20 type  2   force =     0.00000000    0.00000000    0.00000000
     atom   21 type  1   force =     0.00000000    0.00000000    0.00000000
     atom   22 type  2   force =     0.00000000    0.00000000    0.00000000
     atom   23 type  2   force =     0.00000000    0.00000000    0.00000000
     atom   24 type  1   force =     0.00000000    0.00000000    0.00000000
     atom   25 type  2   force =     0.00000000    0.00000000    0.00000000
     atom   26 type  2   force =     0.00000000    0.00000000    0.00000000
     atom   27 type  1   force =     0.00000000    0.00000000    0.00000000
     atom   28 type  2   force =     0.00000000    0.00000000    0.00000000
     atom   29 type  2   force =     0.00000000    0.00000000    0.00000000
     atom   30 type  1   force =     0.00000000    0.00000000    0.00000000
     atom   31 type  2   force =     0.00000000    0.00000000    0.00000000
     atom   32 type  2   force =     0.00000000    0.00000000    0.00000000
     atom   33 type  1   force =     0.00000000    0.00000000    0.00000000
     atom   34 type  2   force =     0.00000000    0.00000000    0.00000000
     atom   35 type  2   force =     0.00000000    0.00000000    0.00000000
     atom   36 type  3   force =     0.00000000    0.00000000    0.00000000
     The SCF correction term to forces
     atom    1 type  1   force =    -0.00021988   -0.00041589    0.00034476
     atom    2 type  2   force =    -0.00004190   -0.00011408    0.00024116
     atom    3 type  2   force =    -0.00001749   -0.00008235   -0.00001265
     atom    4 type  1   force =    -0.00010940   -0.00019770    0.00002333
     atom    5 type  2   force =    -0.00017115   -0.00016678    0.00023973
     atom    6 type  2   force =    -0.00005112   -0.00010155   -0.00005513
     atom    7 type  1   force =    -0.00024582    0.00032859    0.00006098
     atom    8 type  2   force =    -0.00002117    0.00008493    0.00020468
     atom    9 type  2   force =    -0.00000195    0.00011036   -0.00009343
     atom   10 type  1   force =    -0.00005297    0.00019119    0.00028182
     atom   11 type  2   force =    -0.00012496    0.00018290    0.00022818
     atom   12 type  2   force =    -0.00001102    0.00009569   -0.00000622
     atom   13 type  1   force =     0.00007250   -0.00033362    0.00038628
     atom   14 type  2   force =    -0.00006407   -0.00006359    0.00025546
     atom   15 type  2   force =    -0.00005002   -0.00004136    0.00004969
     atom   16 type  1   force =    -0.00015680   -0.00017283    0.00027432
     atom   17 type  2   force =     0.00004891   -0.00012201    0.00022720
     atom   18 type  2   force =     0.00000351   -0.00011817    0.00000988
     atom   19 type  1   force =     0.00006410    0.00022166    0.00025953
     atom   20 type  2   force =    -0.00000884    0.00007556    0.00003480
     atom   21 type  1   force =    -0.00006390    0.00019867    0.00042072
     atom   22 type  2   force =     0.00005565    0.00011978    0.00029387
     atom   23 type  2   force =     0.00001759    0.00010057   -0.00002555
     atom   24 type  1   force =     0.00014573   -0.00044241    0.00027370
     atom   25 type  2   force =     0.00010530   -0.00006170    0.00022957
     atom   26 type  2   force =     0.00006418   -0.00004471    0.00002513
     atom   27 type  1   force =     0.00025265   -0.00015307    0.00021413
     atom   28 type  2   force =     0.00011687   -0.00017408    0.00023494
     atom   29 type  2   force =     0.00004804   -0.00009949   -0.00009918
     atom   30 type  1   force =     0.00023157    0.00033285    0.00001745
     atom   31 type  2   force =     0.00012993    0.00008463    0.00019523
     atom   32 type  2   force =    -0.00000519    0.00008494   -0.00003111
     atom   33 type  1   force =     0.00010447    0.00020813    0.00037597
     atom   34 type  2   force =     0.00006575    0.00018633    0.00019342
     atom   35 type  2   force =    -0.00000389    0.00006525   -0.00000189
     atom   36 type  3   force =    -0.00004517    0.00006472    0.00027734

     Total force =     2.310720     Total SCF correction =     0.001820

     BFGS Geometry Optimization
     Energy error            =      0.0E+00 Ry
     Gradient error          =      1.6E+00 Ry/Bohr

     number of scf cycles    =   1
     number of bfgs steps    =   0

     energy             new  =   -2246.0588363751 Ry

     new trust radius        =       0.5000000000 bohr
     new conv_thr            =       0.0000010000 Ry


ATOMIC_POSITIONS (angstrom)
Mo            6.5764840628        1.7838891902        2.8244143578
S             8.1743302570        0.8123418796        4.4346576531
S             8.1914416690        0.8127093334        1.2774936521
Mo            8.0940279638        4.4939187448        2.7126105810
S             6.5001846614        3.7217028011        4.3465295103
S             6.5527058403        3.5131934102        1.1213063072
Mo            6.4886089606        7.2158725888        2.6737545599
S             8.0209264209        6.3967389521        3.9935867522
S             8.0828431629        6.3057689293        1.0866410447
Mo            8.1588017343        9.9038773454        2.8393030396
S             6.4962024769        8.9431911517        4.3826422709
S             6.6180579139        9.0493466625        1.1406494072
Mo            3.4224439699        1.7476796814        2.7755379378
S             4.9763840936        0.8167964397        4.3525726684
S             5.0558695520        0.8467474783        1.2254247233
Mo            4.9805418145        4.5154052439        2.6333460775
S             3.4288123970        3.6715318054        4.2798503992
S             3.4373925092        3.5471992137        1.0602879018
Mo            3.4537870252        7.2145083598        2.6303664333
S             4.9840981090        6.3257553251        1.0370047352
Mo            5.0114878824        9.9022106716        2.7433386500
S             3.4705739078        8.9437572539        4.3250810391
S             3.4084667664        9.0652032682        1.0976618944
Mo            0.2944435338        1.7474071416        2.8458244088
S             1.8531907310        0.7956108972        4.3993679853
S             1.8590262411        0.8543597051        1.2089203188
Mo            1.8608101807        4.4959439675        2.6612652586
S             0.2723682888        3.6540366377        4.3370009422
S             0.2323594812        3.5269962372        1.1715464707
Mo            0.2704538972        7.2185956078        2.7002349881
S             1.9030950816        6.3131637358        4.2247301162
S             1.8612273692        6.3109140208        1.0458662071
Mo            1.8464706778        9.9388706478        2.7712107771
S             0.2959508965        9.0831024312        4.4127106875
S             0.2752100270        9.0454359901        1.1527170336
O             8.4692763440        6.0187747719        5.6008660296



     Writing config-only to output data dir ./MoS2-V-O.save/
     NEW-OLD atomic charge density approx. for the potential

     negative rho (up, down):  1.970E-04 0.000E+00

     total cpu time spent up to now is       97.7 secs

     Self-consistent Calculation

     iteration #  1     ecut=    80.00 Ry     beta= 0.70
     Davidson diagonalization with overlap
     ethr =  1.00E-06,  avg # of iterations = 16.0

     negative rho (up, down):  6.807E-03 0.000E+00

     total cpu time spent up to now is      113.6 secs

     total energy              =   -2246.31324800 Ry
     estimated scf accuracy    <       0.22994687 Ry

     iteration #  2     ecut=    80.00 Ry     beta= 0.70
     Davidson diagonalization with overlap
     ethr =  7.37E-05,  avg # of iterations =  5.0

     negative rho (up, down):  1.172E-02 0.000E+00

     total cpu time spent up to now is      126.9 secs

     total energy              =   -2246.32791166 Ry
     estimated scf accuracy    <       0.10489896 Ry

     iteration #  3     ecut=    80.00 Ry     beta= 0.70
     Davidson diagonalization with overlap
     ethr =  3.36E-05,  avg # of iterations =  3.0

     negative rho (up, down):  1.979E-02 0.000E+00

     total cpu time spent up to now is      136.5 secs

     total energy              =   -2246.33018423 Ry
     estimated scf accuracy    <       0.02075213 Ry

     iteration #  4     ecut=    80.00 Ry     beta= 0.70
     Davidson diagonalization with overlap
     ethr =  6.65E-06,  avg # of iterations =  3.0

     negative rho (up, down):  2.138E-02 0.000E+00

     total cpu time spent up to now is      147.7 secs

     total energy              =   -2246.33109518 Ry
     estimated scf accuracy    <       0.00893822 Ry

     iteration #  5     ecut=    80.00 Ry     beta= 0.70
     Davidson diagonalization with overlap
     ethr =  2.86E-06,  avg # of iterations =  2.0

     negative rho (up, down):  2.075E-02 0.000E+00

     total cpu time spent up to now is      158.6 secs

     total energy              =   -2246.33106228 Ry
     estimated scf accuracy    <       0.00178703 Ry

     iteration #  6     ecut=    80.00 Ry     beta= 0.70
     Davidson diagonalization with overlap
     ethr =  5.73E-07,  avg # of iterations =  6.0

     negative rho (up, down):  1.803E-02 0.000E+00

     total cpu time spent up to now is      170.2 secs

     total energy              =   -2246.33122707 Ry
     estimated scf accuracy    <       0.00165263 Ry

     iteration #  7     ecut=    80.00 Ry     beta= 0.70
     Davidson diagonalization with overlap
     ethr =  5.30E-07,  avg # of iterations =  4.0

     negative rho (up, down):  1.360E-02 0.000E+00

     total cpu time spent up to now is      178.5 secs

     total energy              =   -2246.33129872 Ry
     estimated scf accuracy    <       0.00012957 Ry

     iteration #  8     ecut=    80.00 Ry     beta= 0.70
     Davidson diagonalization with overlap
     ethr =  4.15E-08,  avg # of iterations =  6.0

     negative rho (up, down):  1.056E-02 0.000E+00

     total cpu time spent up to now is      189.5 secs

     total energy              =   -2246.33124118 Ry
     estimated scf accuracy    <       0.00031419 Ry

     iteration #  9     ecut=    80.00 Ry     beta= 0.70
     Davidson diagonalization with overlap
     ethr =  4.15E-08,  avg # of iterations =  5.0

     negative rho (up, down):  6.590E-03 0.000E+00

     total cpu time spent up to now is      201.6 secs

     total energy              =   -2246.33120723 Ry
     estimated scf accuracy    <       0.00003705 Ry

     iteration # 10     ecut=    80.00 Ry     beta= 0.70
     Davidson diagonalization with overlap
     ethr =  1.19E-08,  avg # of iterations =  2.0

     negative rho (up, down):  3.685E-03 0.000E+00

     total cpu time spent up to now is      210.8 secs

     total energy              =   -2246.33117607 Ry
     estimated scf accuracy    <       0.00001473 Ry

     iteration # 11     ecut=    80.00 Ry     beta= 0.70
     Davidson diagonalization with overlap
     ethr =  4.72E-09,  avg # of iterations =  5.0

     negative rho (up, down):  1.813E-03 0.000E+00

     total cpu time spent up to now is      218.4 secs

     total energy              =   -2246.33116176 Ry
     estimated scf accuracy    <       0.00000503 Ry

     iteration # 12     ecut=    80.00 Ry     beta= 0.70
     Davidson diagonalization with overlap
     ethr =  1.61E-09,  avg # of iterations =  2.0

     negative rho (up, down):  1.028E-03 0.000E+00

     total cpu time spent up to now is      226.3 secs

     total energy              =   -2246.33115693 Ry
     estimated scf accuracy    <       0.00000226 Ry

     iteration # 13     ecut=    80.00 Ry     beta= 0.70
     Davidson diagonalization with overlap
     ethr =  7.26E-10,  avg # of iterations =  5.0

     negative rho (up, down):  2.928E-04 0.000E+00

     total cpu time spent up to now is      235.8 secs

     total energy              =   -2246.33115311 Ry
     estimated scf accuracy    <       0.00000151 Ry

     iteration # 14     ecut=    80.00 Ry     beta= 0.70
     Davidson diagonalization with overlap
     ethr =  4.83E-10,  avg # of iterations =  2.0

     negative rho (up, down):  1.715E-04 0.000E+00

     total cpu time spent up to now is      238.9 secs

     End of self-consistent calculation

          k = 0.0000 0.0000 0.0000 (105382 PWs)   bands (ev):

   -63.0979 -63.0635 -63.0442 -63.0431 -63.0244 -63.0148 -63.0080 -63.0042
   -63.0001 -62.9816 -62.9443 -62.9293 -37.4691 -37.3983 -37.3503 -37.3399
   -37.3210 -37.3107 -37.2961 -37.2848 -37.2733 -37.2645 -37.2443 -37.2360
   -37.2254 -37.2145 -37.2127 -37.2040 -37.2024 -37.1992 -37.1930 -37.1879
   -37.1800 -37.1665 -37.1564 -37.1430 -37.1208 -37.1098 -37.1060 -37.1028
   -37.0919 -37.0793 -37.0582 -37.0324 -37.0182 -36.9897 -36.9815 -36.9551
   -19.8455 -16.1483 -15.3857 -15.3512 -15.1881 -15.0727 -14.9491 -14.7350
   -14.6718 -14.6092 -14.5782 -14.5612 -14.5310 -14.4848 -14.4484 -14.3355
   -14.3091 -14.2922 -14.2423 -14.1884 -14.0699 -14.0536 -14.0158 -13.9969
    -8.0378  -7.8069  -7.7554  -7.6582  -7.4575  -7.4492  -7.3983  -7.3756
    -7.2627  -7.0762  -7.0398  -6.9977  -6.8958  -6.8500  -6.7774  -6.6223
    -6.6009  -6.5645  -6.4806  -6.3997  -6.2129  -6.1940  -6.0912  -6.0285
    -5.9788  -5.9500  -5.9259  -5.8846  -5.8678  -5.8414  -5.7803  -5.7175
    -5.7029  -5.6652  -5.6345  -5.4138  -5.3398  -5.3040  -5.2446  -5.1947
    -5.1243  -5.1055  -5.0237  -4.8921  -4.7967  -4.7121  -4.5259  -4.4853
    -4.4581  -4.4261  -4.2710  -4.2239  -4.1049  -4.0613  -4.0022  -3.9619
    -3.9054  -3.8666  -3.8222  -3.7512  -3.7103  -3.6851  -3.6707  -3.6235
    -3.6021  -3.5785  -3.4243  -3.3518  -3.1630  -3.0987  -3.0727  -3.0509
    -2.9866  -2.9422  -2.9206  -2.8786  -2.8502  -2.7903  -2.5504  -2.3997
    -2.3316  -2.1872  -2.1657  -2.0360  -1.0867  -1.0139  -0.4047  -0.3740
    -0.2637  -0.2156  -0.1855  -0.0715  -0.0473   0.0394   0.0478   0.0831
     0.1392   0.1761   0.2700   0.3039   0.3423   0.3725   0.3890   0.4900
     0.5171   0.5737   0.5952   0.6270   0.6535   0.6906   0.7332   0.7755
     0.8828   0.8830   1.0720

     the Fermi energy is    -1.5615 ev

!    total energy              =   -2246.33115340 Ry
     estimated scf accuracy    <       0.00000034 Ry
     smearing contrib. (-TS)   =      -0.00000006 Ry
     internal energy E=F+TS    =   -2246.33115334 Ry

     The total energy is F=E-TS. E is the sum of the following terms:
     one-electron contribution =  -18436.33114891 Ry
     hartree contribution      =    9205.13131090 Ry
     xc contribution           =    -392.06137297 Ry
     ewald contribution        =    7386.79734863 Ry
     one-center paw contrib.   =      -9.86729099 Ry

     convergence has been achieved in  14 iterations

     negative rho (up, down):  1.715E-04 0.000E+00

     Forces acting on atoms (cartesian axes, Ry/au):

     atom    1 type  1   force =     0.00783302   -0.02036714    0.00317252
     atom    2 type  2   force =    -0.01282953    0.01459121    0.00090891
     atom    3 type  2   force =    -0.01091380    0.00881359   -0.00495376
     atom    4 type  1   force =    -0.00491630   -0.03986481   -0.04958976
     atom    5 type  2   force =     0.00419769   -0.00195524   -0.00100832
     atom    6 type  2   force =    -0.00135464    0.00760884   -0.00029546
     atom    7 type  1   force =    -0.08515860    0.03328570   -0.06812309
     atom    8 type  2   force =     0.13214954   -0.09250366    0.30117545
     atom    9 type  2   force =     0.01214979    0.00607172   -0.00319335
     atom   10 type  1   force =    -0.00747863    0.00850892   -0.02373067
     atom   11 type  2   force =     0.00589372    0.00078999   -0.00017036
     atom   12 type  2   force =    -0.00102667    0.00458533    0.00437324
     atom   13 type  1   force =     0.00439338    0.00400288   -0.00461496
     atom   14 type  2   force =     0.00693421   -0.00051858    0.01237444
     atom   15 type  2   force =    -0.01124152    0.00294687   -0.00760410
     atom   16 type  1   force =     0.00236931    0.00975863    0.00523465
     atom   17 type  2   force =     0.00632887   -0.00032241    0.00157681
     atom   18 type  2   force =    -0.00197067   -0.00609691    0.01117279
     atom   19 type  1   force =    -0.00039789   -0.00924135   -0.00456677
     atom   20 type  2   force =     0.00218040   -0.00886803   -0.00359764
     atom   21 type  1   force =    -0.00199601    0.00274261   -0.00226868
     atom   22 type  2   force =    -0.00231445   -0.00122225   -0.00173504
     atom   23 type  2   force =     0.00055961    0.00040586    0.00863748
     atom   24 type  1   force =    -0.00582678   -0.00124868   -0.01958362
     atom   25 type  2   force =     0.01466299    0.01723371    0.00601226
     atom   26 type  2   force =    -0.00953831   -0.00081662   -0.00409331
     atom   27 type  1   force =    -0.00128453    0.00113833    0.00849002
     atom   28 type  2   force =    -0.00331888    0.00325004   -0.00290031
     atom   29 type  2   force =     0.00575807   -0.00184913   -0.00340556
     atom   30 type  1   force =     0.02825295    0.03171770   -0.04038369
     atom   31 type  2   force =     0.00206949    0.00200522    0.01341563
     atom   32 type  2   force =    -0.00555882    0.00400360    0.00898608
     atom   33 type  1   force =     0.00958691   -0.00523881   -0.00876690
     atom   34 type  2   force =    -0.00030863   -0.04096497   -0.00712771
     atom   35 type  2   force =    -0.00771076    0.00983301    0.01351991
     atom   36 type  3   force =    -0.07017452    0.05778483   -0.13733713
     The non-local contrib.  to forces
     atom    1 type  1   force =    -0.00029976    0.03406874   -0.00971577
     atom    2 type  2   force =    -0.01162797   -0.00047737   -0.27426060
     atom    3 type  2   force =    -0.01484159   -0.00289395    0.27009314
     atom    4 type  1   force =    -0.00034506    0.02260605    0.02307202
     atom    5 type  2   force =     0.00284916   -0.03078952   -0.26101412
     atom    6 type  2   force =    -0.00422278    0.01125310    0.26363293
     atom    7 type  1   force =    -0.00657835   -0.01554156   -0.00292187
     atom    8 type  2   force =     0.11421579   -0.10624413    0.45787201
     atom    9 type  2   force =     0.00719820   -0.00597864    0.28309057
     atom   10 type  1   force =     0.00751771    0.00820794   -0.00005769
     atom   11 type  2   force =     0.01045835   -0.00791222   -0.26706660
     atom   12 type  2   force =    -0.01162442   -0.01467937    0.26108821
     atom   13 type  1   force =    -0.00188032    0.02381055   -0.00876509
     atom   14 type  2   force =     0.01111342   -0.01269884   -0.26746048
     atom   15 type  2   force =    -0.01327738   -0.00630632    0.26196562
     atom   16 type  1   force =    -0.00022038    0.02026099   -0.03192374
     atom   17 type  2   force =     0.00488493   -0.02905886   -0.25375718
     atom   18 type  2   force =    -0.00307195   -0.00123375    0.27468750
     atom   19 type  1   force =     0.00447721   -0.00279528   -0.02131224
     atom   20 type  2   force =    -0.00288246   -0.02312291    0.26312113
     atom   21 type  1   force =    -0.00191107    0.03135202    0.00833409
     atom   22 type  2   force =    -0.00824203    0.00177341   -0.26378424
     atom   23 type  2   force =     0.00885492   -0.01470667    0.26773251
     atom   24 type  1   force =     0.00903741    0.01772188   -0.00986376
     atom   25 type  2   force =     0.00740477    0.00347331   -0.26483696
     atom   26 type  2   force =    -0.00191398   -0.01285683    0.26444959
     atom   27 type  1   force =    -0.00534141    0.00461034    0.01087020
     atom   28 type  2   force =     0.00661378   -0.02631362   -0.28249134
     atom   29 type  2   force =     0.00951139    0.00202743    0.26108719
     atom   30 type  1   force =    -0.00658797    0.00465200    0.02181071
     atom   31 type  2   force =     0.00397032    0.00226539   -0.26453954
     atom   32 type  2   force =     0.00058575   -0.01292178    0.26726047
     atom   33 type  1   force =    -0.00432410    0.00785496    0.00786793
     atom   34 type  2   force =    -0.00385513   -0.03492694   -0.28168410
     atom   35 type  2   force =    -0.00415977   -0.01037752    0.26939243
     atom   36 type  3   force =    -0.52481253    0.44198420   -1.63472696
     The ionic contribution  to forces
     atom    1 type  1   force =    -0.05075147   -0.31215301    4.62752693
     atom    2 type  2   force =    -0.63002489    0.27664103   39.09462370
     atom    3 type  2   force =    -0.16415100    0.00090127  -36.64956721
     atom    4 type  1   force =    -0.05919776   -2.33578118   -3.33874595
     atom    5 type  2   force =    -1.82342836    0.33190935   38.13493564
     atom    6 type  2   force =     0.16144020   -0.80983698  -38.74387452
     atom    7 type  1   force =    -5.51065385   -0.99731059   -0.86961139
     atom    8 type  2   force =    -2.21648795    1.10669089   28.80671427
     atom    9 type  2   force =     0.31982882   -0.01148416  -39.43169159
     atom   10 type  1   force =    -1.06871211    0.97923625    4.16083281
     atom   11 type  2   force =    -1.16953298   -0.57782927   38.80062946
     atom   12 type  2   force =     0.27072105    0.95032424  -38.55239056
     atom   13 type  1   force =     0.51290384    0.64422322    1.95156436
     atom   14 type  2   force =    -0.08893665   -0.04311679   38.37410476
     atom   15 type  2   force =     0.10063893   -0.06827738  -37.27574645
     atom   16 type  1   force =    -0.91699947    3.13799001   -1.04296946
     atom   17 type  2   force =     0.90055787    1.11777795   37.65705814
     atom   18 type  2   force =    -0.14427460   -0.77777485  -39.08991577
     atom   19 type  1   force =     2.78966922   -2.02515840   -0.75774865
     atom   20 type  2   force =     0.00589016   -0.16450575  -39.25263847
     atom   21 type  1   force =    -0.32930584    0.62704957    0.18102591
     atom   22 type  2   force =     0.50419899   -1.35131341   38.20936864
     atom   23 type  2   force =    -0.06581805    0.79461400  -38.81013268
     atom   24 type  1   force =    -0.16892286    0.42298566    4.58573559
     atom   25 type  2   force =     0.77348041    0.21264227   39.07811313
     atom   26 type  2   force =    -0.21062124    0.04385323  -37.78851728
     atom   27 type  1   force =     1.04018199   -0.39588747   -4.00151715
     atom   28 type  2   force =     0.84064822   -0.56111557   37.31245708
     atom   29 type  2   force =    -0.10170386   -0.70618157  -38.04048856
     atom   30 type  1   force =     2.10326605    0.68117686   -3.74328608
     atom   31 type  2   force =     2.50143325    0.09134148   36.58238619
     atom   32 type  2   force =    -0.25535953    0.00495138  -39.39922543
     atom   33 type  1   force =     1.13954800   -0.15393526    1.01707100
     atom   34 type  2   force =     0.73361870   -0.22833886   38.88777526
     atom   35 type  2   force =    -0.14544309    0.76917491  -38.51688601
     atom   36 type  3   force =     0.42229986   -0.67348309   47.84303035
     The local contribution  to forces
     atom    1 type  1   force =     0.05893583    0.25781537   -4.61484656
     atom    2 type  2   force =     0.62845333   -0.26159423  -38.84041468
     atom    3 type  2   force =     0.16739538    0.01071545   36.39523183
     atom    4 type  1   force =     0.05459796    2.27357216    3.26613305
     atom    5 type  2   force =     1.82511545   -0.30471238  -37.89577450
     atom    6 type  2   force =    -0.15904527    0.80736284   38.50060901
     atom    7 type  1   force =     5.43213106    1.04604230    0.80444061
     atom    8 type  2   force =     2.24064200   -1.09915680  -28.94643540
     atom    9 type  2   force =    -0.31474857    0.02320241   39.16662813
     atom   10 type  1   force =     1.05369480   -0.97917420   -4.18462065
     atom   11 type  2   force =     1.16554635    0.58618280  -38.55475774
     atom   12 type  2   force =    -0.26119141   -0.93236502   38.31629300
     atom   13 type  1   force =    -0.50663376   -0.66391753   -1.94771192
     atom   14 type  2   force =     0.08539860    0.05507318  -38.11515174
     atom   15 type  2   force =    -0.09932083    0.07710315   37.02657238
     atom   16 type  1   force =     0.91966156   -3.14826374    1.07999054
     atom   17 type  2   force =    -0.89893745   -1.09043764  -37.42217767
     atom   18 type  2   force =     0.14539187    0.77356395   38.84729894
     atom   19 type  1   force =    -2.79446466    2.01857658    0.77435215
     atom   20 type  2   force =    -0.00103633    0.17781446   39.00684312
     atom   21 type  1   force =     0.32934525   -0.65587715   -0.19183960
     atom   22 type  2   force =    -0.49845891    1.34858518  -37.96814919
     atom   23 type  2   force =     0.05818424   -0.78083590   38.57173872
     atom   24 type  1   force =     0.15400558   -0.44188379   -4.59566687
     atom   25 type  2   force =    -0.76623211   -0.19854992  -38.82816852
     atom   26 type  2   force =     0.20317694   -0.03250852   37.54065095
     atom   27 type  1   force =    -1.03617450    0.39258382    3.99900127
     atom   28 type  2   force =    -0.85017144    0.58856624  -37.05442526
     atom   29 type  2   force =     0.09868701    0.70294375   37.79621821
     atom   30 type  1   force =    -2.06857159   -0.65420891    3.68117613
     atom   31 type  2   force =    -2.50302141   -0.09156118  -36.32566318
     atom   32 type  2   force =     0.24954396    0.01124035   39.16151672
     atom   33 type  1   force =    -1.12574242    0.14066905   -1.03392997
     atom   34 type  2   force =    -0.73066306    0.22110764  -38.63482257
     atom   35 type  2   force =     0.14185295   -0.74992975   38.28188141
     atom   36 type  3   force =     0.02638116    0.29431649  -46.36320861
     The core correction contribution to forces
     atom    1 type  1   force =     0.00000000    0.00000000    0.00000000
     atom    2 type  2   force =     0.00037260    0.00001208    0.02102876
     atom    3 type  2   force =     0.00068480    0.00008284   -0.02092873
     atom    4 type  1   force =     0.00000000    0.00000000    0.00000000
     atom    5 type  2   force =    -0.00028000    0.00184030    0.02104955
     atom    6 type  2   force =     0.00044318   -0.00112153   -0.02087953
     atom    7 type  1   force =     0.00000000    0.00000000    0.00000000
     atom    8 type  2   force =    -0.00618876    0.00619974   -0.01655766
     atom    9 type  2   force =    -0.00015003    0.00035870   -0.02138328
     atom   10 type  1   force =     0.00000000    0.00000000    0.00000000
     atom   11 type  2   force =    -0.00049808    0.00015853    0.02115244
     atom   12 type  2   force =     0.00107900    0.00124451   -0.02078197
     atom   13 type  1   force =     0.00000000    0.00000000    0.00000000
     atom   14 type  2   force =    -0.00059306    0.00021875    0.02090341
     atom   15 type  2   force =     0.00073042    0.00042465   -0.02062811
     atom   16 type  1   force =     0.00000000    0.00000000    0.00000000
     atom   17 type  2   force =    -0.00016360    0.00153161    0.02051310
     atom   18 type  2   force =    -0.00000208   -0.00060068   -0.02110471
     atom   19 type  1   force =     0.00000000    0.00000000    0.00000000
     atom   20 type  2   force =     0.00023886    0.00092877   -0.02108174
     atom   21 type  1   force =     0.00000000    0.00000000    0.00000000
     atom   22 type  2   force =     0.00020193   -0.00038900    0.02088740
     atom   23 type  2   force =    -0.00065543    0.00129809   -0.02091335
     atom   24 type  1   force =     0.00000000    0.00000000    0.00000000
     atom   25 type  2   force =    -0.00004047   -0.00033673    0.02093783
     atom   26 type  2   force =    -0.00019476    0.00069205   -0.02091092
     atom   27 type  1   force =     0.00000000    0.00000000    0.00000000
     atom   28 type  2   force =    -0.00047841    0.00232027    0.02178555
     atom   29 type  2   force =    -0.00071803   -0.00060606   -0.02044548
     atom   30 type  1   force =     0.00000000    0.00000000    0.00000000
     atom   31 type  2   force =    -0.00044092   -0.00006480    0.02142635
     atom   32 type  2   force =    -0.00033662    0.00071636   -0.02075207
     atom   33 type  1   force =     0.00000000    0.00000000    0.00000000
     atom   34 type  2   force =     0.00050721    0.00100464    0.02175227
     atom   35 type  2   force =     0.00002075    0.00092950   -0.02104320
     atom   36 type  3   force =     0.00598381   -0.00504621    0.01819108
     The Hubbard contrib.    to forces
     atom    1 type  1   force =     0.00000000    0.00000000    0.00000000
     atom    2 type  2   force =     0.00000000    0.00000000    0.00000000
     atom    3 type  2   force =     0.00000000    0.00000000    0.00000000
     atom    4 type  1   force =     0.00000000    0.00000000    0.00000000
     atom    5 type  2   force =     0.00000000    0.00000000    0.00000000
     atom    6 type  2   force =     0.00000000    0.00000000    0.00000000
     atom    7 type  1   force =     0.00000000    0.00000000    0.00000000
     atom    8 type  2   force =     0.00000000    0.00000000    0.00000000
     atom    9 type  2   force =     0.00000000    0.00000000    0.00000000
     atom   10 type  1   force =     0.00000000    0.00000000    0.00000000
     atom   11 type  2   force =     0.00000000    0.00000000    0.00000000
     atom   12 type  2   force =     0.00000000    0.00000000    0.00000000
     atom   13 type  1   force =     0.00000000    0.00000000    0.00000000
     atom   14 type  2   force =     0.00000000    0.00000000    0.00000000
     atom   15 type  2   force =     0.00000000    0.00000000    0.00000000
     atom   16 type  1   force =     0.00000000    0.00000000    0.00000000
     atom   17 type  2   force =     0.00000000    0.00000000    0.00000000
     atom   18 type  2   force =     0.00000000    0.00000000    0.00000000
     atom   19 type  1   force =     0.00000000    0.00000000    0.00000000
     atom   20 type  2   force =     0.00000000    0.00000000    0.00000000
     atom   21 type  1   force =     0.00000000    0.00000000    0.00000000
     atom   22 type  2   force =     0.00000000    0.00000000    0.00000000
     atom   23 type  2   force =     0.00000000    0.00000000    0.00000000
     atom   24 type  1   force =     0.00000000    0.00000000    0.00000000
     atom   25 type  2   force =     0.00000000    0.00000000    0.00000000
     atom   26 type  2   force =     0.00000000    0.00000000    0.00000000
     atom   27 type  1   force =     0.00000000    0.00000000    0.00000000
     atom   28 type  2   force =     0.00000000    0.00000000    0.00000000
     atom   29 type  2   force =     0.00000000    0.00000000    0.00000000
     atom   30 type  1   force =     0.00000000    0.00000000    0.00000000
     atom   31 type  2   force =     0.00000000    0.00000000    0.00000000
     atom   32 type  2   force =     0.00000000    0.00000000    0.00000000
     atom   33 type  1   force =     0.00000000    0.00000000    0.00000000
     atom   34 type  2   force =     0.00000000    0.00000000    0.00000000
     atom   35 type  2   force =     0.00000000    0.00000000    0.00000000
     atom   36 type  3   force =     0.00000000    0.00000000    0.00000000
     The SCF correction term to forces
     atom    1 type  1   force =    -0.00005125   -0.00009984    0.00019974
     atom    2 type  2   force =    -0.00000228    0.00000811   -0.00007645
     atom    3 type  2   force =    -0.00000106    0.00000639    0.00020901
     atom    4 type  1   force =     0.00002889   -0.00026343   -0.00005707
     atom    5 type  2   force =    -0.00005823   -0.00020458   -0.00021308
     atom    6 type  2   force =     0.00003034   -0.00005017    0.00020846
     atom    7 type  1   force =    -0.00005713    0.00009396   -0.00003863
     atom    8 type  2   force =    -0.00003123    0.00000506   -0.00042596
     atom    9 type  2   force =     0.00002170   -0.00002817    0.00015462
     atom   10 type  1   force =     0.00002129    0.00023734    0.00010667
     atom   11 type  2   force =    -0.00007960    0.00018856   -0.00013612
     atom   12 type  2   force =    -0.00001056    0.00005937    0.00015637
     atom   13 type  1   force =     0.00000395   -0.00011495    0.00028949
     atom   14 type  2   force =    -0.00004776    0.00000355   -0.00002971
     atom   15 type  2   force =    -0.00001234    0.00000118    0.00022427
     atom   16 type  1   force =    -0.00007207   -0.00023021    0.00012911
     atom   17 type  2   force =    -0.00001257   -0.00013705   -0.00006777
     atom   18 type  2   force =    -0.00001359   -0.00005317    0.00019865
     atom   19 type  1   force =    -0.00007934    0.00013417    0.00013377
     atom   20 type  2   force =    -0.00002950    0.00001582    0.00015014
     atom   21 type  1   force =    -0.00012403    0.00021659    0.00020272
     atom   22 type  2   force =    -0.00001411    0.00011999   -0.00006584
     atom   23 type  2   force =    -0.00000575    0.00003475    0.00020409
     atom   24 type  1   force =     0.00005341   -0.00007402    0.00020322
     atom   25 type  2   force =     0.00005070    0.00000319   -0.00004142
     atom   26 type  2   force =     0.00001507    0.00000187    0.00022615
     atom   27 type  1   force =     0.00004972   -0.00016995    0.00012750
     atom   28 type  2   force =     0.00006929   -0.00020887   -0.00023453
     atom   29 type  2   force =    -0.00001812   -0.00003426    0.00021489
     atom   30 type  1   force =     0.00014677    0.00009617   -0.00009263
     atom   31 type  2   force =     0.00012857    0.00002275   -0.00020240
     atom   32 type  2   force =     0.00000794    0.00001571    0.00017818
     atom   33 type  1   force =     0.00010574    0.00017085    0.00021595
     atom   34 type  2   force =     0.00008397    0.00018695   -0.00015676
     atom   35 type  2   force =     0.00001872    0.00003428    0.00016708
     atom   36 type  3   force =    -0.00002650    0.00001186   -0.00063118

     Total force =     0.413996     Total SCF correction =     0.001493
     Energy error            =      2.7E-01 Ry
     Gradient error          =      3.0E-01 Ry/Bohr

     number of scf cycles    =   2
     number of bfgs steps    =   1

     energy             old  =   -2246.0588363751 Ry
     energy             new  =   -2246.3311534029 Ry

     CASE: energy            _new < energy            _old

     new trust radius        =       0.1442847264 bohr
     new conv_thr            =       0.0000003012 Ry


ATOMIC_POSITIONS (angstrom)
Mo            6.5807121303        1.7732535531        2.8261227464
S             8.1676590615        0.8199073392        4.4351144763
S             8.1858411948        0.8172387807        1.2750874206
Mo            8.0914000287        4.4751960366        2.6881039661
S             6.5022060333        3.7205750591        4.3460231114
S             6.5518754377        3.5171643110        1.1211786182
Mo            6.4489534422        7.2303776790        2.6429841726
S             8.0622742803        6.3711026394        4.0524322344
S             8.0890558279        6.3089071177        1.0860617783
Mo            8.1547748315        9.9083400745        2.8270409791
S             6.4992485179        8.9436397454        4.3824151960
S             6.6176206572        9.0516620483        1.1429013467
Mo            3.4247187217        1.7497552096        2.7731133734
S             4.9799682174        0.8165111928        4.3589253740
S             5.0500627305        0.8482602144        1.2215272627
Mo            4.9818847576        4.5206135926        2.6359046752
S             3.4320382407        3.6713615590        4.2806216898
S             3.4363156069        3.5440613380        1.0660540983
Mo            3.4535798281        7.2096700969        2.6281638660
S             4.9853793367        6.3212940491        1.0352681579
Mo            5.0103197585        9.9036695295        2.7422739436
S             3.4693848522        8.9431963335        4.3241183532
S             3.4087365258        9.0654585920        1.1021506708
Mo            0.2912319529        1.7467992811        2.8356447773
S             1.8608183335        0.8044827359        4.4025082874
S             1.8540648275        0.8539624144        1.2068812053
Mo            1.8602567995        4.4965570956        2.6655174682
S             0.2708895063        3.6554170682        4.3354782763
S             0.2353730193        3.5260635554        1.1698269891
Mo            0.2832402240        7.2338268978        2.6811696388
S             1.9043229599        6.3142041993        4.2316413409
S             1.8583432599        6.3129405916        1.0504235415
Mo            1.8515668298        9.9360512371        2.7666168881
S             0.2958209627        9.0620260737        4.4090566504
S             0.2711583392        9.0505768987        1.1596859878
O             8.4572588668        6.0284333813        5.6182842576



     Writing config-only to output data dir ./MoS2-V-O.save/
     NEW-OLD atomic charge density approx. for the potential

     negative rho (up, down):  1.737E-04 0.000E+00

     total cpu time spent up to now is      245.8 secs

     Self-consistent Calculation

     iteration #  1     ecut=    80.00 Ry     beta= 0.70
     Davidson diagonalization with overlap
     ethr =  1.00E-06,  avg # of iterations = 17.0

     negative rho (up, down):  1.236E-04 0.000E+00

     total cpu time spent up to now is      260.4 secs

     total energy              =   -2246.38449390 Ry
     estimated scf accuracy    <       0.01174322 Ry

     iteration #  2     ecut=    80.00 Ry     beta= 0.70
     Davidson diagonalization with overlap
     ethr =  3.76E-06,  avg # of iterations =  2.0

     negative rho (up, down):  1.206E-04 0.000E+00

     total cpu time spent up to now is      269.6 secs

     total energy              =   -2246.38467907 Ry
     estimated scf accuracy    <       0.00282790 Ry

     iteration #  3     ecut=    80.00 Ry     beta= 0.70
     Davidson diagonalization with overlap
     ethr =  9.06E-07,  avg # of iterations =  2.0

     negative rho (up, down):  1.415E-04 0.000E+00

     total cpu time spent up to now is      283.5 secs

     total energy              =   -2246.38472356 Ry
     estimated scf accuracy    <       0.00078010 Ry

     iteration #  4     ecut=    80.00 Ry     beta= 0.70
     Davidson diagonalization with overlap
     ethr =  2.50E-07,  avg # of iterations =  6.0

     negative rho (up, down):  1.345E-04 0.000E+00

     total cpu time spent up to now is      298.4 secs

     total energy              =   -2246.38483193 Ry
     estimated scf accuracy    <       0.00007758 Ry

     iteration #  5     ecut=    80.00 Ry     beta= 0.70
     Davidson diagonalization with overlap
     ethr =  2.49E-08,  avg # of iterations =  5.0

     negative rho (up, down):  1.143E-04 0.000E+00

     total cpu time spent up to now is      311.3 secs

     total energy              =   -2246.38484574 Ry
     estimated scf accuracy    <       0.00002361 Ry

     iteration #  6     ecut=    80.00 Ry     beta= 0.70
     Davidson diagonalization with overlap
     ethr =  7.57E-09,  avg # of iterations =  3.0

     negative rho (up, down):  8.783E-05 0.000E+00

     total cpu time spent up to now is      322.7 secs

     total energy              =   -2246.38484777 Ry
     estimated scf accuracy    <       0.00000732 Ry

     iteration #  7     ecut=    80.00 Ry     beta= 0.70
     Davidson diagonalization with overlap
     ethr =  2.35E-09,  avg # of iterations =  2.0

     negative rho (up, down):  6.498E-05 0.000E+00

     total cpu time spent up to now is      335.6 secs

     total energy              =   -2246.38484913 Ry
     estimated scf accuracy    <       0.00000249 Ry

     iteration #  8     ecut=    80.00 Ry     beta= 0.70
     Davidson diagonalization with overlap
     ethr =  7.99E-10,  avg # of iterations =  5.0

     negative rho (up, down):  6.289E-05 0.000E+00

     total cpu time spent up to now is      347.4 secs

     total energy              =   -2246.38485027 Ry
     estimated scf accuracy    <       0.00000069 Ry

     iteration #  9     ecut=    80.00 Ry     beta= 0.70
     Davidson diagonalization with overlap
     ethr =  2.20E-10,  avg # of iterations =  4.0

     negative rho (up, down):  1.721E-04 0.000E+00

     total cpu time spent up to now is      350.8 secs

     End of self-consistent calculation

          k = 0.0000 0.0000 0.0000 (105382 PWs)   bands (ev):

   -63.0694 -63.0542 -63.0238 -63.0161 -63.0127 -63.0068 -62.9985 -62.9961
   -62.9873 -62.9814 -62.9484 -62.9170 -37.4379 -37.3720 -37.3290 -37.3228
   -37.3089 -37.2952 -37.2707 -37.2607 -37.2575 -37.2511 -37.2323 -37.2181
   -37.2090 -37.2017 -37.1929 -37.1885 -37.1862 -37.1813 -37.1791 -37.1732
   -37.1662 -37.1568 -37.1459 -37.1274 -37.1128 -37.1051 -37.0945 -37.0907
   -37.0854 -37.0587 -37.0465 -37.0267 -37.0175 -36.9841 -36.9731 -36.9327
   -20.4940 -16.1313 -15.3696 -15.3030 -15.1635 -15.0629 -14.9279 -14.6987
   -14.6575 -14.5983 -14.5676 -14.5593 -14.5136 -14.4682 -14.4276 -14.3217
   -14.2962 -14.2729 -14.2294 -14.1288 -14.0601 -14.0512 -14.0047 -13.9483
    -7.9743  -7.7591  -7.7102  -7.6437  -7.4413  -7.4210  -7.4024  -7.3730
    -7.2529  -7.0662  -7.0282  -6.9957  -6.8886  -6.8464  -6.7712  -6.6286
    -6.6061  -6.5670  -6.4649  -6.3932  -6.2039  -6.1570  -6.0806  -6.0289
    -5.9747  -5.9437  -5.9271  -5.8828  -5.8641  -5.8424  -5.7561  -5.7140
    -5.6941  -5.6278  -5.6154  -5.3794  -5.3239  -5.2866  -5.2260  -5.1788
    -5.1360  -5.0947  -5.0419  -4.8796  -4.7946  -4.7248  -4.5183  -4.4901
    -4.4474  -4.4208  -4.2636  -4.2201  -4.1302  -4.0691  -4.0209  -3.9566
    -3.9037  -3.8506  -3.8175  -3.7401  -3.7159  -3.6884  -3.6671  -3.6150
    -3.5930  -3.5665  -3.4167  -3.3642  -3.1414  -3.1290  -3.0667  -3.0123
    -2.9748  -2.9528  -2.9001  -2.8783  -2.8292  -2.7833  -2.5964  -2.5324
    -2.3672  -2.1805  -2.1635  -2.1078  -1.0549  -0.9717  -0.3957  -0.3747
    -0.2266  -0.2016  -0.1539  -0.0449  -0.0256   0.0604   0.0724   0.1080
     0.1585   0.1991   0.3033   0.3213   0.3516   0.3963   0.4170   0.5009
     0.5360   0.5810   0.5958   0.6220   0.6639   0.6921   0.7334   0.8237
     0.8671   0.8889   1.0667

     the Fermi energy is    -1.5811 ev

!    total energy              =   -2246.38485061 Ry
     estimated scf accuracy    <       0.00000024 Ry
     smearing contrib. (-TS)   =      -0.00000000 Ry
     internal energy E=F+TS    =   -2246.38485060 Ry

     The total energy is F=E-TS. E is the sum of the following terms:
     one-electron contribution =  -18426.51348001 Ry
     hartree contribution      =    9200.32522678 Ry
     xc contribution           =    -392.04928290 Ry
     ewald contribution        =    7381.71798037 Ry
     one-center paw contrib.   =      -9.86529485 Ry

     convergence has been achieved in   9 iterations

     negative rho (up, down):  1.721E-04 0.000E+00

     Forces acting on atoms (cartesian axes, Ry/au):

     atom    1 type  1   force =    -0.00072187   -0.01016099    0.00046146
     atom    2 type  2   force =    -0.00789166    0.00964346   -0.00175333
     atom    3 type  2   force =    -0.00988703    0.00744777   -0.00972416
     atom    4 type  1   force =     0.00361708   -0.01366037   -0.01532520
     atom    5 type  2   force =     0.00564787   -0.00323660   -0.00596414
     atom    6 type  2   force =    -0.00685123    0.00090353   -0.00498207
     atom    7 type  1   force =    -0.00648834   -0.00051817   -0.00100837
     atom    8 type  2   force =     0.07664309   -0.06302164    0.20566855
     atom    9 type  2   force =     0.00614319    0.00747099    0.00068570
     atom   10 type  1   force =    -0.00459079    0.00384314   -0.00647543
     atom   11 type  2   force =     0.00246056   -0.00188076   -0.00628538
     atom   12 type  2   force =    -0.00413918    0.00740906   -0.00613882
     atom   13 type  1   force =     0.00389061    0.00176706   -0.00143088
     atom   14 type  2   force =     0.00498169   -0.00127177    0.00855821
     atom   15 type  2   force =    -0.00848615    0.00212479   -0.00647652
     atom   16 type  1   force =     0.00018268    0.00849975    0.00529507
     atom   17 type  2   force =     0.00567488    0.00032443    0.00132628
     atom   18 type  2   force =    -0.00129612   -0.00374155    0.00950342
     atom   19 type  1   force =     0.00201508   -0.00651045   -0.00079328
     atom   20 type  2   force =    -0.00680372   -0.00905060   -0.01385473
     atom   21 type  1   force =    -0.00545097    0.00592061    0.00181941
     atom   22 type  2   force =    -0.00066546   -0.00146423   -0.00250655
     atom   23 type  2   force =     0.00108431    0.00010538    0.00409201
     atom   24 type  1   force =    -0.00284009   -0.00067530   -0.00727449
     atom   25 type  2   force =     0.01026817    0.01272037   -0.00040645
     atom   26 type  2   force =    -0.00592761   -0.00099945   -0.00447893
     atom   27 type  1   force =    -0.00170688    0.00151971    0.00767548
     atom   28 type  2   force =    -0.00517921   -0.00037966   -0.00765552
     atom   29 type  2   force =     0.00805858   -0.00295166   -0.00927508
     atom   30 type  1   force =     0.01357045    0.00882957   -0.00972926
     atom   31 type  2   force =     0.00128266    0.00362652    0.00739608
     atom   32 type  2   force =    -0.00393840    0.00248433    0.00286625
     atom   33 type  1   force =     0.00310930   -0.00049011    0.00095333
     atom   34 type  2   force =    -0.00091563   -0.03021305   -0.01370827
     atom   35 type  2   force =    -0.00521615    0.01475437    0.00159995
     atom   36 type  3   force =    -0.05963372    0.05083152   -0.12265431
     The non-local contrib.  to forces
     atom    1 type  1   force =     0.00038388    0.03008861   -0.01117575
     atom    2 type  2   force =    -0.00783220   -0.00345573   -0.27392836
     atom    3 type  2   force =    -0.01252936   -0.00445345    0.26582470
     atom    4 type  1   force =    -0.00097827    0.01892300    0.02450277
     atom    5 type  2   force =     0.00339123   -0.03318617   -0.26211029
     atom    6 type  2   force =    -0.00866495    0.00555165    0.26133741
     atom    7 type  1   force =    -0.02179218   -0.00987123   -0.01160589
     atom    8 type  2   force =     0.07570160   -0.09172084    0.41097637
     atom    9 type  2   force =     0.00104504   -0.00651559    0.28640444
     atom   10 type  1   force =     0.00584919    0.00518092   -0.00216024
     atom   11 type  2   force =     0.00822268   -0.00668135   -0.26897441
     atom   12 type  2   force =    -0.01419232   -0.01324215    0.25537980
[...]
     atom   28 type  2   force =    -0.00160630   -0.01066839   -0.27817615
     atom   29 type  2   force =    -0.00115215   -0.00767278    0.26770678
     atom   30 type  1   force =    -0.00464702    0.00355531    0.02040872
     atom   31 type  2   force =    -0.00837883    0.00001910   -0.26896272
     atom   32 type  2   force =     0.00921504   -0.01448039    0.26330250
     atom   33 type  1   force =     0.00049347    0.00709840    0.00407292
     atom   34 type  2   force =     0.00043237   -0.00736263   -0.27667468
     atom   35 type  2   force =     0.00064759   -0.01541272    0.26417145
     atom   36 type  3   force =     0.01457383    0.04827821   -2.31119773
     The ionic contribution  to forces
     atom    1 type  1   force =    -0.29226364    0.23802401    1.98872199
     atom    2 type  2   force =    -0.14388017    0.07853194   38.57688214
     atom    3 type  2   force =     0.06600863   -0.05207401  -37.77998597
     atom    4 type  1   force =    -0.12241148   -0.95288599   -3.93928234
     atom    5 type  2   force =    -1.44399030    0.10958783   37.63472456
     atom    6 type  2   force =     0.10579104   -0.51803694  -38.73052604
     atom    7 type  1   force =    -3.38371329   -1.45739124   -2.00571088
     atom    8 type  2   force =    -1.16788481    0.22834842   27.93736998
     atom    9 type  2   force =     0.34865978    0.00799424  -38.62024672
     atom   10 type  1   force =    -0.38269313    0.62849850    1.93701497
     atom   11 type  2   force =    -1.05592904   -0.32697190   37.97697653
     atom   12 type  2   force =     0.21361151    0.57778128  -38.71391574
     atom   13 type  1   force =     0.07440184    0.56805704    2.09048095
     atom   14 type  2   force =    -0.10898256   -0.02097591   38.57365045
     atom   15 type  2   force =    -0.03020381   -0.08902730  -37.87005513
     atom   16 type  1   force =    -0.56118136    2.72816193    0.56096079
     atom   17 type  2   force =     0.77601306    0.83308485   38.01458043
     atom   18 type  2   force =    -0.17900223   -0.52147077  -38.40424304
     atom   19 type  1   force =     2.61700255   -1.57569062    0.94501187
     atom   20 type  2   force =    -0.08010526   -0.11074532  -39.59564764
     atom   21 type  1   force =    -0.32214539    0.40455515    0.46718186
     atom   22 type  2   force =     0.39999864   -1.10232243   38.29171601
     atom   23 type  2   force =    -0.24870469    0.49711778  -38.36752794
     atom   24 type  1   force =     0.15949823   -0.08072410    1.39243372
     atom   25 type  2   force =     0.27005064    0.09217774   38.70572621
     atom   26 type  2   force =    -0.01039278   -0.04207754  -37.87942672
     atom   27 type  1   force =     0.61114240   -0.34466430   -1.14478059
     atom   28 type  2   force =     0.63854258   -0.48204864   37.44433706
     atom   29 type  2   force =     0.10905709   -0.26904656  -38.45787078
     atom   30 type  1   force =     1.02642515   -0.01858866   -1.90846928
     atom   31 type  2   force =     2.01958830    0.02429439   37.59989950
     atom   32 type  2   force =    -0.29187545   -0.04467724  -38.78617816
     atom   33 type  1   force =     0.76707802    0.23397178    1.99443309
     atom   34 type  2   force =     0.54526280    0.60563238   38.30681135
     atom   35 type  2   force =     0.00338498    0.37262653  -38.20883986
     atom   36 type  3   force =    -0.92615786   -0.21902631   49.97379337
     The local contribution  to forces
     atom    1 type  1   force =     0.29825303   -0.26225796   -1.98221996
     atom    2 type  2   force =     0.14560012   -0.06790743  -38.32772285
     atom    3 type  2   force =    -0.06333684    0.06139960   37.53244116
     atom    4 type  1   force =     0.12048289    0.93040424    3.91647080
     atom    5 type  2   force =     1.44196808   -0.08781363  -37.39514375
     atom    6 type  2   force =    -0.10578691    0.51971965   38.48347216
     atom    7 type  1   force =     3.39152320    1.46533715    2.01144677
     atom    8 type  2   force =     1.16674090   -0.19645012  -28.22586069
     atom    9 type  2   force =    -0.34263348    0.00387369   38.35996967
     atom   10 type  1   force =     0.38170418   -0.63302341   -1.93821861
     atom   11 type  2   force =     1.05153789    0.32959663  -37.73321150
     atom   12 type  2   force =    -0.20534478   -0.56259367   38.47213360
     atom   13 type  1   force =    -0.07510589   -0.59236526   -2.08304065
     atom   14 type  2   force =     0.10730645    0.03113782  -38.32373783
     atom   15 type  2   force =     0.03045680    0.09833467   37.62761513
     atom   16 type  1   force =     0.56020764   -2.75868078   -0.52225003
     atom   17 type  2   force =    -0.77442886   -0.81156829  -37.77724408
     atom   18 type  2   force =     0.17897854    0.52270975   38.15591084
     atom   19 type  1   force =    -2.63299931    1.57087866   -0.91965127
     atom   20 type  2   force =     0.08082277    0.12139511   39.35556063
     atom   21 type  1   force =     0.32315542   -0.43148642   -0.47123548
     atom   22 type  2   force =    -0.39402252    1.10453398  -38.04885631
     atom   23 type  2   force =     0.24064446   -0.48297473   38.12386491
     atom   24 type  1   force =    -0.16287808    0.06794591   -1.39097918
     atom   25 type  2   force =    -0.26880413   -0.08061266  -38.45725561
     atom   26 type  2   force =     0.00839948    0.05156261   37.63406741
     atom   27 type  1   force =    -0.60574130    0.33672984    1.14209252
     atom   28 type  2   force =    -0.63751473    0.49235043  -37.18704116
     atom   29 type  2   force =    -0.10782724    0.27619520   38.21144947
     atom   30 type  1   force =    -1.02256961    0.01501349    1.88831780
     atom   31 type  2   force =    -2.01192716   -0.02431032  -37.35283599
     atom   32 type  2   force =     0.28391235    0.05775449   38.54352169
     atom   33 type  1   force =    -0.76771874   -0.24112937   -1.99847712
     atom   34 type  2   force =    -0.54579768   -0.59744152  -38.05087514
     atom   35 type  2   force =    -0.00384318   -0.35905801   37.96539640
     atom   36 type  3   force =     0.91086209    0.17098474  -47.68684102
     The core correction contribution to forces
     atom    1 type  1   force =     0.00000000    0.00000000    0.00000000
     atom    2 type  2   force =     0.00007464    0.00051077    0.02098831
     atom    3 type  2   force =     0.00011639    0.00035229   -0.02092957
     atom    4 type  1   force =     0.00000000    0.00000000    0.00000000
     atom    5 type  2   force =    -0.00025818    0.00110504    0.02082391
     atom    6 type  2   force =     0.00012744   -0.00039432   -0.02094872
     atom    7 type  1   force =     0.00000000    0.00000000    0.00000000
     atom    8 type  2   force =    -0.00016463    0.00189259   -0.00981110
     atom    9 type  2   force =     0.00064149    0.00079168   -0.02140554
     atom   10 type  1   force =     0.00000000    0.00000000    0.00000000
     atom   11 type  2   force =    -0.00004556   -0.00019067    0.02099001
     atom   12 type  2   force =     0.00068456    0.00126544   -0.02081132
     atom   13 type  1   force =     0.00000000    0.00000000    0.00000000
     atom   14 type  2   force =    -0.00009806    0.00017985    0.02108936
     atom   15 type  2   force =    -0.00000364    0.00041429   -0.02074083
     atom   16 type  1   force =     0.00000000    0.00000000    0.00000000
     atom   17 type  2   force =     0.00028729    0.00103351    0.02052482
     atom   18 type  2   force =    -0.00007082   -0.00046842   -0.02094608
     atom   19 type  1   force =     0.00000000    0.00000000    0.00000000
     atom   20 type  2   force =    -0.00004169    0.00040476   -0.02111443
     atom   21 type  1   force =     0.00000000    0.00000000    0.00000000
     atom   22 type  2   force =     0.00009989   -0.00019323    0.02084586
     atom   23 type  2   force =    -0.00067933    0.00104605   -0.02079296
     atom   24 type  1   force =     0.00000000    0.00000000    0.00000000
     atom   25 type  2   force =     0.00004752    0.00054468    0.02100289
     atom   26 type  2   force =    -0.00015330    0.00040588   -0.02090139
     atom   27 type  1   force =     0.00000000    0.00000000    0.00000000
     atom   28 type  2   force =     0.00008620    0.00080704    0.02148097
     atom   29 type  2   force =     0.00012395    0.00018935   -0.02081577
     atom   30 type  1   force =     0.00000000    0.00000000    0.00000000
     atom   31 type  2   force =     0.00039087    0.00016126    0.02123500
     atom   32 type  2   force =    -0.00074330    0.00070056   -0.02075839
     atom   33 type  1   force =     0.00000000    0.00000000    0.00000000
     atom   34 type  2   force =    -0.00007274    0.00026047    0.02151559
     atom   35 type  2   force =    -0.00011458    0.00094922   -0.02084121
     atom   36 type  3   force =    -0.00016012   -0.00049383    0.02447581
     The Hubbard contrib.    to forces
     atom    1 type  1   force =     0.00000000    0.00000000    0.00000000
     atom    2 type  2   force =     0.00000000    0.00000000    0.00000000
     atom    3 type  2   force =     0.00000000    0.00000000    0.00000000
     atom    4 type  1   force =     0.00000000    0.00000000    0.00000000
     atom    5 type  2   force =     0.00000000    0.00000000    0.00000000
     atom    6 type  2   force =     0.00000000    0.00000000    0.00000000
     atom    7 type  1   force =     0.00000000    0.00000000    0.00000000
     atom    8 type  2   force =     0.00000000    0.00000000    0.00000000
     atom    9 type  2   force =     0.00000000    0.00000000    0.00000000
     atom   10 type  1   force =     0.00000000    0.00000000    0.00000000
     atom   11 type  2   force =     0.00000000    0.00000000    0.00000000
     atom   12 type  2   force =     0.00000000    0.00000000    0.00000000
     atom   13 type  1   force =     0.00000000    0.00000000    0.00000000
     atom   14 type  2   force =     0.00000000    0.00000000    0.00000000
     atom   15 type  2   force =     0.00000000    0.00000000    0.00000000
     atom   16 type  1   force =     0.00000000    0.00000000    0.00000000
     atom   17 type  2   force =     0.00000000    0.00000000    0.00000000
     atom   18 type  2   force =     0.00000000    0.00000000    0.00000000
     atom   19 type  1   force =     0.00000000    0.00000000    0.00000000
     atom   20 type  2   force =     0.00000000    0.00000000    0.00000000
     atom   21 type  1   force =     0.00000000    0.00000000    0.00000000
     atom   22 type  2   force =     0.00000000    0.00000000    0.00000000
     atom   23 type  2   force =     0.00000000    0.00000000    0.00000000
     atom   24 type  1   force =     0.00000000    0.00000000    0.00000000
     atom   25 type  2   force =     0.00000000    0.00000000    0.00000000
     atom   26 type  2   force =     0.00000000    0.00000000    0.00000000
     atom   27 type  1   force =     0.00000000    0.00000000    0.00000000
     atom   28 type  2   force =     0.00000000    0.00000000    0.00000000
     atom   29 type  2   force =     0.00000000    0.00000000    0.00000000
     atom   30 type  1   force =     0.00000000    0.00000000    0.00000000
     atom   31 type  2   force =     0.00000000    0.00000000    0.00000000
     atom   32 type  2   force =     0.00000000    0.00000000    0.00000000
     atom   33 type  1   force =     0.00000000    0.00000000    0.00000000
     atom   34 type  2   force =     0.00000000    0.00000000    0.00000000
     atom   35 type  2   force =     0.00000000    0.00000000    0.00000000
     atom   36 type  3   force =     0.00000000    0.00000000    0.00000000
     The SCF correction term to forces
     atom    1 type  1   force =     0.00001731    0.00001523    0.00001202
     atom    2 type  2   force =    -0.00000827    0.00000652    0.00000918
     atom    3 type  2   force =    -0.00000334    0.00000401   -0.00000738
     atom    4 type  1   force =     0.00000345    0.00003798    0.00002395
     atom    5 type  2   force =     0.00000775    0.00001216    0.00000456
     atom    6 type  2   force =     0.00000135    0.00000686   -0.00000070
     atom    7 type  1   force =     0.00002652   -0.00003342    0.00002275
     atom    8 type  2   force =     0.00001794   -0.00000383   -0.00000306
     atom    9 type  2   force =     0.00000657   -0.00000349    0.00001692
     atom   10 type  1   force =     0.00000544   -0.00002372    0.00000935
     atom   11 type  2   force =     0.00000432   -0.00000794    0.00001509
     atom   12 type  2   force =     0.00000513   -0.00000312   -0.00000046
     atom   13 type  1   force =     0.00001352    0.00000405   -0.00000136
     atom   14 type  2   force =    -0.00000224   -0.00000051    0.00001302
     atom   15 type  2   force =    -0.00000311    0.00000419   -0.00000262
     atom   16 type  1   force =     0.00000970    0.00000556    0.00000066
     atom   17 type  2   force =     0.00000011    0.00000661    0.00000855
     atom   18 type  2   force =     0.00000366    0.00000879   -0.00000381
     atom   19 type  1   force =    -0.00002757   -0.00001010    0.00000609
     atom   20 type  2   force =    -0.00000628   -0.00001040   -0.00000486
     atom   21 type  1   force =    -0.00000351   -0.00000150    0.00001580
     atom   22 type  2   force =    -0.00000149   -0.00000747    0.00000948
     atom   23 type  2   force =     0.00000069   -0.00000976   -0.00000189
     atom   24 type  1   force =     0.00000551    0.00002574    0.00000489
     atom   25 type  2   force =    -0.00000069    0.00000303    0.00000817
     atom   26 type  2   force =    -0.00000124    0.00000544   -0.00000410
     atom   27 type  1   force =    -0.00001375    0.00002000    0.00000689
     atom   28 type  2   force =    -0.00001361    0.00001825    0.00000640
     atom   29 type  2   force =    -0.00000704    0.00000627   -0.00000080
     atom   30 type  1   force =    -0.00002408   -0.00003419    0.00003222
     atom   31 type  2   force =    -0.00001807    0.00000871    0.00000408
     atom   32 type  2   force =    -0.00000411    0.00000130    0.00000372
     atom   33 type  1   force =    -0.00000186   -0.00002130    0.00001468
     atom   34 type  2   force =    -0.00000236   -0.00002067    0.00001017
     atom   35 type  2   force =     0.00000005   -0.00001319    0.00000090
     atom   36 type  3   force =     0.00005014   -0.00001380   -0.00001070

     Total force =     0.004863     Total SCF correction =     0.000139
     Energy error            =      6.7E-05 Ry
     Gradient error          =      1.6E-03 Ry/Bohr

     bfgs converged in  21 scf cycles and  20 bfgs steps
     (criteria: energy <  1.0E-04 Ry, force <  1.0E-02 Ry/Bohr)

     End of BFGS Geometry Optimization

     Final energy             =   -2246.4507189072 Ry

     File ./MoS2-V-O.bfgs deleted, as requested
Begin final coordinates

ATOMIC_POSITIONS (angstrom)
Mo            6.5610444043        1.7535770283        2.7685773939
S             8.1382816393        0.8445087293        4.3726156289
S             8.1413835045        0.8364715184        1.1871726075
Mo            8.1354020803        4.4633204123        2.6912250132
S             6.5401672157        3.6707782816        4.3142932728
S             6.5458813693        3.5443515156        1.1060692668
Mo            6.5018867472        7.1970934172        2.6435329114
S             8.1056530823        6.3170375528        4.1992747315
S             8.1588495343        6.3256836574        1.1208824070
Mo            8.1387285062        9.9262263902        2.7782392892
S             6.5233352975        8.9236665453        4.3376050117
S             6.5929699619        9.0463620616        1.1199144243
Mo            3.4348020743        1.7457675197        2.7670405980
S             4.9991189895        0.8074325516        4.3589519097
S             4.9978944231        0.8332497542        1.1768816402
Mo            5.0078213473        4.5413031422        2.6601201777
S             3.4799122975        3.6605828996        4.3072721895
S             3.4518606296        3.5490697291        1.1170925971
Mo            3.4846714219        7.1781199636        2.6631284973
S             4.9947060765        6.3014818835        1.0252855411
Mo            5.0026532152        9.9024050776        2.7375059789
S             3.4743599612        8.9450690601        4.3284020227
S             3.4110955530        9.0321105554        1.1321509111
Mo            0.2758083819        1.7422479382        2.7694138048
S             1.8595327924        0.8441394610        4.3712444113
S             1.8549346847        0.8352513674        1.1810235320
Mo            1.8811564274        4.4905733376        2.7079488722
S             0.2747027302        3.6096621936        4.3148623036
S             0.2911749801        3.5430660772        1.1324992350
Mo            0.3093098010        7.2252905105        2.7274872222
S             1.9390475818        6.3037921134        4.2980489524
S             1.8728951857        6.3148949692        1.1021485589
Mo            1.8549650838        9.9319520846        2.7722817269
S             0.2739053623        9.0178731779        4.3691760672
S             0.2686968689        9.0661924905        1.1699191041
O             8.0997466885        6.2819525540        5.6970350077
End final coordinates



     Writing all to output data dir ./MoS2-V-O.save/
 
     init_run     :      4.63s CPU      4.92s WALL (       1 calls)
     electrons    :   1790.27s CPU   1975.28s WALL (      21 calls)
     update_pot   :     60.99s CPU     63.72s WALL (      20 calls)
     forces       :     56.93s CPU     61.44s WALL (      21 calls)

     Called by init_run:
     wfcinit      :      0.50s CPU      0.54s WALL (       1 calls)
     potinit      :      2.35s CPU      2.50s WALL (       1 calls)
     hinit0       :      0.46s CPU      0.48s WALL (       1 calls)

     Called by electrons:
     c_bands      :    269.79s CPU    274.70s WALL (     188 calls)
     sum_band     :    115.90s CPU    129.15s WALL (     188 calls)
     v_of_rho     :    171.90s CPU    197.25s WALL (     198 calls)
     newd         :     59.07s CPU     69.88s WALL (     198 calls)
     PAW_pot      :      7.86s CPU      7.89s WALL (     218 calls)
     mix_rho      :   1186.97s CPU   1316.93s WALL (     188 calls)

     Called by c_bands:
     init_us_2    :      4.49s CPU      4.67s WALL (     397 calls)
     init_us_2:cp :      4.49s CPU      4.67s WALL (     397 calls)
     regterg      :    256.21s CPU    260.90s WALL (     188 calls)

     Called by *egterg:
     rdiaghg      :     16.65s CPU     16.78s WALL (     934 calls)
     h_psi        :    169.31s CPU    170.58s WALL (     966 calls)
     s_psi        :     15.34s CPU     15.39s WALL (     966 calls)
     g_psi        :      0.83s CPU      0.84s WALL (     777 calls)

     Called by h_psi:
     h_psi:calbec :     16.89s CPU     16.96s WALL (     966 calls)
     vloc_psi     :    135.21s CPU    136.34s WALL (     966 calls)
     add_vuspsi   :     15.05s CPU     15.11s WALL (     966 calls)

     General routines
     calbec       :     24.90s CPU     25.00s WALL (    1258 calls)
     fft          :    118.04s CPU    136.57s WALL (   13306 calls)
     ffts         :    527.73s CPU    653.19s WALL (  291784 calls)
     fftw         :     82.16s CPU     82.76s WALL (  113812 calls)
     interpolate  :      2.46s CPU      2.83s WALL (     198 calls)
 
     Parallel routines
 
     PWSCF        :  32m 1.68s CPU  35m16.70s WALL

 
   This run was terminated on:  18:57: 2   1Nov2023            

=------------------------------------------------------------------------------=
   JOB DONE.
=------------------------------------------------------------------------------=
