
     Program PWSCF v.7.2 starts on  1Nov2023 at 16:45:20 

     This program is part of the open-source Quantum ESPRESSO suite
     for quantum simulation of materials; please cite
         "P. Giannozzi et al., J. Phys.:Condens. Matter 21 395502 (2009);
         "P. Giannozzi et al., J. Phys.:Condens. Matter 29 465901 (2017);
         "P. Giannozzi et al., J. Chem. Phys. 152 154105 (2020);
          URL http://www.quantum-espresso.org", 
     in publications or presentations arising from this work. More details at
     http://www.quantum-espresso.org/quote

     Parallel version (MPI & OpenMP), running on      48 processor cores
     Number of MPI processes:                48
     Threads/MPI process:                     1

     MPI processes distributed on     1 nodes
     59798 MiB available memory on the printing compute node when the environment starts
 
     Waiting for input...
     Reading input from standard input
Warning: card &CELL ignored
Warning: card CELL_DYNAMICS = 'BFGS', ignored
Warning: card CELL_DOFREE = '2DXY' ignored
Warning: card / ignored

     Current dimensions of program PWSCF are:
     Max number of different atomic species (ntypx) = 10
     Max number of k-points (npk) =  40000
     Max angular momentum in pseudopotentials (lmaxx) =  4
     file O.pbe-n-kjpaw_psl.0.1.UPF: wavefunction(s)  2P renormalized

     IMPORTANT: XC functional enforced from input :
     Exchange-correlation= RVV10
                           (   1   4  13   4  26   0   0)
     Any further DFT definition will be discarded
     Please, verify this is what you really want


     gamma-point specific algorithms are used
     signal trapping enabled: kill the code with -SIGUSR1 to stop cleanly the simulation 
 
     R & G space division:  proc/nbgrp/npool/nimage =      48
     Subspace diagonalization in iterative solution of the eigenvalue problem:
     one sub-group per band group will be used
     scalapack distributed-memory algorithm (size of sub-group:  2*  2 procs)

 
     Parallelization info
     --------------------
     sticks:   dense  smooth     PW     G-vecs:    dense   smooth      PW
     Min         396     194     47               101632    35090    4376
     Max         398     196     50               101674    35128    4410
     Sum       19091    9389   2349              4879585  1685513  210763
 
     Using Slab Decomposition
 


     bravais-lattice index     =            0
     lattice parameter (alat)  =      17.8707  a.u.
     unit-cell volume          =   17436.2743 (a.u.)^3
     number of atoms/cell      =           36
     number of atomic types    =            3
     number of electrons       =       312.00
     number of Kohn-Sham states=          187
     kinetic-energy cutoff     =      80.0000  Ry
     charge density cutoff     =     650.0000  Ry
     scf convergence threshold =      1.0E-06
     mixing beta               =       0.7000
     number of iterations used =            8  local-TF  mixing
     energy convergence thresh.=      1.0E-04
     force convergence thresh. =      1.0E-02
     Exchange-correlation= RVV10
                           (   1   4  13   4  26   0   0)
     nstep                     =          200


     celldm(1)=  17.870686  celldm(2)=   0.000000  celldm(3)=   0.000000
     celldm(4)=   0.000000  celldm(5)=   0.000000  celldm(6)=   0.000000

     crystal axes: (cart. coord. in units of alat)
               a(1) = (   1.000000   0.000000   0.000000 )  
               a(2) = (   0.000000   1.155671   0.000000 )  
               a(3) = (   0.000000   0.000000   2.643601 )  

     reciprocal axes: (cart. coord. in units 2 pi/alat)
               b(1) = (  1.000000  0.000000  0.000000 )  
               b(2) = (  0.000000  0.865298  0.000000 )  
               b(3) = (  0.000000  0.000000  0.378272 )  


     PseudoPot. # 1 for Mo read from file:
     ../pseudo/Mo_ONCV_PBE-1.0.oncvpsp.upf
     MD5 check sum: 1b5d28e075c9ccadda658a603575cd1f
     Pseudo is Norm-conserving, Zval = 14.0
     Generated using ONCVPSP code by D. R. Hamann
     Using radial grid of 1526 points,  6 beta functions with: 
                l(1) =   0
                l(2) =   0
                l(3) =   1
                l(4) =   1
                l(5) =   2
                l(6) =   2

     PseudoPot. # 2 for S  read from file:
     ../pseudo/s_pbe_v1.4.uspp.F.UPF
     MD5 check sum: 88d86576ff6df21479756cfb9bdac1df
     Pseudo is Ultrasoft + core correction, Zval =  6.0
     Generated by new atomic code, or converted to UPF format
     Using radial grid of  907 points,  6 beta functions with: 
                l(1) =   0
                l(2) =   0
                l(3) =   1
                l(4) =   1
                l(5) =   2
                l(6) =   2
     Q(r) pseudized with  8 coefficients,  rinner =    1.300   1.300   1.300
                                                       1.300   1.300

     PseudoPot. # 3 for O  read from file:
     ../pseudo/O.pbe-n-kjpaw_psl.0.1.UPF
     MD5 check sum: 0234752ac141de4415c5fc33072bef88
     Pseudo is Projector augmented-wave + core cor, Zval =  6.0
     Generated using "atomic" code by A. Dal Corso  v.5.0.99 svn rev. 10869
     Shape of augmentation charge: BESSEL
     Using radial grid of 1095 points,  4 beta functions with: 
                l(1) =   0
                l(2) =   0
                l(3) =   1
                l(4) =   1
     Q(r) pseudized with 0 coefficients 


     atomic species   valence    mass     pseudopotential
        Mo            14.00    95.94000     Mo( 1.00)
        S              6.00    32.06500     S ( 1.00)
        O              6.00    15.99940     O ( 1.00)

     No symmetry found



   Cartesian axes

     site n.     atom                  positions (alat units)
         1           Mo  tau(   1) = (   0.6952221   0.1890506   0.2985846  )
         2           S   tau(   2) = (   0.8646417   0.0856217   0.4689279  )
         3           S   tau(   3) = (   0.8663890   0.0857843   0.1351291  )
         4           Mo  tau(   4) = (   0.8560186   0.4753274   0.2873942  )
         5           S   tau(   5) = (   0.6873294   0.3936244   0.4596353  )
         6           S   tau(   6) = (   0.6929804   0.3713468   0.1185692  )
         7           Mo  tau(   7) = (   0.6862796   0.7633098   0.2825370  )
         8           S   tau(   8) = (   0.8545980   0.6708292   0.4486168  )
         9           S   tau(   9) = (   0.8545123   0.6666874   0.1146125  )
        10           Mo  tau(  10) = (   0.8629403   1.0471007   0.3006803  )
        11           S   tau(  11) = (   0.6868280   0.9456650   0.4634891  )
        12           S   tau(  12) = (   0.6998113   0.9568511   0.1205389  )
        13           Mo  tau(  13) = (   0.3618216   0.1847309   0.2935964  )
        14           S   tau(  14) = (   0.5260962   0.0863870   0.4600448  )
        15           S   tau(  15) = (   0.5348379   0.0894875   0.1297123  )
        16           Mo  tau(  16) = (   0.5265817   0.4772436   0.2784130  )
        17           S   tau(  17) = (   0.3624753   0.3882513   0.4525556  )
        18           S   tau(  18) = (   0.3635411   0.3752055   0.1119148  )
        19           Mo  tau(  19) = (   0.3652268   0.7630864   0.2781795  )
        20           S   tau(  20) = (   0.5269494   0.6690381   0.1096838  )
        21           Mo  tau(  21) = (   0.5300192   1.0470394   0.2900995  )
        22           S   tau(  22) = (   0.3670346   0.9457522   0.4574073  )
        23           S   tau(  23) = (   0.3604225   0.9585725   0.1159032  )
        24           Mo  tau(  24) = (   0.0313099   0.1847895   0.3013130  )
        25           S   tau(  25) = (   0.1956761   0.0838230   0.4650863  )
        26           S   tau(  26) = (   0.1967693   0.0903508   0.1278874  )
        27           Mo  tau(  27) = (   0.1967578   0.4753919   0.2813011  )
        28           S   tau(  28) = (   0.0287851   0.3864324   0.4586755  )
        29           S   tau(  29) = (   0.0244514   0.3729871   0.1239344  )
        30           Mo  tau(  30) = (   0.0286728   0.7631204   0.2856894  )
        31           S   tau(  31) = (   0.2011512   0.6675435   0.4465001  )
        32           S   tau(  32) = (   0.1969214   0.6672839   0.1104564  )
        33           Mo  tau(  33) = (   0.1950294   1.0511147   0.2932237  )
        34           S   tau(  34) = (   0.0312912   0.9612169   0.4667423  )
        35           S   tau(  35) = (   0.0292670   0.9563028   0.1216485  )
        36           O   tau(  36) = (   0.5555556   0.5136314   0.5407634  )

     number of k points=     1  Gaussian smearing, width (Ry)=  0.0100
                       cart. coord. in units 2pi/alat
        k(    1) = (   0.0000000   0.0000000   0.0000000), wk =   2.0000000

     Dense  grid:  2439793 G-vectors     FFT dimensions: ( 150, 180, 384)

     Smooth grid:   842757 G-vectors     FFT dimensions: ( 108, 120, 270)

     Estimated max dynamical RAM per process >     269.22 MB

     Estimated total dynamical RAM >      12.62 GB

     Initial potential from superposition of free atoms

     starting charge     311.9873, renormalised to     312.0000

     negative rho (up, down):  2.726E-04 0.000E+00


---------------------------------------------------------------------------------
Carrying out rVV10 run using the following parameters:
Nqs =      20    Nr_points =    1024   r_max =   100.000
b_value =  6.30000    beta =  0.00901
     q_mesh =  0.00010000  0.00030000  0.00058939  0.00100810
               0.00161396  0.00249058  0.00375900  0.00559430
               0.00824984  0.01209221  0.01765183  0.02569619
               0.03733578  0.05417739  0.07854596  0.11380545
               0.16482331  0.23864234  0.34545298  0.50000000

Gradients computed in Reciprocal space

---------------------------------------------------------------------------------


     Starting wfcs are  216 randomized atomic wfcs
     Checking if some PAW data can be deallocated... 

     total cpu time spent up to now is        6.1 secs

     Self-consistent Calculation

     iteration #  1     ecut=    80.00 Ry     beta= 0.70
     Davidson diagonalization with overlap
     ethr =  1.00E-02,  avg # of iterations =  2.0

     Threshold (ethr) on eigenvalues was too large:
     Diagonalizing with lowered threshold

     Davidson diagonalization with overlap
     ethr =  4.22E-04,  avg # of iterations =  4.0

     negative rho (up, down):  4.043E-08 0.000E+00

     total cpu time spent up to now is       21.3 secs

     total energy              =   -2246.25238302 Ry
     estimated scf accuracy    <       1.57056600 Ry

     iteration #  2     ecut=    80.00 Ry     beta= 0.70
     Davidson diagonalization with overlap
     ethr =  5.03E-04,  avg # of iterations =  3.0

     total cpu time spent up to now is       26.0 secs

     total energy              =   -2246.24433610 Ry
     estimated scf accuracy    <       0.79651417 Ry

     iteration #  3     ecut=    80.00 Ry     beta= 0.70
     Davidson diagonalization with overlap
     ethr =  2.55E-04,  avg # of iterations =  2.0

     total cpu time spent up to now is       29.9 secs

     total energy              =   -2246.23364435 Ry
     estimated scf accuracy    <       0.27067058 Ry

     iteration #  4     ecut=    80.00 Ry     beta= 0.70
     Davidson diagonalization with overlap
     ethr =  8.68E-05,  avg # of iterations =  2.0

     total cpu time spent up to now is       33.8 secs

     total energy              =   -2246.27208066 Ry
     estimated scf accuracy    <       0.04231055 Ry

     iteration #  5     ecut=    80.00 Ry     beta= 0.70
     Davidson diagonalization with overlap
     ethr =  1.36E-05,  avg # of iterations = 20.0

     total cpu time spent up to now is       38.9 secs

     total energy              =   -2246.27497226 Ry
     estimated scf accuracy    <       0.02039122 Ry

     iteration #  6     ecut=    80.00 Ry     beta= 0.70
     Davidson diagonalization with overlap
     ethr =  6.54E-06,  avg # of iterations =  2.0

     total cpu time spent up to now is       42.8 secs

     total energy              =   -2246.27478919 Ry
     estimated scf accuracy    <       0.01361447 Ry

     iteration #  7     ecut=    80.00 Ry     beta= 0.70
     Davidson diagonalization with overlap
     ethr =  4.36E-06,  avg # of iterations =  1.0

     total cpu time spent up to now is       46.3 secs

     total energy              =   -2246.27389979 Ry
     estimated scf accuracy    <       0.00946185 Ry

     iteration #  8     ecut=    80.00 Ry     beta= 0.70
     Davidson diagonalization with overlap
     ethr =  3.03E-06,  avg # of iterations =  1.0

     negative rho (up, down):  3.253E-05 0.000E+00

     total cpu time spent up to now is       53.5 secs

     total energy              =   -2246.27206966 Ry
     estimated scf accuracy    <       0.00616066 Ry

     iteration #  9     ecut=    80.00 Ry     beta= 0.70
     Davidson diagonalization with overlap
     ethr =  1.97E-06,  avg # of iterations =  2.0

     negative rho (up, down):  1.182E-02 0.000E+00

     total cpu time spent up to now is       59.7 secs

     total energy              =   -2246.27190848 Ry
     estimated scf accuracy    <       0.00295144 Ry

     iteration # 10     ecut=    80.00 Ry     beta= 0.70
     Davidson diagonalization with overlap
     ethr =  9.46E-07,  avg # of iterations =  2.0

     negative rho (up, down):  1.779E-02 0.000E+00

     total cpu time spent up to now is       66.0 secs

     total energy              =   -2246.27167244 Ry
     estimated scf accuracy    <       0.00159798 Ry

     iteration # 11     ecut=    80.00 Ry     beta= 0.70
     Davidson diagonalization with overlap
     ethr =  5.12E-07,  avg # of iterations =  2.0

     negative rho (up, down):  2.677E-02 0.000E+00

     total cpu time spent up to now is       73.4 secs

     total energy              =   -2246.27182905 Ry
     estimated scf accuracy    <       0.00075921 Ry

     iteration # 12     ecut=    80.00 Ry     beta= 0.70
     Davidson diagonalization with overlap
     ethr =  2.43E-07,  avg # of iterations =  2.0

     negative rho (up, down):  1.053E-02 0.000E+00

     total cpu time spent up to now is       81.5 secs

     total energy              =   -2246.27173983 Ry
     estimated scf accuracy    <       0.00016255 Ry

     iteration # 13     ecut=    80.00 Ry     beta= 0.70
     Davidson diagonalization with overlap
     ethr =  5.21E-08,  avg # of iterations =  5.0

     negative rho (up, down):  3.243E-03 0.000E+00

     total cpu time spent up to now is       89.9 secs

     total energy              =   -2246.27180394 Ry
     estimated scf accuracy    <       0.00003202 Ry

     iteration # 14     ecut=    80.00 Ry     beta= 0.70
     Davidson diagonalization with overlap
     ethr =  1.03E-08,  avg # of iterations = 13.0

     negative rho (up, down):  1.520E-03 0.000E+00

     total cpu time spent up to now is       99.5 secs

     total energy              =   -2246.27181967 Ry
     estimated scf accuracy    <       0.00000652 Ry

     iteration # 15     ecut=    80.00 Ry     beta= 0.70
     Davidson diagonalization with overlap
     ethr =  2.09E-09,  avg # of iterations =  4.0

     negative rho (up, down):  3.831E-04 0.000E+00

     total cpu time spent up to now is      109.3 secs

     total energy              =   -2246.27181636 Ry
     estimated scf accuracy    <       0.00000258 Ry

     iteration # 16     ecut=    80.00 Ry     beta= 0.70
     Davidson diagonalization with overlap
     ethr =  8.27E-10,  avg # of iterations =  4.0

     negative rho (up, down):  1.759E-04 0.000E+00

     total cpu time spent up to now is      112.8 secs

     End of self-consistent calculation

          k = 0.0000 0.0000 0.0000 (105382 PWs)   bands (ev):

   -63.0042 -62.9820 -62.9671 -62.9602 -62.9297 -62.9174 -62.8938 -62.8917
   -62.8638 -62.8432 -62.8233 -62.7653 -37.3239 -37.3076 -37.2389 -37.2226
   -37.2199 -37.2080 -37.1936 -37.1796 -37.1699 -37.1650 -37.1511 -37.1417
   -37.1304 -37.1227 -37.1093 -37.1006 -37.0884 -37.0815 -37.0779 -37.0661
   -37.0543 -37.0509 -37.0155 -37.0127 -37.0035 -36.9958 -36.9809 -36.9656
   -36.9534 -36.9409 -36.9360 -36.9157 -36.9092 -36.8942 -36.8521 -36.7359
   -19.9394 -16.0154 -15.2122 -15.1944 -15.0831 -14.9842 -14.8369 -14.6594
   -14.5361 -14.5159 -14.4921 -14.4407 -14.4114 -14.3900 -14.3038 -14.2984
   -14.1811 -14.1718 -14.1421 -14.0751 -13.9368 -13.9133 -13.8994 -13.8766
    -7.7636  -7.6762  -7.5541  -7.5188  -7.3527  -7.3234  -7.2863  -7.2693
    -7.0309  -6.9459  -6.9304  -6.8241  -6.8189  -6.6918  -6.6417  -6.5732
    -6.5306  -6.4240  -6.4087  -6.2933  -6.1258  -6.0692  -5.9825  -5.9441
    -5.8404  -5.8299  -5.7944  -5.7753  -5.7339  -5.6931  -5.6569  -5.6086
    -5.5440  -5.4947  -5.4751  -5.3039  -5.2458  -5.2148  -5.1553  -5.0635
    -5.0441  -5.0281  -4.9275  -4.7669  -4.7239  -4.6755  -4.4960  -4.3993
    -4.3327  -4.2657  -4.2301  -4.1615  -4.0829  -4.0109  -3.9415  -3.8600
    -3.8072  -3.7722  -3.6906  -3.6334  -3.5946  -3.5733  -3.5620  -3.5433
    -3.4801  -3.4572  -3.3635  -3.2925  -3.1917  -3.0792  -2.9324  -2.9100
    -2.8415  -2.8129  -2.7428  -2.7336  -2.7255  -2.7100  -2.6064  -2.3304
    -2.2140  -2.1081  -1.8960  -1.6129  -1.3424  -0.7754  -0.4784  -0.2638
    -0.2072  -0.1013  -0.0723  -0.0339   0.0471   0.0989   0.1399   0.1900
     0.2293   0.2670   0.3757   0.4495   0.4644   0.4789   0.5233   0.5447
     0.6137   0.6454   0.6898   0.7068   0.7468   0.7739   0.7991   0.8949
     0.9219   0.9963   1.1771

     the Fermi energy is    -1.4777 ev

!    total energy              =   -2246.27181736 Ry
     estimated scf accuracy    <       0.00000094 Ry
     smearing contrib. (-TS)   =      -0.00420330 Ry
     internal energy E=F+TS    =   -2246.26761406 Ry

     The total energy is F=E-TS. E is the sum of the following terms:
     one-electron contribution =  -18475.76805738 Ry
     hartree contribution      =    9226.07378343 Ry
     xc contribution           =    -391.90145202 Ry
     ewald contribution        =    7405.20167917 Ry
     one-center paw contrib.   =      -9.87356726 Ry

     convergence has been achieved in  16 iterations

     negative rho (up, down):  1.759E-04 0.000E+00

     Forces acting on atoms (cartesian axes, Ry/au):

     atom    1 type  1   force =    -0.01637123   -0.03550443    0.00590468
     atom    2 type  2   force =    -0.01373949    0.01558566    0.00020807
     atom    3 type  2   force =    -0.01201371    0.00906222   -0.00476697
     atom    4 type  1   force =     0.00292200    0.02463005   -0.00351334
     atom    5 type  2   force =    -0.02118637    0.04041785    0.06446798
     atom    6 type  2   force =     0.00136539    0.01273555   -0.00066583
     atom    7 type  1   force =     0.00305679   -0.00910930   -0.01522104
     atom    8 type  2   force =     0.00046959   -0.00292388    0.01880927
     atom    9 type  2   force =     0.01480600    0.00440089    0.00987350
     atom   10 type  1   force =    -0.01049721    0.00972220   -0.02525293
     atom   11 type  2   force =     0.00260759   -0.00325016   -0.00656674
     atom   12 type  2   force =    -0.00137706    0.00192353    0.00798629
     atom   13 type  1   force =    -0.00138410   -0.00128543   -0.01253004
     atom   14 type  2   force =     0.00803139   -0.00387503    0.01411909
     atom   15 type  2   force =    -0.01103345    0.00338702   -0.01258659
     atom   16 type  1   force =    -0.01190163    0.01448154    0.04188828
     atom   17 type  2   force =    -0.02882606   -0.03093044   -0.02507127
     atom   18 type  2   force =    -0.00244172   -0.00167924    0.01105762
     atom   19 type  1   force =     0.01393285    0.00896967   -0.01082750
     atom   20 type  2   force =     0.00125010   -0.00550850    0.00210177
     atom   21 type  1   force =    -0.00250128    0.00251429   -0.00117550
     atom   22 type  2   force =    -0.00175230   -0.00398165   -0.00147760
     atom   23 type  2   force =    -0.00216635    0.00023377    0.00889194
     atom   24 type  1   force =    -0.00493284    0.00004427   -0.02043054
     atom   25 type  2   force =     0.01720795    0.01946014    0.00826489
     atom   26 type  2   force =    -0.01207744   -0.00132014   -0.00303014
     atom   27 type  1   force =    -0.01214435   -0.00669162    0.00853188
     atom   28 type  2   force =     0.00722643   -0.00388752   -0.00496855
     atom   29 type  2   force =     0.00330715   -0.00139454   -0.00366685
     atom   30 type  1   force =    -0.00223283    0.01107914   -0.00596665
     atom   31 type  2   force =     0.00011224    0.00041825    0.01701259
     atom   32 type  2   force =    -0.00859345    0.00414487    0.00561731
     atom   33 type  1   force =     0.01295192   -0.00459772   -0.01079152
     atom   34 type  2   force =     0.00266921   -0.04327034   -0.00894241
     atom   35 type  2   force =    -0.00849598    0.00724933    0.01513317
     atom   36 type  3   force =     0.09375225   -0.03125024   -0.06241634
     The non-local contrib.  to forces
     atom    1 type  1   force =     0.00443936    0.02864565   -0.01682732
     atom    2 type  2   force =    -0.00533408    0.00443419   -0.27079733
     atom    3 type  2   force =    -0.01642701   -0.00371242    0.27079646
     atom    4 type  1   force =     0.00173440   -0.00073129    0.00863007
     atom    5 type  2   force =    -0.33747326    0.27666463   -0.06492181
     atom    6 type  2   force =    -0.01138943    0.01181029    0.26189746
     atom    7 type  1   force =    -0.03239404    0.00403675   -0.01316352
     atom    8 type  2   force =     0.00633006   -0.00905783   -0.25835470
     atom    9 type  2   force =     0.00606319   -0.01473842    0.27709077
     atom   10 type  1   force =     0.00477399   -0.00235420   -0.00017999
     atom   11 type  2   force =     0.01636138    0.00403436   -0.26403814
     atom   12 type  2   force =    -0.01140789   -0.01818411    0.26384377
     atom   13 type  1   force =    -0.01108227    0.02258507   -0.00638073
     atom   14 type  2   force =     0.01082483   -0.01296873   -0.26520177
     atom   15 type  2   force =    -0.00429213   -0.00113375    0.26173123
     atom   16 type  1   force =    -0.00478400    0.04748424   -0.02729760
     atom   17 type  2   force =    -0.01886387   -0.02193029   -0.27305982
     atom   18 type  2   force =     0.00639097    0.00292235    0.27489467
     atom   19 type  1   force =     0.01250702   -0.01877899   -0.00940870
     atom   20 type  2   force =    -0.00055511   -0.02615897    0.26715199
     atom   21 type  1   force =    -0.00276285    0.02049042    0.00542938
     atom   22 type  2   force =    -0.00543303    0.00532839   -0.26167401
     atom   23 type  2   force =     0.00622810   -0.01499707    0.26851096
     atom   24 type  1   force =     0.01565359    0.00290796   -0.01156508
     atom   25 type  2   force =     0.01117969    0.01123839   -0.26200765
     atom   26 type  2   force =    -0.00369066   -0.01115645    0.26386981
     atom   27 type  1   force =     0.00203241    0.01288326    0.01362929
     atom   28 type  2   force =     0.00659648   -0.02005198   -0.27148416
     atom   29 type  2   force =     0.00561534    0.00201153    0.26291120
     atom   30 type  1   force =     0.00036849    0.01756093    0.00740622
     atom   31 type  2   force =    -0.01164803   -0.00144511   -0.25140614
     atom   32 type  2   force =    -0.00393363   -0.00970389    0.27396789
     atom   33 type  1   force =    -0.00641332    0.00786043    0.00638403
     atom   34 type  2   force =    -0.00129418   -0.03580206   -0.27361275
     atom   35 type  2   force =    -0.00333417   -0.01019172    0.27039613
     atom   36 type  3   force =     0.81514219   -0.72218257   -0.93391229
     The ionic contribution  to forces
     atom    1 type  1   force =     1.10384339   -1.48699547    3.81615418
     atom    2 type  2   force =    -0.39903365    0.01622878   39.13337871
     atom    3 type  2   force =    -0.06909943   -0.13113443  -36.61238569
     atom    4 type  1   force =     1.94227195    0.27889422   -1.82109411
     atom    5 type  2   force =     2.85362910   -2.04023017   36.29175912
     atom    6 type  2   force =     0.55908574   -0.75694712  -39.10168112
     atom    7 type  1   force =    -1.61602759   -0.74544517   -0.10940073
     atom    8 type  2   force =     0.24878557    0.80748182   36.85816408
     atom    9 type  2   force =     0.55727349    0.13612678  -38.79075438
     atom   10 type  1   force =    -0.79559002   -0.11965906    4.78230707
     atom   11 type  2   force =    -0.32109620   -0.94212932   38.91920474
     atom   12 type  2   force =     0.51803886    0.86514622  -38.44119997
     atom   13 type  1   force =    -0.29628217   -0.42460872    1.18743818
     atom   14 type  2   force =    -0.00622625   -0.80631822   38.25781194
     atom   15 type  2   force =     0.14348538   -0.29071378  -37.44370932
     atom   16 type  1   force =    -0.76785018    2.98282739   -7.00751017
     atom   17 type  2   force =    -1.88879562   -0.32574972   36.57681417
     atom   18 type  2   force =    -0.40012453   -0.85792013  -39.53752368
     atom   19 type  1   force =     1.60172587   -0.81842592   -1.63399432
     atom   20 type  2   force =     0.18097607    0.09573803  -39.61122008
     atom   21 type  1   force =    -0.01469662    0.37037002    0.05124958
     atom   22 type  2   force =     0.17162319   -1.15271360   38.21489616
     atom   23 type  2   force =    -0.17295421    0.81915742  -38.85589439
     atom   24 type  1   force =    -0.45192274    0.48973660    4.82115007
     atom   25 type  2   force =     0.45026978   -0.04025536   39.12670049
     atom   26 type  2   force =    -0.36525220   -0.06822101  -37.84494497
     atom   27 type  1   force =    -1.23302308    0.18932080   -4.21889105
     atom   28 type  2   force =     0.21009626    0.71215537   37.95514932
     atom   29 type  2   force =    -0.22283007   -0.54667401  -37.91854341
     atom   30 type  1   force =    -0.19789781   -0.23766891   -1.24141622
     atom   31 type  2   force =     0.38147707    0.47530796   36.92726326
     atom   32 type  2   force =    -0.64314685    0.13850307  -39.34649930
     atom   33 type  1   force =     0.55409310   -0.70125307    1.20565430
     atom   34 type  2   force =     0.27418733   -1.21426493   39.23415356
     atom   35 type  2   force =    -0.28608627    0.57925158  -38.29529445
     atom   36 type  3   force =    -1.60292667    4.75108207   44.47270843
     The local contribution  to forces
     atom    1 type  1   force =    -1.12472027    1.42321152   -3.79445570
     atom    2 type  2   force =     0.39045267   -0.00464540  -38.88361955
     atom    3 type  2   force =     0.07265017    0.14394218   36.35731691
     atom    4 type  1   force =    -1.94132832   -0.25356854    1.80790967
     atom    5 type  2   force =    -2.55527227    1.81858321  -36.17280635
     atom    6 type  2   force =    -0.54718963    0.75900975   38.85961904
     atom    7 type  1   force =     1.65159347    0.73207578    0.10618419
     atom    8 type  2   force =    -0.25432027   -0.80217934  -36.60216712
     atom    9 type  2   force =    -0.54846347   -0.11783489   38.54409066
     atom   10 type  1   force =     0.78018970    0.13164001   -4.80852975
     atom   11 type  2   force =     0.30814615    0.93532597  -38.68301411
     atom   12 type  2   force =    -0.50908803   -0.84651858   38.20575167
     atom   13 type  1   force =     0.30622510    0.40099191   -1.19475984
     atom   14 type  2   force =     0.00412393    0.81543051  -37.99973884
     atom   15 type  2   force =    -0.15044951    0.29523030   37.18956995
     atom   16 type  1   force =     0.76094174   -3.01597562    7.07544162
     atom   17 type  2   force =     1.87712090    0.31471225  -36.35126821
     atom   18 type  2   force =     0.39189362    0.85418429   39.29441697
     atom   19 type  1   force =    -1.60024794    0.84600836    1.63136835
     atom   20 type  2   force =    -0.17923768   -0.07628887   39.36696768
     atom   21 type  1   force =     0.01505712   -0.38824205   -0.05905318
     atom   22 type  2   force =    -0.16806290    1.14400049  -37.97575850
     atom   23 type  2   force =     0.16507673   -0.80514432   38.61662597
     atom   24 type  1   force =     0.43116683   -0.49240480   -4.83120382
     atom   25 type  2   force =    -0.44401610    0.04923712  -38.87766668
     atom   26 type  2   force =     0.35700708    0.07750297   37.59844286
     atom   27 type  1   force =     1.21888853   -0.20888399    4.21261339
     atom   28 type  2   force =    -0.20939304   -0.69759252  -37.70989324
     atom   29 type  2   force =     0.22096893    0.54387119   37.67206963
     atom   30 type  1   force =     0.19511579    0.23102492    1.22690948
     atom   31 type  2   force =    -0.37045464   -0.47367732  -36.67971332
     atom   32 type  2   force =     0.63848780   -0.12530819   39.09866365
     atom   33 type  1   force =    -0.53471226    0.68869986   -1.22403978
     atom   34 type  2   force =    -0.27065620    1.20559594  -38.99105249
     atom   35 type  2   force =     0.28092988   -0.56278559   38.06061288
     atom   36 type  3   force =     0.89121051   -4.06806493  -43.61207718
     The core correction contribution to forces
     atom    1 type  1   force =     0.00000000    0.00000000    0.00000000
     atom    2 type  2   force =     0.00007387   -0.00035368    0.02077929
     atom    3 type  2   force =     0.00079304    0.00002470   -0.02093579
     atom    4 type  1   force =     0.00000000    0.00000000    0.00000000
     atom    5 type  2   force =     0.01800375   -0.01470844    0.00992195
     atom    6 type  2   force =     0.00079534   -0.00112890   -0.02086227
     atom    7 type  1   force =     0.00000000    0.00000000    0.00000000
     atom    8 type  2   force =    -0.00033949    0.00081956    0.02074198
     atom    9 type  2   force =    -0.00007655    0.00085211   -0.02098693
     atom   10 type  1   force =     0.00000000    0.00000000    0.00000000
     atom   11 type  2   force =    -0.00076970   -0.00055079    0.02090396
     atom   12 type  2   force =     0.00109309    0.00142278   -0.02088581
     atom   13 type  1   force =     0.00000000    0.00000000    0.00000000
     atom   14 type  2   force =    -0.00061801    0.00008629    0.02077390
     atom   15 type  2   force =     0.00026403    0.00007741   -0.02059027
     atom   16 type  1   force =     0.00000000    0.00000000    0.00000000
     atom   17 type  2   force =     0.00175528    0.00200619    0.02194986
     atom   18 type  2   force =    -0.00052076   -0.00083231   -0.02112417
     atom   19 type  1   force =     0.00000000    0.00000000    0.00000000
     atom   20 type  2   force =     0.00013356    0.00110772   -0.02125925
     atom   21 type  1   force =     0.00000000    0.00000000    0.00000000
     atom   22 type  2   force =     0.00011657   -0.00061007    0.02070702
     atom   23 type  2   force =    -0.00052449    0.00122900   -0.02088552
     atom   24 type  1   force =     0.00000000    0.00000000    0.00000000
     atom   25 type  2   force =    -0.00018899   -0.00074405    0.02080713
     atom   26 type  2   force =    -0.00011563    0.00056319   -0.02088810
     atom   27 type  1   force =     0.00000000    0.00000000    0.00000000
     atom   28 type  2   force =    -0.00012808    0.00166386    0.02082339
     atom   29 type  2   force =    -0.00046117   -0.00056788   -0.02055843
     atom   30 type  1   force =     0.00000000    0.00000000    0.00000000
     atom   31 type  2   force =     0.00066597    0.00019734    0.02047953
     atom   32 type  2   force =    -0.00005958    0.00061710   -0.02100543
     atom   33 type  1   force =     0.00000000    0.00000000    0.00000000
     atom   34 type  2   force =     0.00040994    0.00109543    0.02116647
     atom   35 type  2   force =    -0.00001096    0.00089969   -0.02106592
     atom   36 type  3   force =    -0.00945656    0.00779519    0.01034952
     The Hubbard contrib.    to forces
     atom    1 type  1   force =     0.00000000    0.00000000    0.00000000
     atom    2 type  2   force =     0.00000000    0.00000000    0.00000000
     atom    3 type  2   force =     0.00000000    0.00000000    0.00000000
     atom    4 type  1   force =     0.00000000    0.00000000    0.00000000
     atom    5 type  2   force =     0.00000000    0.00000000    0.00000000
     atom    6 type  2   force =     0.00000000    0.00000000    0.00000000
     atom    7 type  1   force =     0.00000000    0.00000000    0.00000000
     atom    8 type  2   force =     0.00000000    0.00000000    0.00000000
     atom    9 type  2   force =     0.00000000    0.00000000    0.00000000
     atom   10 type  1   force =     0.00000000    0.00000000    0.00000000
     atom   11 type  2   force =     0.00000000    0.00000000    0.00000000
     atom   12 type  2   force =     0.00000000    0.00000000    0.00000000
     atom   13 type  1   force =     0.00000000    0.00000000    0.00000000
     atom   14 type  2   force =     0.00000000    0.00000000    0.00000000
     atom   15 type  2   force =     0.00000000    0.00000000    0.00000000
     atom   16 type  1   force =     0.00000000    0.00000000    0.00000000
     atom   17 type  2   force =     0.00000000    0.00000000    0.00000000
     atom   18 type  2   force =     0.00000000    0.00000000    0.00000000
     atom   19 type  1   force =     0.00000000    0.00000000    0.00000000
     atom   20 type  2   force =     0.00000000    0.00000000    0.00000000
     atom   21 type  1   force =     0.00000000    0.00000000    0.00000000
     atom   22 type  2   force =     0.00000000    0.00000000    0.00000000
     atom   23 type  2   force =     0.00000000    0.00000000    0.00000000
     atom   24 type  1   force =     0.00000000    0.00000000    0.00000000
     atom   25 type  2   force =     0.00000000    0.00000000    0.00000000
     atom   26 type  2   force =     0.00000000    0.00000000    0.00000000
     atom   27 type  1   force =     0.00000000    0.00000000    0.00000000
     atom   28 type  2   force =     0.00000000    0.00000000    0.00000000
     atom   29 type  2   force =     0.00000000    0.00000000    0.00000000
     atom   30 type  1   force =     0.00000000    0.00000000    0.00000000
     atom   31 type  2   force =     0.00000000    0.00000000    0.00000000
     atom   32 type  2   force =     0.00000000    0.00000000    0.00000000
     atom   33 type  1   force =     0.00000000    0.00000000    0.00000000
     atom   34 type  2   force =     0.00000000    0.00000000    0.00000000
     atom   35 type  2   force =     0.00000000    0.00000000    0.00000000
     atom   36 type  3   force =     0.00000000    0.00000000    0.00000000
     The SCF correction term to forces
     atom    1 type  1   force =     0.00006670   -0.00036806    0.00100628
     atom    2 type  2   force =     0.00010210   -0.00008015    0.00043969
     atom    3 type  2   force =     0.00006993   -0.00005973    0.00041390
     atom    4 type  1   force =     0.00024438    0.00003373    0.00101379
     atom    5 type  2   force =    -0.00007329    0.00010669    0.00048782
     atom    6 type  2   force =     0.00006378   -0.00001040    0.00033382
     atom    7 type  1   force =    -0.00011463    0.00022141    0.00113178
     atom    8 type  2   force =     0.00001411    0.00000997    0.00039779
     atom    9 type  2   force =     0.00000975   -0.00000662    0.00040615
     atom   10 type  1   force =     0.00012952    0.00009352    0.00112251
     atom   11 type  2   force =    -0.00003363    0.00006768    0.00034956
     atom   12 type  2   force =    -0.00001268    0.00005528    0.00044939
     atom   13 type  1   force =    -0.00024435   -0.00025561    0.00114512
     atom   14 type  2   force =    -0.00007271   -0.00010681    0.00044662
     atom   15 type  2   force =    -0.00004081   -0.00007510    0.00038457
     atom   16 type  1   force =    -0.00020879    0.00014360    0.00122719
     atom   17 type  2   force =    -0.00004235    0.00002921    0.00046549
     atom   18 type  2   force =    -0.00008062   -0.00003537    0.00036659
     atom   19 type  1   force =    -0.00005170    0.00016429    0.00117992
     atom   20 type  2   force =    -0.00006633    0.00009165    0.00043419
     atom   21 type  1   force =    -0.00009852   -0.00010604    0.00117148
     atom   22 type  2   force =     0.00000427    0.00001121    0.00032449
     atom   23 type  2   force =     0.00000793   -0.00001320    0.00050769
     atom   24 type  1   force =     0.00016989   -0.00019741    0.00116105
     atom   25 type  2   force =    -0.00003603   -0.00001789    0.00040436
     atom   26 type  2   force =    -0.00002561   -0.00001077    0.00046302
     atom   27 type  1   force =    -0.00004180   -0.00001362    0.00115302
     atom   28 type  2   force =     0.00005521   -0.00006418    0.00040889
     atom   29 type  2   force =     0.00001452   -0.00003731    0.00042692
     atom   30 type  1   force =     0.00018109    0.00016026    0.00110662
     atom   31 type  2   force =     0.00007228    0.00003345    0.00036203
     atom   32 type  2   force =     0.00005921    0.00003485    0.00046326
     atom   33 type  1   force =    -0.00001520    0.00009312    0.00118269
     atom   34 type  2   force =     0.00002272    0.00010333    0.00037556
     atom   35 type  2   force =     0.00000595    0.00007344    0.00045729
     atom   36 type  3   force =    -0.00021682    0.00011807    0.00048794

     Total force =     0.189162     Total SCF correction =     0.004539

     BFGS Geometry Optimization
     Energy error            =      0.0E+00 Ry
     Gradient error          =      9.4E-02 Ry/Bohr

     number of scf cycles    =   1
     number of bfgs steps    =   0

     energy             new  =   -2246.2718173599 Ry

     new trust radius        =       0.1168839613 bohr
     new conv_thr            =       0.0000010000 Ry


ATOMIC_POSITIONS (angstrom)
Mo            6.5658851268        1.7690180917        2.8267676557
S             8.1694387126        0.8179515980        4.4346484566
S             8.1868757022        0.8160372653        1.2753608569
Mo            8.0967088206        4.5080906070        2.7159592155
S             6.4886979109        3.7437996937        4.3807756321
S             6.5540723309        3.5184769188        1.1209278856
Mo            6.4915992819        7.2136168509        2.6638298572
S             8.0819762227        6.3423237399        4.2524149983
S             8.0887526451        6.3070311646        1.0890878324
Mo            8.1550641659        9.9073251784        2.8300984886
S             6.4965474726        8.9412069030        4.3796305648
S             6.6172184896        9.0497290987        1.1441334653
Mo            3.4209272290        1.7462756298        2.7698405500
S             4.9794155179        0.8148906301        4.3580045926
S             5.0519951061        0.8480544400        1.2199979242
Mo            4.9734586091        4.5208413040        2.6550508743
S             3.4125875670        3.6552320029        4.2664424323
S             3.4366284789        3.5473400797        1.0642031213
Mo            3.4612346862        7.2210710841        2.6249471977
S             4.9838957191        6.3240173128        1.0383659408
Mo            5.0109402972        9.9029305552        2.7427789153
S             3.4700308400        8.9416442715        4.3248094006
S             3.4072827812        9.0651136887        1.1007737105
Mo            0.2934801405        1.7475329566        2.8386333323
S             1.8595682691        0.8029918681        4.4025830296
S             1.8544089306        0.8537273281        1.2077973727
Mo            1.8542647968        4.4921257084        2.6647122584
S             0.2760379119        3.6523416387        4.3349548559
S             0.2329812759        3.5265112653        1.1700774709
Mo            0.2699705866        7.2225089200        2.6985390115
S             1.9022976448        6.3130201623        4.2314467980
S             1.8576907578        6.3125371822        1.0475318368
Mo            1.8512005237        9.9377061439        2.7672356231
S             0.2973253867        9.0671001477        4.4091373480
S             0.2722755212        9.0473618937        1.1584089086
O             5.3033671084        4.8407519757        5.0808401623



     Writing config-only to output data dir ./MoS2-V-O.save/
     NEW-OLD atomic charge density approx. for the potential

     negative rho (up, down):  2.120E-04 0.000E+00

     total cpu time spent up to now is      120.3 secs

     Self-consistent Calculation

     iteration #  1     ecut=    80.00 Ry     beta= 0.70
     Davidson diagonalization with overlap
     ethr =  1.00E-06,  avg # of iterations = 16.0

     negative rho (up, down):  9.707E-05 0.000E+00

     total cpu time spent up to now is      132.9 secs

     total energy              =   -2246.30318112 Ry
     estimated scf accuracy    <       0.00801058 Ry

     iteration #  2     ecut=    80.00 Ry     beta= 0.70
     Davidson diagonalization with overlap
     ethr =  2.57E-06,  avg # of iterations =  6.0

     negative rho (up, down):  6.796E-05 0.000E+00

     total cpu time spent up to now is      144.8 secs

     total energy              =   -2246.30414109 Ry
     estimated scf accuracy    <       0.00374804 Ry

     iteration #  3     ecut=    80.00 Ry     beta= 0.70
     Davidson diagonalization with overlap
     ethr =  1.20E-06,  avg # of iterations =  5.0

     negative rho (up, down):  3.850E-05 0.000E+00

     total cpu time spent up to now is      158.4 secs

     total energy              =   -2246.30443585 Ry
     estimated scf accuracy    <       0.00035811 Ry

     iteration #  4     ecut=    80.00 Ry     beta= 0.70
     Davidson diagonalization with overlap
     ethr =  1.15E-07,  avg # of iterations =  4.0

     negative rho (up, down):  3.073E-05 0.000E+00

     total cpu time spent up to now is      172.3 secs

     total energy              =   -2246.30446753 Ry
     estimated scf accuracy    <       0.00009307 Ry

     iteration #  5     ecut=    80.00 Ry     beta= 0.70
     Davidson diagonalization with overlap
     ethr =  2.98E-08,  avg # of iterations =  5.0

     negative rho (up, down):  2.583E-05 0.000E+00

     total cpu time spent up to now is      184.0 secs

     total energy              =   -2246.30447421 Ry
     estimated scf accuracy    <       0.00001760 Ry

     iteration #  6     ecut=    80.00 Ry     beta= 0.70
     Davidson diagonalization with overlap
     ethr =  5.64E-09,  avg # of iterations =  5.0

     negative rho (up, down):  2.677E-05 0.000E+00

     total cpu time spent up to now is      196.0 secs

     total energy              =   -2246.30447886 Ry
     estimated scf accuracy    <       0.00000608 Ry

     iteration #  7     ecut=    80.00 Ry     beta= 0.70
     Davidson diagonalization with overlap
     ethr =  1.95E-09,  avg # of iterations =  2.0

     negative rho (up, down):  3.282E-05 0.000E+00

     total cpu time spent up to now is      208.5 secs

     total energy              =   -2246.30447995 Ry
     estimated scf accuracy    <       0.00000138 Ry

     iteration #  8     ecut=    80.00 Ry     beta= 0.70
     Davidson diagonalization with overlap
     ethr =  4.44E-10,  avg # of iterations =  6.0

     negative rho (up, down):  1.795E-04 0.000E+00

     total cpu time spent up to now is      212.2 secs

     End of self-consistent calculation

          k = 0.0000 0.0000 0.0000 (105382 PWs)   bands (ev):

   -63.0225 -62.9784 -62.9617 -62.9483 -62.9159 -62.9059 -62.8884 -62.8718
   -62.8458 -62.8245 -62.7974 -62.7392 -37.3223 -37.3002 -37.2309 -37.2277
   -37.2075 -37.2060 -37.1847 -37.1682 -37.1628 -37.1551 -37.1442 -37.1278
   -37.1198 -37.1075 -37.0964 -37.0910 -37.0804 -37.0703 -37.0592 -37.0558
   -37.0434 -37.0338 -37.0037 -37.0015 -36.9859 -36.9786 -36.9679 -36.9478
   -36.9321 -36.9304 -36.9178 -36.8974 -36.8879 -36.8781 -36.8356 -36.7105
   -20.6372 -15.9998 -15.1961 -15.1806 -15.0540 -14.9641 -14.8204 -14.6320
   -14.5081 -14.4948 -14.4640 -14.4285 -14.3950 -14.3741 -14.2956 -14.2658
   -14.1697 -14.1560 -14.1289 -14.0471 -13.9104 -13.9039 -13.8939 -13.8587
    -7.7836  -7.7628  -7.5699  -7.5591  -7.3394  -7.3131  -7.2722  -7.2565
    -7.0625  -6.9677  -6.9524  -6.8314  -6.8040  -6.6832  -6.6531  -6.5783
    -6.5393  -6.4359  -6.4066  -6.2984  -6.1374  -6.0718  -5.9583  -5.9326
    -5.8312  -5.8176  -5.7897  -5.7580  -5.7228  -5.6848  -5.6490  -5.5994
    -5.5307  -5.4889  -5.4587  -5.3003  -5.2395  -5.2072  -5.1476  -5.0531
    -5.0410  -5.0282  -4.9292  -4.7941  -4.7303  -4.6772  -4.4952  -4.3775
    -4.3201  -4.2534  -4.2210  -4.1669  -4.0781  -4.0154  -3.9497  -3.8623
    -3.7754  -3.7554  -3.6864  -3.6318  -3.5902  -3.5559  -3.5414  -3.5232
    -3.4645  -3.4380  -3.3708  -3.2855  -3.1845  -3.0662  -2.9174  -2.8833
    -2.8353  -2.7988  -2.7412  -2.7319  -2.7194  -2.7135  -2.6236  -2.3161
    -2.2537  -2.0994  -1.9282  -1.6290  -1.2374  -0.7668  -0.4220  -0.2426
    -0.2023  -0.0796  -0.0622  -0.0039   0.0557   0.1073   0.1556   0.2164
     0.2407   0.2854   0.3860   0.4722   0.4816   0.4952   0.5348   0.5572
     0.6208   0.6582   0.6985   0.7135   0.7543   0.7791   0.8379   0.9004
     0.9492   0.9961   1.2080

     the Fermi energy is    -1.4332 ev

!    total energy              =   -2246.30448077 Ry
     estimated scf accuracy    <       0.00000049 Ry
     smearing contrib. (-TS)   =      -0.00142296 Ry
     internal energy E=F+TS    =   -2246.30305781 Ry

     The total energy is F=E-TS. E is the sum of the following terms:
     one-electron contribution =  -18480.26689580 Ry
     hartree contribution      =    9228.40195414 Ry
     xc contribution           =    -391.93645592 Ry
     ewald contribution        =    7407.36904521 Ry
     one-center paw contrib.   =      -9.87070545 Ry

     convergence has been achieved in   8 iterations

     negative rho (up, down):  1.795E-04 0.000E+00

     Forces acting on atoms (cartesian axes, Ry/au):

     atom    1 type  1   force =    -0.01642422   -0.01364848    0.00308988
     atom    2 type  2   force =    -0.01001259    0.01050001   -0.00330623
     atom    3 type  2   force =    -0.01283424    0.00824054   -0.00822264
     atom    4 type  1   force =     0.00078858    0.01445463    0.00150567
     atom    5 type  2   force =    -0.00924437    0.03232231    0.05606274
     atom    6 type  2   force =    -0.00347768    0.01080516    0.00966465
     atom    7 type  1   force =     0.00312268   -0.00641924   -0.00703690
     atom    8 type  2   force =     0.00045372    0.00048666    0.01384019
     atom    9 type  2   force =     0.01389126    0.00457583    0.00464612
     atom   10 type  1   force =    -0.00352042    0.00741344   -0.00866890
     atom   11 type  2   force =     0.00230841   -0.00335277   -0.00841227
     atom   12 type  2   force =    -0.00252964    0.00208020    0.00190345
     atom   13 type  1   force =     0.00278667   -0.00668591   -0.00795494
     atom   14 type  2   force =     0.00233897   -0.00479403    0.01033622
     atom   15 type  2   force =    -0.00926412    0.00097967   -0.01162645
     atom   16 type  1   force =    -0.00668003    0.01230706    0.02618151
     atom   17 type  2   force =    -0.02884359   -0.02824975   -0.01899407
     atom   18 type  2   force =    -0.00064080    0.00195567    0.01087736
     atom   19 type  1   force =     0.00889747    0.00437054   -0.00213622
     atom   20 type  2   force =     0.00092417   -0.00851995    0.00072110
     atom   21 type  1   force =    -0.00288482    0.00227155    0.00178446
     atom   22 type  2   force =     0.00005451   -0.00310245   -0.00147583
     atom   23 type  2   force =    -0.00079068    0.00085309    0.00235743
     atom   24 type  1   force =    -0.00619103    0.00016180   -0.00863029
     atom   25 type  2   force =     0.01139654    0.01373930    0.00085468
     atom   26 type  2   force =    -0.00936259   -0.00203684   -0.00550140
     atom   27 type  1   force =    -0.01118127   -0.00106167    0.00402165
     atom   28 type  2   force =     0.00272843   -0.00350563   -0.00562553
     atom   29 type  2   force =     0.00081795    0.00067294   -0.00445387
     atom   30 type  1   force =    -0.00168345    0.00358174    0.00213722
     atom   31 type  2   force =     0.00136136    0.00112096    0.00967405
     atom   32 type  2   force =    -0.00649914    0.00217539    0.00532294
     atom   33 type  1   force =     0.00581411   -0.00092076    0.00000147
     atom   34 type  2   force =     0.00035544   -0.03143431   -0.01344756
     atom   35 type  2   force =    -0.00657814    0.00765458    0.00828157
     atom   36 type  3   force =     0.09060253   -0.02899125   -0.05777125
     The non-local contrib.  to forces
     atom    1 type  1   force =     0.00474522    0.02280245   -0.01666777
     atom    2 type  2   force =    -0.00215574    0.00214765   -0.27040949
     atom    3 type  2   force =    -0.01643269   -0.00508567    0.26801060
     atom    4 type  1   force =     0.00419483   -0.00048729    0.00836143
     atom    5 type  2   force =    -0.36546055    0.30371230   -0.06187812
     atom    6 type  2   force =    -0.01430618    0.00979281    0.27061991
     atom    7 type  1   force =    -0.03461810    0.00304586   -0.01274380
     atom    8 type  2   force =     0.00558027   -0.00497131   -0.26081996
     atom    9 type  2   force =     0.00506813   -0.01478332    0.27304407
     atom   10 type  1   force =     0.00379656   -0.00307876   -0.00125001
     atom   11 type  2   force =     0.01507806    0.00322360   -0.26643826
     atom   12 type  2   force =    -0.01201212   -0.01882663    0.26073250
     atom   13 type  1   force =    -0.00943423    0.02260728   -0.00690612
     atom   14 type  2   force =     0.00589774   -0.01379805   -0.26478053
     atom   15 type  2   force =    -0.00358791   -0.00408660    0.26211941
     atom   16 type  1   force =    -0.00655429    0.05081481   -0.02800035
     atom   17 type  2   force =    -0.03721514   -0.03346930   -0.26647582
     atom   18 type  2   force =     0.00703701    0.00481868    0.27675741
     atom   19 type  1   force =     0.01415452   -0.01925931   -0.00934195
     atom   20 type  2   force =    -0.00087094   -0.02604164    0.26537933
     atom   21 type  1   force =    -0.00291911    0.01956419    0.00401791
     atom   22 type  2   force =    -0.00307524    0.00593978   -0.26179510
     atom   23 type  2   force =     0.00792111   -0.01469167    0.26479240
     atom   24 type  1   force =     0.01619214    0.00265784   -0.01023605
     atom   25 type  2   force =     0.00707617    0.00685794   -0.26590035
     atom   26 type  2   force =    -0.00150311   -0.01077969    0.26222078
     atom   27 type  1   force =    -0.00053562    0.01110798    0.01179613
     atom   28 type  2   force =     0.00381365   -0.01966009   -0.27119730
     atom   29 type  2   force =     0.00309324    0.00274016    0.26355306
     atom   30 type  1   force =    -0.00006870    0.01847015    0.00723285
     atom   31 type  2   force =    -0.00960484   -0.00125504   -0.25843041
     atom   32 type  2   force =    -0.00175189   -0.01079966    0.27438112
     atom   33 type  1   force =    -0.00465830    0.00563775    0.00503723
     atom   34 type  2   force =    -0.00305854   -0.02638539   -0.27780929
     atom   35 type  2   force =    -0.00242158   -0.00910427    0.26615917
     atom   36 type  3   force =     0.99648165   -0.90055727   -1.03992306
     The ionic contribution  to forces
     atom    1 type  1   force =     1.23668593   -0.72424923    3.98354102
     atom    2 type  2   force =    -0.22279434   -0.02975494   39.12957675
     atom    3 type  2   force =    -0.06973321   -0.01820438  -36.66950672
     atom    4 type  1   force =     1.74319584   -0.28239879   -1.88074624
     atom    5 type  2   force =     3.44431032   -2.67332553   36.23371250
     atom    6 type  2   force =     0.48265032   -0.79224657  -38.88037454
     atom    7 type  1   force =    -1.57692766   -0.61226138   -0.46401156
     atom    8 type  2   force =     0.30612645    0.89765743   36.98398469
     atom    9 type  2   force =     0.55037255    0.10484051  -38.83875959
     atom   10 type  1   force =    -0.51625958   -0.05978167    4.49380594
     atom   11 type  2   force =    -0.26858559   -0.95115697   38.88495402
     atom   12 type  2   force =     0.46899873    0.83356348  -38.45032755
     atom   13 type  1   force =    -0.24661151   -0.49274505    0.82853576
     atom   14 type  2   force =    -0.10158906   -0.79319383   38.39181728
     atom   15 type  2   force =     0.15516944   -0.22575913  -37.58153244
     atom   16 type  1   force =    -0.72913326    2.75172451   -6.27422233
     atom   17 type  2   force =    -1.81590423   -0.25951000   36.58084976
     atom   18 type  2   force =    -0.29509053   -0.74670325  -39.46315515
     atom   19 type  1   force =     1.35887996   -1.03730430   -1.82664748
     atom   20 type  2   force =     0.15225402   -0.05209722  -39.66584801
     atom   21 type  1   force =    -0.02705445    0.34850933    0.14909719
     atom   22 type  2   force =     0.14297494   -1.15722436   38.27404875
     atom   23 type  2   force =    -0.16694640    0.81238772  -38.89703245
     atom   24 type  1   force =    -0.57901220    0.38337239    4.51296137
     atom   25 type  2   force =     0.29665990   -0.13558537   39.12530570
     atom   26 type  2   force =    -0.36388564   -0.07236365  -37.86236467
     atom   27 type  1   force =    -1.17167256    0.43933636   -4.05457240
     atom   28 type  2   force =     0.10280551    0.61762534   37.91837003
     atom   29 type  2   force =    -0.29004558   -0.51668708  -37.94389835
     atom   30 type  1   force =    -0.03552818   -0.33446168   -1.28376168
     atom   31 type  2   force =     0.45057912    0.49233167   36.95805579
     atom   32 type  2   force =    -0.58355353    0.07429748  -39.26540213
     atom   33 type  1   force =     0.30027551   -0.50747031    1.26008241
     atom   34 type  2   force =     0.23166132   -0.98972509   39.14740264
     atom   35 type  2   force =    -0.24036249    0.59585449  -38.23791457
     atom   36 type  3   force =    -2.12290990    5.11270906   44.68397625
     The local contribution  to forces
     atom    1 type  1   force =    -1.25796388    0.68749765   -3.96440837
     atom    2 type  2   force =     0.21492303    0.03833251  -38.88350460
     atom    3 type  2   force =     0.07260294    0.03130225   36.41402223
     atom    4 type  1   force =    -1.74642794    0.29763677    1.87322355
     atom    5 type  2   force =    -3.10866135    2.41909466  -36.12472396
     atom    6 type  2   force =    -0.47268449    0.79435462   38.64027106
     atom    7 type  1   force =     1.61436846    0.60279030    0.46933602
     atom    8 type  2   force =    -0.31102456   -0.89286759  -36.73045600
     atom    9 type  2   force =    -0.54155888   -0.08632730   38.59121557
     atom   10 type  1   force =     0.50893051    0.07022254   -4.50181064
     atom   11 type  2   force =     0.25642435    0.94508747  -38.64820220
     atom   12 type  2   force =    -0.46057699   -0.81411212   38.21222536
     atom   13 type  1   force =     0.25868258    0.46352431   -0.82997309
     atom   14 type  2   force =     0.09847547    0.80205982  -38.13776676
     atom   15 type  2   force =    -0.16112012    0.23058664   37.32835514
     atom   16 type  1   force =     0.72872275   -2.78988166    6.32820374
     atom   17 type  2   force =     1.82185067    0.26240101  -36.35534460
     atom   18 type  2   force =     0.28783278    0.74465570   39.21839688
     atom   19 type  1   force =    -1.36387867    1.06091177    1.83348108
     atom   20 type  2   force =    -0.15066446    0.06873843   39.42244239
     atom   21 type  1   force =     0.02703504   -0.36600598   -0.15179020
     atom   22 type  2   force =    -0.13979898    1.14875130  -38.03482896
     atom   23 type  2   force =     0.15881985   -0.79817219   38.65541043
     atom   24 type  1   force =     0.55683258   -0.38590908   -4.51191288
     atom   25 type  2   force =    -0.29223718    0.14306179  -38.87974643
     atom   26 type  2   force =     0.35623225    0.08060434   37.61541156
     atom   27 type  1   force =     1.16120237   -0.45154837    4.04642102
     atom   28 type  2   force =    -0.10370049   -0.60303718  -37.67390542
     atom   29 type  2   force =     0.28819665    0.51516163   37.69639252
     atom   30 type  1   force =     0.03396731    0.31962599    1.27814842
     atom   31 type  2   force =    -0.44009487   -0.49020200  -36.71094905
     atom   32 type  2   force =     0.57900370   -0.06189826   39.01729465
     atom   33 type  1   force =    -0.28975260    0.50085414   -1.26563209
     atom   34 type  2   force =    -0.22866689    0.98388146  -38.90462641
     atom   35 type  2   force =     0.23622051   -0.57996149   38.00088537
     atom   36 type  3   force =     1.22832661   -4.25085645  -43.71361457
     The core correction contribution to forces
     atom    1 type  1   force =     0.00000000    0.00000000    0.00000000
     atom    2 type  2   force =     0.00004610   -0.00030378    0.02076092
     atom    3 type  2   force =     0.00078008    0.00016190   -0.02087454
     atom    4 type  1   force =     0.00000000    0.00000000    0.00000000
     atom    5 type  2   force =     0.02029700   -0.01689678    0.00893035
     atom    6 type  2   force =     0.00085272   -0.00105399   -0.02108414
     atom    7 type  1   force =     0.00000000    0.00000000    0.00000000
     atom    8 type  2   force =    -0.00028280    0.00071354    0.02081779
     atom    9 type  2   force =    -0.00001062    0.00087975   -0.02092397
     atom   10 type  1   force =     0.00000000    0.00000000    0.00000000
     atom   11 type  2   force =    -0.00066447   -0.00054748    0.02095350
     atom   12 type  2   force =     0.00106091    0.00143410   -0.02078592
     atom   13 type  1   force =     0.00000000    0.00000000    0.00000000
     atom   14 type  2   force =    -0.00050958    0.00010975    0.02077521
     atom   15 type  2   force =     0.00022418    0.00021230   -0.02067231
     atom   16 type  1   force =     0.00000000    0.00000000    0.00000000
     atom   17 type  2   force =     0.00247714    0.00242562    0.02173200
     atom   18 type  2   force =    -0.00047231   -0.00083082   -0.02119543
     atom   19 type  1   force =     0.00000000    0.00000000    0.00000000
     atom   20 type  2   force =     0.00014195    0.00098804   -0.02121540
     atom   21 type  1   force =     0.00000000    0.00000000    0.00000000
     atom   22 type  2   force =    -0.00000796   -0.00065782    0.02073053
     atom   23 type  2   force =    -0.00057851    0.00123573   -0.02080893
     atom   24 type  1   force =     0.00000000    0.00000000    0.00000000
     atom   25 type  2   force =    -0.00005942   -0.00056237    0.02089143
     atom   26 type  2   force =    -0.00020906    0.00052685   -0.02082972
     atom   27 type  1   force =     0.00000000    0.00000000    0.00000000
     atom   28 type  2   force =    -0.00006269    0.00157246    0.02082446
     atom   29 type  2   force =    -0.00037059   -0.00056017   -0.02060809
     atom   30 type  1   force =     0.00000000    0.00000000    0.00000000
     atom   31 type  2   force =     0.00060023    0.00024760    0.02065681
     atom   32 type  2   force =    -0.00013216    0.00063218   -0.02098343
     atom   33 type  1   force =     0.00000000    0.00000000    0.00000000
     atom   34 type  2   force =     0.00043742    0.00076090    0.02130023
     atom   35 type  2   force =    -0.00002617    0.00086431   -0.02093044
     atom   36 type  3   force =    -0.01145124    0.00981965    0.01153990
     The Hubbard contrib.    to forces
     atom    1 type  1   force =     0.00000000    0.00000000    0.00000000
     atom    2 type  2   force =     0.00000000    0.00000000    0.00000000
     atom    3 type  2   force =     0.00000000    0.00000000    0.00000000
     atom    4 type  1   force =     0.00000000    0.00000000    0.00000000
     atom    5 type  2   force =     0.00000000    0.00000000    0.00000000
     atom    6 type  2   force =     0.00000000    0.00000000    0.00000000
     atom    7 type  1   force =     0.00000000    0.00000000    0.00000000
     atom    8 type  2   force =     0.00000000    0.00000000    0.00000000
     atom    9 type  2   force =     0.00000000    0.00000000    0.00000000
     atom   10 type  1   force =     0.00000000    0.00000000    0.00000000
     atom   11 type  2   force =     0.00000000    0.00000000    0.00000000
     atom   12 type  2   force =     0.00000000    0.00000000    0.00000000
     atom   13 type  1   force =     0.00000000    0.00000000    0.00000000
     atom   14 type  2   force =     0.00000000    0.00000000    0.00000000
     atom   15 type  2   force =     0.00000000    0.00000000    0.00000000
     atom   16 type  1   force =     0.00000000    0.00000000    0.00000000
     atom   17 type  2   force =     0.00000000    0.00000000    0.00000000
     atom   18 type  2   force =     0.00000000    0.00000000    0.00000000
     atom   19 type  1   force =     0.00000000    0.00000000    0.00000000
     atom   20 type  2   force =     0.00000000    0.00000000    0.00000000
     atom   21 type  1   force =     0.00000000    0.00000000    0.00000000
     atom   22 type  2   force =     0.00000000    0.00000000    0.00000000
     atom   23 type  2   force =     0.00000000    0.00000000    0.00000000
     atom   24 type  1   force =     0.00000000    0.00000000    0.00000000
     atom   25 type  2   force =     0.00000000    0.00000000    0.00000000
     atom   26 type  2   force =     0.00000000    0.00000000    0.00000000
     atom   27 type  1   force =     0.00000000    0.00000000    0.00000000
     atom   28 type  2   force =     0.00000000    0.00000000    0.00000000
     atom   29 type  2   force =     0.00000000    0.00000000    0.00000000
     atom   30 type  1   force =     0.00000000    0.00000000    0.00000000
     atom   31 type  2   force =     0.00000000    0.00000000    0.00000000
     atom   32 type  2   force =     0.00000000    0.00000000    0.00000000
     atom   33 type  1   force =     0.00000000    0.00000000    0.00000000
     atom   34 type  2   force =     0.00000000    0.00000000    0.00000000
     atom   35 type  2   force =     0.00000000    0.00000000    0.00000000
     atom   36 type  3   force =     0.00000000    0.00000000    0.00000000
     The SCF correction term to forces
     atom    1 type  1   force =     0.00010622    0.00030253    0.00061522
     atom    2 type  2   force =    -0.00003392    0.00008045    0.00026041
     atom    3 type  2   force =    -0.00005364    0.00006832    0.00011601
     atom    4 type  1   force =    -0.00017643   -0.00029419    0.00065714
     atom    5 type  2   force =     0.00026793   -0.00026048    0.00001219
     atom    6 type  2   force =     0.00000767   -0.00003983    0.00022258
     atom    7 type  1   force =     0.00029771    0.00000785    0.00037267
     atom    8 type  2   force =     0.00005208   -0.00004353    0.00030390
     atom    9 type  2   force =     0.00001779   -0.00003194    0.00006027
     atom   10 type  1   force =     0.00000981    0.00005321    0.00057603
     atom   11 type  2   force =     0.00005377    0.00004249    0.00031090
     atom   12 type  2   force =    -0.00000245    0.00002326    0.00004929
     atom   13 type  1   force =     0.00014755   -0.00007058    0.00037874
     atom   14 type  2   force =     0.00006213    0.00003016    0.00028125
     atom   15 type  2   force =     0.00004799    0.00002833    0.00009397
     atom   16 type  1   force =     0.00028249   -0.00034871    0.00019068
     atom   17 type  2   force =    -0.00005432   -0.00009520    0.00023481
     atom   18 type  2   force =     0.00004997    0.00001724    0.00006388
     atom   19 type  1   force =    -0.00026063    0.00002426    0.00036235
     atom   20 type  2   force =     0.00006132   -0.00010568   -0.00004697
     atom   21 type  1   force =     0.00005143    0.00020588    0.00044978
     atom   22 type  2   force =    -0.00004054    0.00009051    0.00035918
     atom   23 type  2   force =    -0.00000901    0.00009538   -0.00001379
     atom   24 type  1   force =    -0.00020583    0.00004254    0.00054749
     atom   25 type  2   force =    -0.00004520   -0.00003081    0.00029455
     atom   26 type  2   force =     0.00000068   -0.00002282    0.00005088
     atom   27 type  1   force =    -0.00017775    0.00004424    0.00036714
     atom   28 type  2   force =    -0.00012983   -0.00000429    0.00027293
     atom   29 type  2   force =    -0.00005805    0.00002027    0.00009722
     atom   30 type  1   force =    -0.00005617   -0.00005085    0.00050785
     atom   31 type  2   force =    -0.00012056    0.00000061    0.00033114
     atom   32 type  2   force =    -0.00006756   -0.00005448    0.00002294
     atom   33 type  1   force =    -0.00005278    0.00005954    0.00050414
     atom   34 type  2   force =    -0.00002014    0.00003569    0.00027549
     atom   35 type  2   force =     0.00000931    0.00000341    0.00007227
     atom   36 type  3   force =     0.00015314   -0.00010437    0.00024045

     Total force =     0.157699     Total SCF correction =     0.002195
     Energy error            =      3.3E-02 Ry
     Gradient error          =      9.1E-02 Ry/Bohr

     number of scf cycles    =   2
     number of bfgs steps    =   1

     energy             old  =   -2246.2718173599 Ry
     energy             new  =   -2246.3044807745 Ry

     CASE: energy            _new < energy            _old


     WARNING: bfgs curvature condition failed, Theta= 0.997
     new trust radius        =       0.1285723575 bohr
     new conv_thr            =       0.0000000906 Ry


ATOMIC_POSITIONS (angstrom)
Mo            6.5559543841        1.7580191067        2.8289901871
S             8.1629132405        0.8249423835        4.4330887796
S             8.1792133179        0.8211262092        1.2708191808
Mo            8.0974535099        4.5181124464        2.7162407579
S             6.4816069584        3.7643714321        4.4157502364
S             6.5525755677        3.5252566206        1.1254798432
Mo            6.4934803822        7.2093955501        2.6585458101
S             8.0822527332        6.3421904598        4.2614121274
S             8.0972721994        6.3097778044        1.0925545328
Mo            8.1520591688        9.9121001933        2.8227735441
S             6.4979816869        8.9391911949        4.3747722211
S             6.6158324951        9.0509680648        1.1460480122
Mo            3.4220902169        1.7429076512        2.7644536750
S             4.9815446105        0.8121052828        4.3647328948
S             5.0461680005        0.8489490980        1.2128429862
Mo            4.9687620288        4.5285603387        2.6728617101
S             3.3951381008        3.6378034442        4.2541880010
S             3.4360149078        3.5480674779        1.0708070160
Mo            3.4672495617        7.2242922530        2.6225646799
S             4.9844957614        6.3192400397        1.0389753930
Mo            5.0092429545        9.9043353867        2.7434873753
S             3.4698372199        8.9396568847        4.3239162373
S             3.4066318541        9.0655521763        1.1030195811
Mo            0.2898920858        1.7476161145        2.8319317009
S             1.8671925209        0.8120222349        4.4040294946
S             1.8484036638        0.8525848311        1.2047787098
Mo            1.8473788425        4.4907772738        2.6677111853
S             0.2782528461        3.6501726799        4.3316335520
S             0.2337883511        3.5266591313        1.1674813817
Mo            0.2688831249        7.2256163119        2.6988157870
S             1.9029646711        6.3136102617        4.2382203876
S             1.8534958293        6.3141003899        1.0507893706
Mo            1.8556135007        9.9366878990        2.7658829189
S             0.2978306260        9.0465965773        4.4015659792
S             0.2680549259        9.0519424350        1.1642789175
O             5.3585807183        4.8229276602        5.0453034091



     Writing config-only to output data dir ./MoS2-V-O.save/
     NEW-OLD atomic charge density approx. for the potential

     negative rho (up, down):  2.085E-04 0.000E+00

     total cpu time spent up to now is      219.5 secs

     Self-consistent Calculation

     iteration #  1     ecut=    80.00 Ry     beta= 0.70
     Davidson diagonalization with overlap
     ethr =  1.00E-06,  avg # of iterations = 15.0

     negative rho (up, down):  9.663E-05 0.000E+00

     total cpu time spent up to now is      232.4 secs

     total energy              =   -2246.32766960 Ry
     estimated scf accuracy    <       0.00727923 Ry

     iteration #  2     ecut=    80.00 Ry     beta= 0.70
     Davidson diagonalization with overlap
     ethr =  2.33E-06,  avg # of iterations =  4.0

     negative rho (up, down):  7.071E-05 0.000E+00

     total cpu time spent up to now is      243.6 secs

     total energy              =   -2246.32907871 Ry
     estimated scf accuracy    <       0.00385485 Ry

     iteration #  3     ecut=    80.00 Ry     beta= 0.70
     Davidson diagonalization with overlap
     ethr =  1.24E-06,  avg # of iterations =  3.0

     negative rho (up, down):  3.658E-05 0.000E+00

     total cpu time spent up to now is      257.5 secs

     total energy              =   -2246.32934489 Ry
     estimated scf accuracy    <       0.00038323 Ry

     iteration #  4     ecut=    80.00 Ry     beta= 0.70
     Davidson diagonalization with overlap
     ethr =  1.23E-07,  avg # of iterations =  4.0

     negative rho (up, down):  2.996E-05 0.000E+00

     total cpu time spent up to now is      272.0 secs

     total energy              =   -2246.32939087 Ry
     estimated scf accuracy    <       0.00004572 Ry

     iteration #  5     ecut=    80.00 Ry     beta= 0.70
     Davidson diagonalization with overlap
     ethr =  1.47E-08,  avg # of iterations =  3.0

     negative rho (up, down):  2.512E-05 0.000E+00

     total cpu time spent up to now is      284.1 secs

     total energy              =   -2246.32939529 Ry
     estimated scf accuracy    <       0.00001490 Ry

     iteration #  6     ecut=    80.00 Ry     beta= 0.70
     Davidson diagonalization with overlap
     ethr =  4.77E-09,  avg # of iterations =  9.0

     negative rho (up, down):  2.608E-05 0.000E+00

     total cpu time spent up to now is      296.8 secs

     total energy              =   -2246.32939758 Ry
     estimated scf accuracy    <       0.00000703 Ry

     iteration #  7     ecut=    80.00 Ry     beta= 0.70
     Davidson diagonalization with overlap
     ethr =  2.25E-09,  avg # of iterations =  4.0

     negative rho (up, down):  3.572E-05 0.000E+00

     total cpu time spent up to now is      306.3 secs

     total energy              =   -2246.32939928 Ry
     estimated scf accuracy    <       0.00000100 Ry

     iteration #  8     ecut=    80.00 Ry     beta= 0.70
     Davidson diagonalization with overlap
     ethr =  3.20E-10,  avg # of iterations =  5.0

     negative rho (up, down):  5.149E-05 0.000E+00

     total cpu time spent up to now is      318.2 secs

     total energy              =   -2246.32940000 Ry
     estimated scf accuracy    <       0.00000053 Ry

     iteration #  9     ecut=    80.00 Ry     beta= 0.70
     Davidson diagonalization with overlap
     ethr =  1.70E-10,  avg # of iterations =  3.0

     negative rho (up, down):  9.378E-05 0.000E+00

     total cpu time spent up to now is      327.8 secs

     total energy              =   -2246.32940033 Ry
     estimated scf accuracy    <       0.00000013 Ry

     iteration # 10     ecut=    80.00 Ry     beta= 0.70
     Davidson diagonalization with overlap
     ethr =  4.25E-11,  avg # of iterations =  4.0

     negative rho (up, down):  1.817E-04 0.000E+00

     total cpu time spent up to now is      331.4 secs

     End of self-consistent calculation

          k = 0.0000 0.0000 0.0000 (105382 PWs)   bands (ev):

   -63.0289 -62.9559 -62.9392 -62.9291 -62.8988 -62.8889 -62.8784 -62.8521
   -62.8288 -62.8076 -62.7804 -62.7213 -37.3197 -37.2810 -37.2326 -37.2082
   -37.1878 -37.1866 -37.1665 -37.1509 -37.1453 -37.1370 -37.1276 -37.1083
   -37.1019 -37.0899 -37.0797 -37.0753 -37.0686 -37.0581 -37.0426 -37.0380
   -37.0286 -37.0149 -36.9886 -36.9853 -36.9707 -36.9620 -36.9500 -36.9304
   -36.9155 -36.9126 -36.9003 -36.8811 -36.8710 -36.8601 -36.8210 -36.6940
   -21.4777 -15.9822 -15.1865 -15.1639 -15.0204 -14.9426 -14.8015 -14.6016
   -14.4887 -14.4737 -14.4430 -14.4017 -14.3789 -14.3459 -14.2810 -14.2160
   -14.1526 -14.1383 -14.1074 -13.9727 -13.8956 -13.8891 -13.8752 -13.8314
    -7.9135  -7.7961  -7.6260  -7.5672  -7.3384  -7.3119  -7.2554  -7.2352
    -7.1073  -6.9990  -6.9737  -6.8323  -6.7920  -6.6692  -6.6639  -6.6085
    -6.5356  -6.4473  -6.3932  -6.2908  -6.1485  -6.0711  -5.9343  -5.9208
    -5.8171  -5.8046  -5.7803  -5.7397  -5.7050  -5.6739  -5.6416  -5.5897
    -5.5160  -5.4902  -5.4496  -5.3011  -5.2475  -5.1885  -5.1373  -5.0458
    -5.0266  -5.0191  -4.9250  -4.8290  -4.7105  -4.6707  -4.4702  -4.3638
    -4.3085  -4.2382  -4.2087  -4.1644  -4.0608  -4.0160  -3.9485  -3.8630
    -3.7438  -3.7309  -3.6792  -3.6211  -3.5804  -3.5387  -3.5194  -3.4947
    -3.4556  -3.4175  -3.3672  -3.2746  -3.1643  -3.0505  -2.9173  -2.8511
    -2.8219  -2.7845  -2.7393  -2.7293  -2.7111  -2.6982  -2.6264  -2.2980
    -2.2796  -2.0840  -1.9351  -1.6388  -1.1329  -0.7614  -0.3716  -0.2208
    -0.1908  -0.0658  -0.0447   0.0315   0.0719   0.1201   0.1769   0.2371
     0.2639   0.3049   0.3960   0.4903   0.5026   0.5147   0.5473   0.5786
     0.6329   0.6731   0.7117   0.7316   0.7654   0.7935   0.8784   0.9117
     0.9733   1.0070   1.2316

     the Fermi energy is    -1.3858 ev

!    total energy              =   -2246.32940032 Ry
     estimated scf accuracy    <       0.00000008 Ry
     smearing contrib. (-TS)   =      -0.00035587 Ry
     internal energy E=F+TS    =   -2246.32904445 Ry

     The total energy is F=E-TS. E is the sum of the following terms:
     one-electron contribution =  -18485.76551365 Ry
     hartree contribution      =    9231.22239323 Ry
     xc contribution           =    -391.99257953 Ry
     ewald contribution        =    7410.07327244 Ry
     one-center paw contrib.   =      -9.86661694 Ry

     convergence has been achieved in  10 iterations

     negative rho (up, down):  1.817E-04 0.000E+00

     Forces acting on atoms (cartesian axes, Ry/au):

     atom    1 type  1   force =    -0.01349167   -0.00024750   -0.00027557
     atom    2 type  2   force =    -0.00785256    0.00738578   -0.00441578
     atom    3 type  2   force =    -0.01289596    0.00733183   -0.00838297
     atom    4 type  1   force =     0.00042818    0.00652295    0.00385952
     atom    5 type  2   force =     0.01686719    0.00845474    0.03744714
     atom    6 type  2   force =    -0.00657519    0.00955966    0.01514200
     atom    7 type  1   force =     0.00301235   -0.00361151   -0.00247160
     atom    8 type  2   force =     0.00017986    0.00212490    0.01022624
     atom    9 type  2   force =     0.01203694    0.00433567    0.00168749
     atom   10 type  1   force =    -0.00079397    0.00551008   -0.00117029
     atom   11 type  2   force =     0.00217491   -0.00305318   -0.00850160
     atom   12 type  2   force =    -0.00278731    0.00199647   -0.00095026
     atom   13 type  1   force =     0.00347727   -0.00950442   -0.00593520
     atom   14 type  2   force =    -0.00137382   -0.00472378    0.00794929
     atom   15 type  2   force =    -0.00709499   -0.00086574   -0.00989174
     atom   16 type  1   force =    -0.00084219    0.00790613    0.01589247
     atom   17 type  2   force =    -0.02453106   -0.02295745   -0.01148554
     atom   18 type  2   force =     0.00033885    0.00425232    0.01003987
     atom   19 type  1   force =     0.00434623    0.00083755    0.00229877
     atom   20 type  2   force =     0.00068357   -0.00956643    0.00054681
     atom   21 type  1   force =    -0.00286871    0.00181710    0.00182108
     atom   22 type  2   force =     0.00103137   -0.00206957   -0.00057536
     atom   23 type  2   force =    -0.00013196    0.00107194   -0.00070449
     atom   24 type  1   force =    -0.00675016    0.00041132   -0.00361028
     atom   25 type  2   force =     0.00656391    0.00907317   -0.00304470
     atom   26 type  2   force =    -0.00712717   -0.00233725   -0.00557288
     atom   27 type  1   force =    -0.01015626    0.00265235    0.00040034
     atom   28 type  2   force =    -0.00133793   -0.00278869   -0.00475077
     atom   29 type  2   force =    -0.00131808    0.00154841   -0.00441003
     atom   30 type  1   force =    -0.00108967   -0.00079786    0.00520992
     atom   31 type  2   force =     0.00231897    0.00086288    0.00525499
     atom   32 type  2   force =    -0.00455776    0.00160345    0.00529938
     atom   33 type  1   force =     0.00126157    0.00056380    0.00395605
     atom   34 type  2   force =    -0.00078720   -0.02130370   -0.01312508
     atom   35 type  2   force =    -0.00461131    0.00719934    0.00446152
     atom   36 type  3   force =     0.06425376   -0.00919477   -0.04221874
     The non-local contrib.  to forces
     atom    1 type  1   force =     0.00474811    0.02151388   -0.01500384
     atom    2 type  2   force =    -0.00010660    0.00062974   -0.26952758
     atom    3 type  2   force =    -0.01614753   -0.00605637    0.26723579
     atom    4 type  1   force =     0.00406773   -0.00195195    0.00870316
     atom    5 type  2   force =    -0.37249580    0.31471107   -0.07906838
     atom    6 type  2   force =    -0.01591572    0.00864808    0.27552475
     atom    7 type  1   force =    -0.03455103    0.00191568   -0.01270416
     atom    8 type  2   force =     0.00522310   -0.00199680   -0.26116076
     atom    9 type  2   force =     0.00335524   -0.01434208    0.27026979
     atom   10 type  1   force =     0.00352343   -0.00267472   -0.00183377
     atom   11 type  2   force =     0.01395967    0.00296139   -0.26703886
     atom   12 type  2   force =    -0.01208828   -0.01953672    0.25962389
     atom   13 type  1   force =    -0.00751810    0.02175193   -0.00672019
     atom   14 type  2   force =     0.00278368   -0.01434090   -0.26382001
     atom   15 type  2   force =    -0.00273500   -0.00672434    0.26203511
     atom   16 type  1   force =    -0.00642083    0.05305544   -0.02727442
     atom   17 type  2   force =    -0.04618501   -0.03961253   -0.26006197
     atom   18 type  2   force =     0.00699065    0.00544319    0.27792383
     atom   19 type  1   force =     0.01498879   -0.01902245   -0.00956297
     atom   20 type  2   force =    -0.00095157   -0.02482915    0.26438023
     atom   21 type  1   force =    -0.00258282    0.01942870    0.00342333
     atom   22 type  2   force =    -0.00193436    0.00643539   -0.26071573
     atom   23 type  2   force =     0.00881760   -0.01473162    0.26304576
     atom   24 type  1   force =     0.01601341    0.00258600   -0.00891971
     atom   25 type  2   force =     0.00350802    0.00254280   -0.26807250
     atom   26 type  2   force =     0.00044827   -0.01022555    0.26189647
[...]
     atom   28 type  2   force =     0.00028959   -0.01849471   -0.26744628
     atom   29 type  2   force =     0.00453074    0.00176738    0.26922190
     atom   30 type  1   force =     0.00186759    0.02267405    0.00592301
     atom   31 type  2   force =    -0.00790438   -0.00110164   -0.26389729
     atom   32 type  2   force =     0.00450437   -0.01502825    0.26896088
     atom   33 type  1   force =    -0.00074013    0.00336049    0.00220072
     atom   34 type  2   force =    -0.00306243   -0.00417596   -0.27071675
     atom   35 type  2   force =    -0.00020308   -0.01483296    0.26524762
     atom   36 type  3   force =     0.95395912   -1.35895952   -1.07060855
     The ionic contribution  to forces
     atom    1 type  1   force =    -0.15934727   -0.19821992    2.90617330
     atom    2 type  2   force =     0.25429029   -0.72555959   38.66727084
     atom    3 type  2   force =    -0.15807219    0.01365119  -37.80974576
     atom    4 type  1   force =     1.02388212   -0.33475680   -2.20311439
     atom    5 type  2   force =     3.21127142   -4.08483722   39.03318642
     atom    6 type  2   force =     0.10004659   -0.82400491  -37.64947789
     atom    7 type  1   force =    -1.55122220    0.81459161   -1.07360902
     atom    8 type  2   force =     0.39505167    1.48288463   37.62276211
     atom    9 type  2   force =     0.32818164    0.00462711  -38.92168202
     atom   10 type  1   force =    -0.22365638   -0.05755553    2.14248176
     atom   11 type  2   force =    -0.30966705   -0.75453389   38.33130086
     atom   12 type  2   force =     0.21582718    0.53552697  -38.55803856
     atom   13 type  1   force =     0.05434940    0.18474914    0.01474618
     atom   14 type  2   force =    -0.26120848   -0.78954381   38.55240670
     atom   15 type  2   force =     0.23411745    0.05043244  -38.09200550
     atom   16 type  1   force =    -2.48116207    0.63515991   -1.25027661
     atom   17 type  2   force =    -0.87721159   -0.17518161   37.00675823
     atom   18 type  2   force =     0.22222200   -0.48849751  -38.19605810
     atom   19 type  1   force =     1.24406907   -0.40997308   -0.57436428
     atom   20 type  2   force =    -0.08628640   -0.01939356  -39.92885989
     atom   21 type  1   force =     0.03212556    0.09892669   -0.35757988
     atom   22 type  2   force =     0.10718487   -0.95631288   38.20630085
     atom   23 type  2   force =    -0.18447881    0.49826004  -38.77262762
     atom   24 type  1   force =    -0.00191890   -0.55834223    0.29374519
     atom   25 type  2   force =     0.02857499   -0.31759057   38.64953585
     atom   26 type  2   force =    -0.09578132    0.01212750  -38.39534861
     atom   27 type  1   force =     0.03373982    0.43403085   -2.41048213
     atom   28 type  2   force =     0.70136706    0.08193257   38.03983362
     atom   29 type  2   force =    -0.06687242   -0.27262796  -38.86798698
     atom   30 type  1   force =     0.47684243    0.19543947   -0.34208166
     atom   31 type  2   force =     0.73520116    0.58772479   37.76246317
     atom   32 type  2   force =    -0.31417495   -0.04099316  -38.85360938
     atom   33 type  1   force =     0.39491174   -0.37927089    1.00307653
     atom   34 type  2   force =     0.09662522   -0.25370441   38.64998947
     atom   35 type  2   force =    -0.12189853    0.32691422  -38.24725830
     atom   36 type  3   force =    -2.99692312    5.68392042   43.62217552
     The local contribution  to forces
     atom    1 type  1   force =     0.17104202    0.15765662   -2.91065231
     atom    2 type  2   force =    -0.26016361    0.72283031  -38.42278568
     atom    3 type  2   force =     0.16265643   -0.00138797   37.56122933
     atom    4 type  1   force =    -1.02157796    0.35148809    2.20022812
     atom    5 type  2   force =    -2.85240872    3.79577458  -38.76046414
     atom    6 type  2   force =    -0.10125080    0.82502607   37.39672518
     atom    7 type  1   force =     1.57049047   -0.81964837    1.09083494
     atom    8 type  2   force =    -0.40484464   -1.48806015  -37.38599157
     atom    9 type  2   force =    -0.32105774    0.00414818   38.67554914
     atom   10 type  1   force =     0.21856155    0.05313466   -2.13982568
     atom   11 type  2   force =     0.30092851    0.75478037  -38.09015921
     atom   12 type  2   force =    -0.20779832   -0.51823916   38.31539081
     atom   13 type  1   force =    -0.04826932   -0.19831040   -0.01425430
     atom   14 type  2   force =     0.25582328    0.79766901  -38.30883336
     atom   15 type  2   force =    -0.23615246   -0.03598919   37.85138136
     atom   16 type  1   force =     2.51287232   -0.65955899    1.32992420
     atom   17 type  2   force =     0.91045835    0.20788373  -36.77017001
     atom   18 type  2   force =    -0.21329599    0.48922649   37.94514886
     atom   19 type  1   force =    -1.26332659    0.41099062    0.59068745
     atom   20 type  2   force =     0.09453332    0.02512874   39.68951173
     atom   21 type  1   force =    -0.03256108   -0.12312276    0.35577187
     atom   22 type  2   force =    -0.10321489    0.95441099  -37.97277800
     atom   23 type  2   force =     0.17603221   -0.48409057   38.52995884
     atom   24 type  1   force =    -0.00487842    0.55258555   -0.29604635
     atom   25 type  2   force =    -0.02774991    0.32699920  -38.40449360
     atom   26 type  2   force =     0.09650414   -0.00491440   38.15018904
     atom   27 type  1   force =    -0.02681769   -0.43824172    2.40950689
     atom   28 type  2   force =    -0.70074146   -0.06435767  -37.79320577
     atom   29 type  2   force =     0.06240378    0.27110478   38.61987896
     atom   30 type  1   force =    -0.47934972   -0.21693579    0.33630638
     atom   31 type  2   force =    -0.72792235   -0.58724697  -37.51937539
     atom   32 type  2   force =     0.31039389    0.05568935   38.60479395
     atom   33 type  1   force =    -0.39363749    0.37548958   -1.00561565
     atom   34 type  2   force =    -0.09424632    0.25837454  -38.39950321
     atom   35 type  2   force =     0.12216876   -0.31365820   38.00330624
     atom   36 type  3   force =     2.05489934   -4.34227175  -42.56323678
     The core correction contribution to forces
     atom    1 type  1   force =     0.00000000    0.00000000    0.00000000
     atom    2 type  2   force =    -0.00005152   -0.00046037    0.02061647
     atom    3 type  2   force =    -0.00007124    0.00062494   -0.02091279
     atom    4 type  1   force =     0.00000000    0.00000000    0.00000000
     atom    5 type  2   force =     0.02094129   -0.01783102    0.01897814
     atom    6 type  2   force =    -0.00005249   -0.00040856   -0.02122305
     atom    7 type  1   force =     0.00000000    0.00000000    0.00000000
     atom    8 type  2   force =    -0.00073289    0.00019110    0.02056002
     atom    9 type  2   force =     0.00062463    0.00043237   -0.02082981
     atom   10 type  1   force =     0.00000000    0.00000000    0.00000000
     atom   11 type  2   force =    -0.00028750   -0.00029931    0.02070800
     atom   12 type  2   force =     0.00070522    0.00119995   -0.02078948
     atom   13 type  1   force =     0.00000000    0.00000000    0.00000000
     atom   14 type  2   force =    -0.00046807   -0.00011792    0.02083588
     atom   15 type  2   force =     0.00010851    0.00075139   -0.02069112
     atom   16 type  1   force =     0.00000000    0.00000000    0.00000000
     atom   17 type  2   force =     0.00229582    0.00175785    0.02072431
     atom   18 type  2   force =     0.00091234   -0.00024598   -0.02070830
     atom   19 type  1   force =     0.00000000    0.00000000    0.00000000
     atom   20 type  2   force =     0.00040455    0.00017485   -0.02130201
     atom   21 type  1   force =     0.00000000    0.00000000    0.00000000
     atom   22 type  2   force =    -0.00004182   -0.00029425    0.02042249
     atom   23 type  2   force =    -0.00067998    0.00107706   -0.02075621
     atom   24 type  1   force =     0.00000000    0.00000000    0.00000000
     atom   25 type  2   force =    -0.00003124    0.00036757    0.02085760
     atom   26 type  2   force =    -0.00008626    0.00035793   -0.02091397
     atom   27 type  1   force =     0.00000000    0.00000000    0.00000000
     atom   28 type  2   force =     0.00022124    0.00095942    0.02106003
     atom   29 type  2   force =    -0.00025330   -0.00023651   -0.02097389
     atom   30 type  1   force =     0.00000000    0.00000000    0.00000000
     atom   31 type  2   force =     0.00045433    0.00029074    0.02071457
     atom   32 type  2   force =    -0.00048659    0.00068270   -0.02088670
     atom   33 type  1   force =     0.00000000    0.00000000    0.00000000
     atom   34 type  2   force =     0.00013500    0.00008880    0.02110334
     atom   35 type  2   force =    -0.00012533    0.00089471   -0.02087902
     atom   36 type  3   force =    -0.01045460    0.01484212    0.01176158
     The Hubbard contrib.    to forces
     atom    1 type  1   force =     0.00000000    0.00000000    0.00000000
     atom    2 type  2   force =     0.00000000    0.00000000    0.00000000
     atom    3 type  2   force =     0.00000000    0.00000000    0.00000000
     atom    4 type  1   force =     0.00000000    0.00000000    0.00000000
     atom    5 type  2   force =     0.00000000    0.00000000    0.00000000
     atom    6 type  2   force =     0.00000000    0.00000000    0.00000000
     atom    7 type  1   force =     0.00000000    0.00000000    0.00000000
     atom    8 type  2   force =     0.00000000    0.00000000    0.00000000
     atom    9 type  2   force =     0.00000000    0.00000000    0.00000000
     atom   10 type  1   force =     0.00000000    0.00000000    0.00000000
     atom   11 type  2   force =     0.00000000    0.00000000    0.00000000
     atom   12 type  2   force =     0.00000000    0.00000000    0.00000000
     atom   13 type  1   force =     0.00000000    0.00000000    0.00000000
     atom   14 type  2   force =     0.00000000    0.00000000    0.00000000
     atom   15 type  2   force =     0.00000000    0.00000000    0.00000000
     atom   16 type  1   force =     0.00000000    0.00000000    0.00000000
     atom   17 type  2   force =     0.00000000    0.00000000    0.00000000
     atom   18 type  2   force =     0.00000000    0.00000000    0.00000000
     atom   19 type  1   force =     0.00000000    0.00000000    0.00000000
     atom   20 type  2   force =     0.00000000    0.00000000    0.00000000
     atom   21 type  1   force =     0.00000000    0.00000000    0.00000000
     atom   22 type  2   force =     0.00000000    0.00000000    0.00000000
     atom   23 type  2   force =     0.00000000    0.00000000    0.00000000
     atom   24 type  1   force =     0.00000000    0.00000000    0.00000000
     atom   25 type  2   force =     0.00000000    0.00000000    0.00000000
     atom   26 type  2   force =     0.00000000    0.00000000    0.00000000
     atom   27 type  1   force =     0.00000000    0.00000000    0.00000000
     atom   28 type  2   force =     0.00000000    0.00000000    0.00000000
     atom   29 type  2   force =     0.00000000    0.00000000    0.00000000
     atom   30 type  1   force =     0.00000000    0.00000000    0.00000000
     atom   31 type  2   force =     0.00000000    0.00000000    0.00000000
     atom   32 type  2   force =     0.00000000    0.00000000    0.00000000
     atom   33 type  1   force =     0.00000000    0.00000000    0.00000000
     atom   34 type  2   force =     0.00000000    0.00000000    0.00000000
     atom   35 type  2   force =     0.00000000    0.00000000    0.00000000
     atom   36 type  3   force =     0.00000000    0.00000000    0.00000000
     The SCF correction term to forces
     atom    1 type  1   force =    -0.00000640    0.00004287    0.00005301
     atom    2 type  2   force =    -0.00000030   -0.00002380    0.00002491
     atom    3 type  2   force =    -0.00000865   -0.00001009    0.00000260
     atom    4 type  1   force =    -0.00009463    0.00002277    0.00001906
     atom    5 type  2   force =    -0.00001993    0.00003274    0.00001120
     atom    6 type  2   force =    -0.00000283    0.00001152    0.00001526
     atom    7 type  1   force =     0.00001103   -0.00003948    0.00002671
     atom    8 type  2   force =    -0.00002173   -0.00000634    0.00002604
     atom    9 type  2   force =    -0.00000278   -0.00000050    0.00000268
     atom   10 type  1   force =     0.00004608    0.00000118    0.00006793
     atom   11 type  2   force =     0.00000689   -0.00001299    0.00003359
     atom   12 type  2   force =     0.00000789    0.00000671   -0.00000119
     atom   13 type  1   force =     0.00002293   -0.00004669    0.00001744
     atom   14 type  2   force =    -0.00000489    0.00000136    0.00001279
     atom   15 type  2   force =    -0.00000428    0.00000099    0.00001137
     atom   16 type  1   force =     0.00003258   -0.00000798    0.00006337
     atom   17 type  2   force =     0.00003702    0.00002325    0.00002027
     atom   18 type  2   force =     0.00002358    0.00001213   -0.00000326
     atom   19 type  1   force =    -0.00003442   -0.00001021    0.00004908
     atom   20 type  2   force =     0.00001878   -0.00001965   -0.00001119
     atom   21 type  1   force =     0.00000753    0.00001108    0.00001170
     atom   22 type  2   force =    -0.00001746    0.00000049    0.00002028
     atom   23 type  2   force =    -0.00001094    0.00000491    0.00001065
     atom   24 type  1   force =    -0.00000482   -0.00005000    0.00002960
     atom   25 type  2   force =    -0.00000168   -0.00003065    0.00001461
     atom   26 type  2   force =    -0.00000071   -0.00000923    0.00001236
     atom   27 type  1   force =     0.00000258    0.00005828    0.00001906
     atom   28 type  2   force =    -0.00001001    0.00001498    0.00003053
     atom   29 type  2   force =    -0.00001171    0.00000972   -0.00001120
     atom   30 type  1   force =     0.00005140    0.00000279    0.00001648
     atom   31 type  2   force =     0.00000639    0.00001206    0.00001255
     atom   32 type  2   force =    -0.00000869    0.00001362    0.00000950
     atom   33 type  1   force =     0.00003957   -0.00002122    0.00007773
     atom   34 type  2   force =    -0.00000453    0.00000428    0.00002773
     atom   35 type  2   force =    -0.00000955   -0.00000455    0.00000298
     atom   36 type  3   force =     0.00000928    0.00005771    0.00000963

     Total force =     0.006917     Total SCF correction =     0.000271
     Energy error            =      9.7E-05 Ry
     Gradient error          =      2.4E-03 Ry/Bohr

     bfgs converged in  18 scf cycles and  17 bfgs steps
     (criteria: energy <  1.0E-04 Ry, force <  1.0E-02 Ry/Bohr)

     End of BFGS Geometry Optimization

     Final energy             =   -2246.3912640251 Ry

     File ./MoS2-V-O.bfgs deleted, as requested
Begin final coordinates

ATOMIC_POSITIONS (angstrom)
Mo            6.5111985483        1.7739211314        2.8217603934
S             8.1083412861        0.8556916681        4.3917233719
S             8.0740488661        0.8697247724        1.1984804593
Mo            8.1579294156        4.5078572253        2.7408392102
S             6.7669245642        3.6137464666        4.5878428874
S             6.5050477252        3.6124225009        1.2226262925
Mo            6.5185450692        7.1846930022        2.6677993410
S             8.1103663534        6.3353216710        4.3032040178
S             8.1546484935        6.3254185395        1.1151871431
Mo            8.1135906550        9.9498838635        2.7784271622
S             6.4989416687        8.9403656043        4.3307195217
S             6.5831378043        9.0356074041        1.1344690111
Mo            3.3907569326        1.7198587836        2.7582918997
S             4.9439421382        0.8014850796        4.3708232017
S             4.9827143500        0.8518115743        1.1831323463
Mo            4.9919031449        4.6272687060        2.7685391002
S             3.3744009610        3.5939114759        4.2791500030
S             3.4475885855        3.5733689728        1.1496831827
Mo            3.4626613090        7.1986562262        2.6562446973
S             4.9922813355        6.2937778751        1.0596636567
Mo            4.9814274005        9.9076407795        2.7315654697
S             3.4503990394        8.9468100861        4.3118243732
S             3.3888150499        9.0420426586        1.1113486318
Mo            0.2366369638        1.7511903385        2.7634935927
S             1.8139594346        0.8307835322        4.3633735877
S             1.8096646988        0.8405011154        1.1621457670
Mo            1.8364785871        4.4877801514        2.7081775606
S             0.2921343188        3.6044335221        4.3263196643
S             0.2468260822        3.5454671463        1.1289657658
Mo            0.2692164501        7.2349847511        2.7238279531
S             1.9014303846        6.3098652512        4.2910308480
S             1.8445489799        6.3267840566        1.0993903322
Mo            1.8272262604        9.9395442995        2.7537623134
S             0.2565312567        9.0324132616        4.3548129962
S             0.2344909926        9.0738608506        1.1630094353
O             5.6473474619        4.7993409557        4.7790923864
End final coordinates



     Writing all to output data dir ./MoS2-V-O.save/
 
     init_run     :      4.61s CPU      5.42s WALL (       1 calls)
     electrons    :   1450.05s CPU   1641.56s WALL (      18 calls)
     update_pot   :     53.65s CPU     57.10s WALL (      17 calls)
     forces       :     49.22s CPU     56.12s WALL (      18 calls)

     Called by init_run:
     wfcinit      :      0.49s CPU      0.56s WALL (       1 calls)
     potinit      :      2.37s CPU      2.61s WALL (       1 calls)
     hinit0       :      0.43s CPU      0.73s WALL (       1 calls)

     Called by electrons:
     c_bands      :    225.43s CPU    230.83s WALL (     154 calls)
     sum_band     :     86.02s CPU    110.94s WALL (     154 calls)
     v_of_rho     :    143.39s CPU    174.88s WALL (     164 calls)
     newd         :     50.82s CPU     73.87s WALL (     164 calls)
     PAW_pot      :      6.60s CPU      6.63s WALL (     181 calls)
     mix_rho      :    956.11s CPU   1064.64s WALL (     154 calls)

     Called by c_bands:
     init_us_2    :      3.55s CPU      3.82s WALL (     326 calls)
     init_us_2:cp :      3.55s CPU      3.82s WALL (     326 calls)
     regterg      :    213.85s CPU    218.97s WALL (     154 calls)

     Called by *egterg:
     rdiaghg      :     15.39s CPU     15.57s WALL (     855 calls)
     h_psi        :    138.30s CPU    139.68s WALL (     881 calls)
     s_psi        :     13.20s CPU     13.24s WALL (     881 calls)
     g_psi        :      0.68s CPU      0.69s WALL (     726 calls)

     Called by h_psi:
     h_psi:calbec :     14.82s CPU     14.95s WALL (     881 calls)
     vloc_psi     :    108.72s CPU    109.88s WALL (     881 calls)
     add_vuspsi   :     13.03s CPU     13.12s WALL (     881 calls)

     General routines
     calbec       :     21.52s CPU     21.70s WALL (    1124 calls)
     fft          :    101.20s CPU    117.34s WALL (   11055 calls)
     ffts         :    427.73s CPU    532.53s WALL (  234646 calls)
     fftw         :     69.49s CPU     70.18s WALL (   95648 calls)
     interpolate  :      2.03s CPU      2.34s WALL (     164 calls)
 
     Parallel routines
 
     PWSCF        :  26m 5.31s CPU  29m32.24s WALL

 
   This run was terminated on:  17:14:52   1Nov2023            

=------------------------------------------------------------------------------=
   JOB DONE.
=------------------------------------------------------------------------------=
