
     Program PWSCF v.7.2 starts on  4Nov2023 at  0:49: 3 

     This program is part of the open-source Quantum ESPRESSO suite
     for quantum simulation of materials; please cite
         "P. Giannozzi et al., J. Phys.:Condens. Matter 21 395502 (2009);
         "P. Giannozzi et al., J. Phys.:Condens. Matter 29 465901 (2017);
         "P. Giannozzi et al., J. Chem. Phys. 152 154105 (2020);
          URL http://www.quantum-espresso.org", 
     in publications or presentations arising from this work. More details at
     http://www.quantum-espresso.org/quote

     Parallel version (MPI & OpenMP), running on      48 processor cores
     Number of MPI processes:                48
     Threads/MPI process:                     1

     MPI processes distributed on     1 nodes
     91133 MiB available memory on the printing compute node when the environment starts
 
     Waiting for input...
     Reading input from standard input
Warning: card &CELL ignored
Warning: card CELL_DYNAMICS = 'BFGS', ignored
Warning: card CELL_DOFREE = '2DXY' ignored
Warning: card / ignored

     Current dimensions of program PWSCF are:
     Max number of different atomic species (ntypx) = 10
     Max number of k-points (npk) =  40000
     Max angular momentum in pseudopotentials (lmaxx) =  4

     IMPORTANT: XC functional enforced from input :
     Exchange-correlation= RVV10
                           (   1   4  13   4  26   0   0)
     Any further DFT definition will be discarded
     Please, verify this is what you really want


     gamma-point specific algorithms are used
     signal trapping enabled: kill the code with -SIGUSR1 to stop cleanly the simulation 
 
     R & G space division:  proc/nbgrp/npool/nimage =      48
     Subspace diagonalization in iterative solution of the eigenvalue problem:
     one sub-group per band group will be used
     scalapack distributed-memory algorithm (size of sub-group:  2*  2 procs)

 
     Parallelization info
     --------------------
     sticks:   dense  smooth     PW     G-vecs:    dense   smooth      PW
     Min         243     194     47                49060    35090    4376
     Max         246     196     50                49086    35128    4410
     Sum       11735    9389   2349              2355467  1685513  210763
 
     Using Slab Decomposition
 


     bravais-lattice index     =            0
     lattice parameter (alat)  =      17.8707  a.u.
     unit-cell volume          =   17436.2743 (a.u.)^3
     number of atoms/cell      =           36
     number of atomic types    =            3
     number of electrons       =       307.00
     number of Kohn-Sham states=          185
     kinetic-energy cutoff     =      80.0000  Ry
     charge density cutoff     =     400.0000  Ry
     scf convergence threshold =      1.0E-06
     mixing beta               =       0.7000
     number of iterations used =            8  local-TF  mixing
     energy convergence thresh.=      1.0E-04
     force convergence thresh. =      1.0E-02
     Exchange-correlation= RVV10
                           (   1   4  13   4  26   0   0)
     nstep                     =          200


     celldm(1)=  17.870686  celldm(2)=   0.000000  celldm(3)=   0.000000
     celldm(4)=   0.000000  celldm(5)=   0.000000  celldm(6)=   0.000000

     crystal axes: (cart. coord. in units of alat)
               a(1) = (   1.000000   0.000000   0.000000 )  
               a(2) = (   0.000000   1.155671   0.000000 )  
               a(3) = (   0.000000   0.000000   2.643601 )  

     reciprocal axes: (cart. coord. in units 2 pi/alat)
               b(1) = (  1.000000  0.000000  0.000000 )  
               b(2) = (  0.000000  0.865298  0.000000 )  
               b(3) = (  0.000000  0.000000  0.378272 )  


     PseudoPot. # 1 for Mo read from file:
     ../pseudo/Mo_ONCV_PBE-1.0.oncvpsp.upf
     MD5 check sum: 1b5d28e075c9ccadda658a603575cd1f
     Pseudo is Norm-conserving, Zval = 14.0
     Generated using ONCVPSP code by D. R. Hamann
     Using radial grid of 1526 points,  6 beta functions with: 
                l(1) =   0
                l(2) =   0
                l(3) =   1
                l(4) =   1
                l(5) =   2
                l(6) =   2

     PseudoPot. # 2 for S  read from file:
     ../pseudo/s_pbe_v1.4.uspp.F.UPF
     MD5 check sum: 88d86576ff6df21479756cfb9bdac1df
     Pseudo is Ultrasoft + core correction, Zval =  6.0
     Generated by new atomic code, or converted to UPF format
     Using radial grid of  907 points,  6 beta functions with: 
                l(1) =   0
                l(2) =   0
                l(3) =   1
                l(4) =   1
                l(5) =   2
                l(6) =   2
     Q(r) pseudized with  8 coefficients,  rinner =    1.300   1.300   1.300
                                                       1.300   1.300

     PseudoPot. # 3 for H  read from file:
     ../pseudo/H_ONCV_PBE-1.0.oncvpsp.upf
     MD5 check sum: 1790becc920ee074925cf490c71280fe
     Pseudo is Norm-conserving, Zval =  1.0
     Generated using ONCVPSP code by D. R. Hamann
     Using radial grid of 1166 points,  2 beta functions with: 
                l(1) =   0
                l(2) =   0

     atomic species   valence    mass     pseudopotential
        Mo            14.00    95.94000     Mo( 1.00)
        S              6.00    32.06500     S ( 1.00)
        H              1.00     1.00794     H ( 1.00)

     No symmetry found



   Cartesian axes

     site n.     atom                  positions (alat units)
         1           Mo  tau(   1) = (   0.6952221   0.1890506   0.2985846  )
         2           S   tau(   2) = (   0.8646417   0.0856217   0.4689279  )
         3           S   tau(   3) = (   0.8663890   0.0857843   0.1351291  )
         4           Mo  tau(   4) = (   0.8560186   0.4753274   0.2873942  )
         5           S   tau(   5) = (   0.6873294   0.3936244   0.4596353  )
         6           S   tau(   6) = (   0.6929804   0.3713468   0.1185692  )
         7           Mo  tau(   7) = (   0.6862796   0.7633098   0.2825370  )
         8           S   tau(   8) = (   0.8545980   0.6708292   0.4486168  )
         9           S   tau(   9) = (   0.8545123   0.6666874   0.1146125  )
        10           Mo  tau(  10) = (   0.8629403   1.0471007   0.3006803  )
        11           S   tau(  11) = (   0.6868280   0.9456650   0.4634891  )
        12           S   tau(  12) = (   0.6998113   0.9568511   0.1205389  )
        13           Mo  tau(  13) = (   0.3618216   0.1847309   0.2935964  )
        14           S   tau(  14) = (   0.5260962   0.0863870   0.4600448  )
        15           S   tau(  15) = (   0.5348379   0.0894875   0.1297123  )
        16           Mo  tau(  16) = (   0.5265817   0.4772436   0.2784130  )
        17           S   tau(  17) = (   0.3624753   0.3882513   0.4525556  )
        18           S   tau(  18) = (   0.3635411   0.3752055   0.1119148  )
        19           Mo  tau(  19) = (   0.3652268   0.7630864   0.2781795  )
        20           S   tau(  20) = (   0.5269494   0.6690381   0.1096838  )
        21           Mo  tau(  21) = (   0.5300192   1.0470394   0.2900995  )
        22           S   tau(  22) = (   0.3670346   0.9457522   0.4574073  )
        23           S   tau(  23) = (   0.3604225   0.9585725   0.1159032  )
        24           Mo  tau(  24) = (   0.0313099   0.1847895   0.3013130  )
        25           S   tau(  25) = (   0.1956761   0.0838230   0.4650863  )
        26           S   tau(  26) = (   0.1967693   0.0903508   0.1278874  )
        27           Mo  tau(  27) = (   0.1967578   0.4753919   0.2813011  )
        28           S   tau(  28) = (   0.0287851   0.3864324   0.4586755  )
        29           S   tau(  29) = (   0.0244514   0.3729871   0.1239344  )
        30           Mo  tau(  30) = (   0.0286728   0.7631204   0.2856894  )
        31           S   tau(  31) = (   0.2011512   0.6675435   0.4465001  )
        32           S   tau(  32) = (   0.1969214   0.6672839   0.1104564  )
        33           Mo  tau(  33) = (   0.1950294   1.0511147   0.2932237  )
        34           S   tau(  34) = (   0.0312912   0.9612169   0.4667423  )
        35           S   tau(  35) = (   0.0292670   0.9563028   0.1216485  )
        36           H   tau(  36) = (   0.6666667   0.3852236   0.5407634  )

     number of k points=     1  Gaussian smearing, width (Ry)=  0.0100
                       cart. coord. in units 2pi/alat
        k(    1) = (   0.0000000   0.0000000   0.0000000), wk =   2.0000000

     Dense  grid:  1177734 G-vectors     FFT dimensions: ( 120, 135, 320)

     Smooth grid:   842757 G-vectors     FFT dimensions: ( 108, 120, 270)

     Estimated max dynamical RAM per process >     146.59 MB

     Estimated total dynamical RAM >       6.87 GB

     Initial potential from superposition of free atoms

     starting charge     306.9873, renormalised to     307.0000

     negative rho (up, down):  1.416E-04 0.000E+00


---------------------------------------------------------------------------------
Carrying out rVV10 run using the following parameters:
Nqs =      20    Nr_points =    1024   r_max =   100.000
b_value =  6.30000    beta =  0.00901
     q_mesh =  0.00010000  0.00030000  0.00058939  0.00100810
               0.00161396  0.00249058  0.00375900  0.00559430
               0.00824984  0.01209221  0.01765183  0.02569619
               0.03733578  0.05417739  0.07854596  0.11380545
               0.16482331  0.23864234  0.34545298  0.50000000

Gradients computed in Reciprocal space

---------------------------------------------------------------------------------


     Starting wfcs are  213 randomized atomic wfcs

     total cpu time spent up to now is        3.4 secs

     Self-consistent Calculation

     iteration #  1     ecut=    80.00 Ry     beta= 0.70
     Davidson diagonalization with overlap
     ethr =  1.00E-02,  avg # of iterations =  3.0

     Threshold (ethr) on eigenvalues was too large:
     Diagonalizing with lowered threshold

     Davidson diagonalization with overlap
     ethr =  4.13E-04,  avg # of iterations =  4.0

     negative rho (up, down):  1.802E-08 0.000E+00

     total cpu time spent up to now is       17.0 secs

     total energy              =   -2204.75455317 Ry
     estimated scf accuracy    <       1.54476285 Ry

     iteration #  2     ecut=    80.00 Ry     beta= 0.70
     Davidson diagonalization with overlap
     ethr =  5.03E-04,  avg # of iterations =  2.0

     total cpu time spent up to now is       19.4 secs

     total energy              =   -2204.57626392 Ry
     estimated scf accuracy    <       0.61427204 Ry

     iteration #  3     ecut=    80.00 Ry     beta= 0.70
     Davidson diagonalization with overlap
     ethr =  2.00E-04,  avg # of iterations =  2.0

     total cpu time spent up to now is       21.7 secs

     total energy              =   -2204.66690126 Ry
     estimated scf accuracy    <       0.06883380 Ry

     iteration #  4     ecut=    80.00 Ry     beta= 0.70
     Davidson diagonalization with overlap
     c_bands:  1 eigenvalues not converged
     ethr =  2.24E-05,  avg # of iterations = 20.0

     total cpu time spent up to now is       25.0 secs

     total energy              =   -2204.66932051 Ry
     estimated scf accuracy    <       0.03707921 Ry

     iteration #  5     ecut=    80.00 Ry     beta= 0.70
     Davidson diagonalization with overlap
     ethr =  1.21E-05,  avg # of iterations =  2.0

     total cpu time spent up to now is       27.2 secs

     total energy              =   -2204.66811753 Ry
     estimated scf accuracy    <       0.02161077 Ry

     iteration #  6     ecut=    80.00 Ry     beta= 0.70
     Davidson diagonalization with overlap
     ethr =  7.04E-06,  avg # of iterations =  2.0

     total cpu time spent up to now is       29.4 secs

     total energy              =   -2204.66763581 Ry
     estimated scf accuracy    <       0.01323123 Ry

     iteration #  7     ecut=    80.00 Ry     beta= 0.70
     Davidson diagonalization with overlap
     ethr =  4.31E-06,  avg # of iterations =  2.0

     total cpu time spent up to now is       32.1 secs

     total energy              =   -2204.66605516 Ry
     estimated scf accuracy    <       0.00891712 Ry

     iteration #  8     ecut=    80.00 Ry     beta= 0.70
     Davidson diagonalization with overlap
     ethr =  2.90E-06,  avg # of iterations = 18.0

     negative rho (up, down):  5.490E-03 0.000E+00

     total cpu time spent up to now is       37.0 secs

     total energy              =   -2204.66502893 Ry
     estimated scf accuracy    <       0.00523680 Ry

     iteration #  9     ecut=    80.00 Ry     beta= 0.70
     Davidson diagonalization with overlap
     ethr =  1.71E-06,  avg # of iterations =  2.0

     negative rho (up, down):  2.744E-02 0.000E+00

     total cpu time spent up to now is       41.5 secs

     total energy              =   -2204.66454584 Ry
     estimated scf accuracy    <       0.00320467 Ry

     iteration # 10     ecut=    80.00 Ry     beta= 0.70
     Davidson diagonalization with overlap
     ethr =  1.04E-06,  avg # of iterations =  2.0

     negative rho (up, down):  3.081E-02 0.000E+00

     total cpu time spent up to now is       46.0 secs

     total energy              =   -2204.66459928 Ry
     estimated scf accuracy    <       0.00141264 Ry

     iteration # 11     ecut=    80.00 Ry     beta= 0.70
     Davidson diagonalization with overlap
     ethr =  4.60E-07,  avg # of iterations =  2.0

     negative rho (up, down):  2.075E-02 0.000E+00

     total cpu time spent up to now is       52.2 secs

     total energy              =   -2204.66460316 Ry
     estimated scf accuracy    <       0.00042421 Ry

     iteration # 12     ecut=    80.00 Ry     beta= 0.70
     Davidson diagonalization with overlap
     ethr =  1.38E-07,  avg # of iterations =  6.0

     negative rho (up, down):  6.490E-03 0.000E+00

     total cpu time spent up to now is       59.8 secs

     total energy              =   -2204.66465693 Ry
     estimated scf accuracy    <       0.00007840 Ry

     iteration # 13     ecut=    80.00 Ry     beta= 0.70
     Davidson diagonalization with overlap
     ethr =  2.55E-08,  avg # of iterations =  5.0

     negative rho (up, down):  1.341E-03 0.000E+00

     total cpu time spent up to now is       66.7 secs

     total energy              =   -2204.66467306 Ry
     estimated scf accuracy    <       0.00001869 Ry

     iteration # 14     ecut=    80.00 Ry     beta= 0.70
     Davidson diagonalization with overlap
     ethr =  6.09E-09,  avg # of iterations =  5.0

     negative rho (up, down):  6.206E-04 0.000E+00

     total cpu time spent up to now is       75.9 secs

     total energy              =   -2204.66468039 Ry
     estimated scf accuracy    <       0.00000607 Ry

     iteration # 15     ecut=    80.00 Ry     beta= 0.70
     Davidson diagonalization with overlap
     ethr =  1.98E-09,  avg # of iterations =  2.0

     negative rho (up, down):  4.708E-04 0.000E+00

     total cpu time spent up to now is       84.9 secs

     total energy              =   -2204.66468757 Ry
     estimated scf accuracy    <       0.00000252 Ry

     iteration # 16     ecut=    80.00 Ry     beta= 0.70
     Davidson diagonalization with overlap
     ethr =  8.22E-10,  avg # of iterations =  5.0

     negative rho (up, down):  1.391E-04 0.000E+00

     total cpu time spent up to now is       86.9 secs

     End of self-consistent calculation

          k = 0.0000 0.0000 0.0000 (105382 PWs)   bands (ev):

   -62.9514 -62.8471 -62.8051 -62.7943 -62.7834 -62.7500 -62.7450 -62.7161
   -62.7057 -62.5642 -62.5091 -62.4603 -37.2472 -37.1769 -37.1142 -37.0889
   -37.0710 -37.0530 -37.0360 -37.0325 -37.0176 -37.0031 -36.9933 -36.9763
   -36.9714 -36.9602 -36.9563 -36.9445 -36.9383 -36.9267 -36.9171 -36.9006
   -36.8788 -36.8644 -36.8607 -36.8064 -36.7983 -36.7844 -36.7822 -36.7614
   -36.7439 -36.7192 -36.7134 -36.6738 -36.6555 -36.6171 -36.4974 -36.4526
   -19.1330 -15.8356 -15.0530 -15.0282 -14.8467 -14.8252 -14.6703 -14.4178
   -14.3765 -14.3538 -14.3083 -14.2584 -14.2347 -14.2081 -14.1369 -14.0408
   -14.0324 -14.0199 -13.9442 -13.8223 -13.7521 -13.7344 -13.7086 -10.5671
    -7.5981  -7.3780  -7.3348  -7.2530  -7.1990  -7.1265  -7.1023  -7.0785
    -6.8069  -6.7563  -6.6768  -6.6496  -6.5793  -6.4438  -6.4227  -6.3735
    -6.3222  -6.2492  -6.1541  -5.9309  -5.8906  -5.8387  -5.8224  -5.7123
    -5.6795  -5.6482  -5.6100  -5.5792  -5.5534  -5.4981  -5.4734  -5.4062
    -5.3358  -5.3184  -5.1161  -5.0612  -5.0320  -4.9589  -4.9100  -4.8947
    -4.8485  -4.7542  -4.6404  -4.5591  -4.4354  -4.2858  -4.2070  -4.1419
    -4.0827  -4.0101  -3.9188  -3.8256  -3.7604  -3.7436  -3.6780  -3.6311
    -3.5522  -3.5304  -3.4734  -3.4528  -3.4046  -3.3819  -3.3626  -3.3100
    -3.2753  -3.1333  -3.1085  -2.8439  -2.7977  -2.7602  -2.7169  -2.6469
    -2.6411  -2.5921  -2.5663  -2.5150  -2.4760  -2.1897  -1.9442  -1.9129
    -1.7756  -0.6970  -0.5820  -0.2588  -0.1621  -0.0785  -0.0100   0.0820
     0.0965   0.1657   0.2347   0.2616   0.3473   0.3773   0.4524   0.5453
     0.5571   0.6106   0.6430   0.7023   0.7241   0.7512   0.7735   0.8152
     0.8697   0.8931   0.9481   0.9574   1.0185   1.0726   1.1165   1.3105
     1.4273

     the Fermi energy is    -0.7166 ev

!    total energy              =   -2204.66468753 Ry
     estimated scf accuracy    <       0.00000091 Ry
     smearing contrib. (-TS)   =      -0.00764676 Ry
     internal energy E=F+TS    =   -2204.65704078 Ry

     The total energy is F=E-TS. E is the sum of the following terms:
     one-electron contribution =  -18057.94553718 Ry
     hartree contribution      =    9016.44354287 Ry
     xc contribution           =    -385.82111659 Ry
     ewald contribution        =    7222.66607013 Ry

     convergence has been achieved in  16 iterations

     negative rho (up, down):  1.391E-04 0.000E+00

     Forces acting on atoms (cartesian axes, Ry/au):

     atom    1 type  1   force =     0.01133298   -0.03592819    0.00648756
     atom    2 type  2   force =    -0.01285334    0.01492169    0.00065558
     atom    3 type  2   force =    -0.01203118    0.00936787   -0.00362690
     atom    4 type  1   force =     0.02836848    0.00553899    0.00437092
     atom    5 type  2   force =     0.66954193    0.26776415   -2.78214621
     atom    6 type  2   force =     0.00421918    0.01063451    0.00385698
     atom    7 type  1   force =    -0.00386532   -0.00305482   -0.00607635
     atom    8 type  2   force =     0.00336895    0.00440717    0.01918097
     atom    9 type  2   force =     0.01495017    0.00087670    0.00978110
     atom   10 type  1   force =    -0.01163720    0.01016603   -0.02530409
     atom   11 type  2   force =     0.00340332   -0.00301139   -0.00455903
     atom   12 type  2   force =    -0.00054412    0.00235261    0.00474032
     atom   13 type  1   force =     0.00716283    0.00488951   -0.00935526
     atom   14 type  2   force =     0.00604789   -0.00153265    0.01146256
     atom   15 type  2   force =    -0.01177740    0.00257989   -0.00931848
     atom   16 type  1   force =    -0.00049787    0.00288027   -0.00276593
     atom   17 type  2   force =     0.00423157    0.00203753   -0.00146439
     atom   18 type  2   force =    -0.00549850   -0.00484535    0.01593551
     atom   19 type  1   force =     0.01050954    0.00939404   -0.00377631
     atom   20 type  2   force =     0.00157261   -0.00767456    0.00144577
     atom   21 type  1   force =    -0.00491470    0.00627559    0.00089817
     atom   22 type  2   force =    -0.00161082   -0.00354331   -0.00183228
     atom   23 type  2   force =    -0.00105334    0.00215843    0.00921890
     atom   24 type  1   force =    -0.01149988   -0.00128926   -0.02155509
     atom   25 type  2   force =     0.01622598    0.01876215    0.00768128
     atom   26 type  2   force =    -0.01102055   -0.00068253   -0.00393601
     atom   27 type  1   force =    -0.00988591   -0.00706817    0.01448956
     atom   28 type  2   force =     0.00599536   -0.00029426   -0.01040833
     atom   29 type  2   force =    -0.00078555    0.00238563   -0.00431762
     atom   30 type  1   force =    -0.00389190    0.00870415   -0.00478067
     atom   31 type  2   force =     0.00125701   -0.00025968    0.01732149
     atom   32 type  2   force =    -0.01101286    0.00337914    0.00696626
     atom   33 type  1   force =     0.01335858   -0.00486389   -0.00977733
     atom   34 type  2   force =     0.00333102   -0.04389183   -0.01158281
     atom   35 type  2   force =    -0.00804042    0.00661612    0.01610802
     atom   36 type  3   force =    -0.68245653   -0.27815229    2.76598217
     The non-local contrib.  to forces
     atom    1 type  1   force =    -0.00359265    0.01984179   -0.01610652
     atom    2 type  2   force =    -0.01621315    0.00709148   -0.26375516
     atom    3 type  2   force =    -0.01624030   -0.00494531    0.27342911
     atom    4 type  1   force =    -0.00077708    0.01481035   -0.01208409
     atom    5 type  2   force =     0.39807168    0.13128470   -1.56333845
     atom    6 type  2   force =    -0.00183314    0.00956253    0.27118090
     atom    7 type  1   force =    -0.03482188   -0.00738497   -0.01225396
     atom    8 type  2   force =     0.00296558   -0.00324136   -0.24690474
     atom    9 type  2   force =     0.01295538   -0.02128123    0.27818908
     atom   10 type  1   force =     0.00742926   -0.00633366   -0.00155236
     atom   11 type  2   force =     0.01390832    0.00447809   -0.25942003
     atom   12 type  2   force =    -0.01215260   -0.01514020    0.26165822
     atom   13 type  1   force =    -0.00257190    0.01978695   -0.00812793
     atom   14 type  2   force =     0.01625767   -0.00427342   -0.25565140
     atom   15 type  2   force =    -0.00909278   -0.00465782    0.26274108
     atom   16 type  1   force =    -0.00665531    0.05760793   -0.01088149
     atom   17 type  2   force =     0.00928069   -0.01911721   -0.24381238
     atom   18 type  2   force =    -0.00388816   -0.00173860    0.27198580
     atom   19 type  1   force =     0.02135019   -0.01409205   -0.00625741
     atom   20 type  2   force =    -0.00000508   -0.02314924    0.26358155
     atom   21 type  1   force =    -0.00134666    0.01323705    0.00405892
     atom   22 type  2   force =    -0.00677716    0.00480421   -0.25956419
     atom   23 type  2   force =     0.00586129   -0.01255188    0.26578992
     atom   24 type  1   force =     0.01093688    0.01018003   -0.01190287
     atom   25 type  2   force =     0.00878399    0.00897374   -0.25708537
     atom   26 type  2   force =    -0.00289928   -0.01259493    0.26499316
     atom   27 type  1   force =     0.00421263    0.02134207    0.01199478
     atom   28 type  2   force =    -0.00773808   -0.02095427   -0.27134846
     atom   29 type  2   force =     0.00141471    0.00807756    0.26510008
     atom   30 type  1   force =     0.00508817    0.02209420    0.01185490
     atom   31 type  2   force =    -0.00846808    0.00027012   -0.25168738
     atom   32 type  2   force =    -0.00879491   -0.01575226    0.27293460
     atom   33 type  1   force =    -0.00335743    0.00469495    0.00667328
     atom   34 type  2   force =    -0.00193067   -0.03969204   -0.27417138
     atom   35 type  2   force =    -0.00254206   -0.01211116    0.27217022
     atom   36 type  3   force =     0.05667516    0.02288003   -0.20357752
     The ionic contribution  to forces
     atom    1 type  1   force =     0.46032949   -0.29135017    5.13599125
     atom    2 type  2   force =    -0.53917683    0.20452076   39.25588529
     atom    3 type  2   force =    -0.13586041   -0.03314582  -36.11894064
     atom    4 type  1   force =     0.49030501    0.78879936    0.17284695
     atom    5 type  2   force =     0.33297752    2.02548027   33.66318879
     atom    6 type  2   force =     0.35548268   -0.50654332  -38.16508016
     atom    7 type  1   force =    -2.60188401   -2.52920749    2.45224370
     atom    8 type  2   force =    -0.85245215    0.24391760   37.34337917
     atom    9 type  2   force =     0.36764137    0.01054407  -38.04033015
     atom   10 type  1   force =    -1.04013689   -0.39606828    5.65916556
     atom   11 type  2   force =    -0.55851793   -1.59084107   39.14673672
     atom   12 type  2   force =     0.44516152    0.69515095  -37.85486035
     atom   13 type  1   force =     0.27654896    0.80289950    2.71197586
     atom   14 type  2   force =    -0.05602596   -0.26103181   38.47226417
     atom   15 type  2   force =     0.13558011   -0.11841097  -36.84872572
     atom   16 type  1   force =    -0.38058034    4.19993665   -0.14650292
     atom   17 type  2   force =     0.51485998    1.50321042   37.85829020
     atom   18 type  2   force =    -0.20243551   -0.64814601  -38.61810080
     atom   19 type  1   force =     2.63479129   -2.31021361    0.62355290
     atom   20 type  2   force =     0.20787147   -0.14776437  -38.52045927
     atom   21 type  1   force =    -0.00704610   -0.03691233    1.14849976
     atom   22 type  2   force =     0.42933522   -1.70684188   38.44395250
     atom   23 type  2   force =    -0.09760360    0.66737061  -38.28034637
     atom   24 type  1   force =    -0.39937586    0.99243882    5.74997119
     atom   25 type  2   force =     0.64244173    0.21562420   39.27622350
     atom   26 type  2   force =    -0.29347492    0.03689234  -37.33624980
     atom   27 type  1   force =    -0.01712462    0.46464256   -2.33203188
     atom   28 type  2   force =     0.23574697    1.00718041   38.17321837
     atom   29 type  2   force =    -0.23059275   -0.43032381  -37.30680782
     atom   30 type  1   force =    -0.27540969   -0.78552452   -0.04554280
     atom   31 type  2   force =     1.20779133    0.01285365   37.32981665
     atom   32 type  2   force =    -0.48531383    0.02077603  -38.63959143
     atom   33 type  1   force =     0.78280107   -0.89859656    2.09477762
     atom   34 type  2   force =     0.26051836   -1.43944146   39.36943016
     atom   35 type  2   force =    -0.29150629    0.47980233  -37.80277859
     atom   36 type  3   force =    -1.31566640   -0.24167704   11.97493838
     The local contribution  to forces
     atom    1 type  1   force =    -0.44529129    0.23564180   -5.11208543
     atom    2 type  2   force =     0.54189991   -0.19612661  -39.01126721
     atom    3 type  2   force =     0.13931368    0.04731678   35.86332700
     atom    4 type  1   force =    -0.46137274   -0.79803749   -0.15505914
     atom    5 type  2   force =    -0.04007325   -1.88226517  -34.97225097
     atom    6 type  2   force =    -0.34950064    0.50852032   37.91941975
     atom    7 type  1   force =     2.63300095    2.53362509   -2.44488268
     atom    8 type  2   force =     0.85272945   -0.23690261  -37.09667652
     atom    9 type  2   force =    -0.36523270    0.01047806   37.79339751
     atom   10 type  1   force =     1.02103038    0.41244421   -5.68180110
     atom   11 type  2   force =     0.54874917    1.58383019  -38.91196174
     atom   12 type  2   force =    -0.43461493   -0.67898248   37.61911137
     atom   13 type  1   force =    -0.26681048   -0.81802425   -2.71205121
     atom   14 type  2   force =     0.04678471    0.26426837  -38.22476057
     atom   15 type  2   force =    -0.13873625    0.12530551   36.59767990
     atom   16 type  1   force =     0.38718197   -4.25459801    0.15602988
     atom   17 type  2   force =    -0.51923935   -1.48325659  -37.63503763
     atom   18 type  2   force =     0.20058075    0.64544767   38.38322492
     atom   19 type  1   force =    -2.64548032    2.33383533   -0.61990882
     atom   20 type  2   force =    -0.20621079    0.16239740   38.27972949
     atom   21 type  1   force =     0.00365034    0.02993992   -1.15058603
     atom   22 type  2   force =    -0.42435202    1.69918593  -38.20608617
     atom   23 type  2   force =     0.09120826   -0.65362097   38.04480343
     atom   24 type  1   force =     0.37686733   -1.00403617   -5.75848359
     atom   25 type  2   force =    -0.63497824   -0.20523794  -39.03138080
     atom   26 type  2   force =     0.28544524   -0.02566407   37.08859865
     atom   27 type  1   force =     0.00275931   -0.49308600    2.33557482
     atom   28 type  2   force =    -0.22275765   -0.98817988  -37.93240742
     atom   29 type  2   force =     0.22863968    0.42547165   37.05840876
     atom   30 type  1   force =     0.26616510    0.77224978    0.03000692
     atom   31 type  2   force =    -1.19872390   -0.01347856  -37.08056139
     atom   32 type  2   force =     0.48271220   -0.00259182   38.39486322
     atom   33 type  1   force =    -0.76621301    0.88911523   -2.11008520
     atom   34 type  2   force =    -0.25575116    1.43397997  -39.12743516
     atom   35 type  2   force =     0.28600317   -0.46211048   37.56822489
     atom   36 type  3   force =     0.57654470   -0.05936223   -9.00529302
     The core correction contribution to forces
     atom    1 type  1   force =     0.00000000    0.00000000    0.00000000
     atom    2 type  2   force =     0.00063095   -0.00059068    0.02030397
     atom    3 type  2   force =     0.00076620    0.00008956   -0.02105929
     atom    4 type  1   force =     0.00000000    0.00000000    0.00000000
     atom    5 type  2   force =    -0.02132688   -0.00673787    0.09056417
     atom    6 type  2   force =     0.00014217   -0.00095438   -0.02132513
     atom    7 type  1   force =     0.00000000    0.00000000    0.00000000
     atom    8 type  2   force =     0.00003900    0.00071601    0.01986058
     atom    9 type  2   force =    -0.00046908    0.00125253   -0.02105948
     atom   10 type  1   force =     0.00000000    0.00000000    0.00000000
     atom   11 type  2   force =    -0.00068628   -0.00056065    0.02054002
     atom   12 type  2   force =     0.00110354    0.00125151   -0.02073282
     atom   13 type  1   force =     0.00000000    0.00000000    0.00000000
     atom   14 type  2   force =    -0.00094828   -0.00052558    0.02015714
     atom   15 type  2   force =     0.00047756    0.00027853   -0.02066940
     atom   16 type  1   force =     0.00000000    0.00000000    0.00000000
     atom   17 type  2   force =    -0.00064879    0.00112417    0.01971869
     atom   18 type  2   force =     0.00018668   -0.00050927   -0.02092290
     atom   19 type  1   force =     0.00000000    0.00000000    0.00000000
     atom   20 type  2   force =     0.00010400    0.00093732   -0.02109033
     atom   21 type  1   force =     0.00000000    0.00000000    0.00000000
     atom   22 type  2   force =     0.00018046   -0.00061051    0.02048382
     atom   23 type  2   force =    -0.00050202    0.00106586   -0.02075317
     atom   24 type  1   force =     0.00000000    0.00000000    0.00000000
     atom   25 type  2   force =    -0.00004739   -0.00064693    0.02048066
     atom   26 type  2   force =    -0.00011952    0.00064416   -0.02093147
     atom   27 type  1   force =     0.00000000    0.00000000    0.00000000
     atom   28 type  2   force =     0.00068094    0.00162182    0.02067298
     atom   29 type  2   force =    -0.00025589   -0.00088350   -0.02069376
     atom   30 type  1   force =     0.00000000    0.00000000    0.00000000
     atom   31 type  2   force =     0.00054194    0.00014234    0.02037722
     atom   32 type  2   force =     0.00024700    0.00096174   -0.02097905
     atom   33 type  1   force =     0.00000000    0.00000000    0.00000000
     atom   34 type  2   force =     0.00045913    0.00124993    0.02114311
     atom   35 type  2   force =    -0.00005358    0.00103739   -0.02114543
     atom   36 type  3   force =     0.00000000    0.00000000    0.00000000
     The Hubbard contrib.    to forces
     atom    1 type  1   force =     0.00000000    0.00000000    0.00000000
     atom    2 type  2   force =     0.00000000    0.00000000    0.00000000
     atom    3 type  2   force =     0.00000000    0.00000000    0.00000000
     atom    4 type  1   force =     0.00000000    0.00000000    0.00000000
     atom    5 type  2   force =     0.00000000    0.00000000    0.00000000
     atom    6 type  2   force =     0.00000000    0.00000000    0.00000000
     atom    7 type  1   force =     0.00000000    0.00000000    0.00000000
     atom    8 type  2   force =     0.00000000    0.00000000    0.00000000
     atom    9 type  2   force =     0.00000000    0.00000000    0.00000000
     atom   10 type  1   force =     0.00000000    0.00000000    0.00000000
     atom   11 type  2   force =     0.00000000    0.00000000    0.00000000
     atom   12 type  2   force =     0.00000000    0.00000000    0.00000000
     atom   13 type  1   force =     0.00000000    0.00000000    0.00000000
     atom   14 type  2   force =     0.00000000    0.00000000    0.00000000
     atom   15 type  2   force =     0.00000000    0.00000000    0.00000000
     atom   16 type  1   force =     0.00000000    0.00000000    0.00000000
     atom   17 type  2   force =     0.00000000    0.00000000    0.00000000
     atom   18 type  2   force =     0.00000000    0.00000000    0.00000000
     atom   19 type  1   force =     0.00000000    0.00000000    0.00000000
     atom   20 type  2   force =     0.00000000    0.00000000    0.00000000
     atom   21 type  1   force =     0.00000000    0.00000000    0.00000000
     atom   22 type  2   force =     0.00000000    0.00000000    0.00000000
     atom   23 type  2   force =     0.00000000    0.00000000    0.00000000
     atom   24 type  1   force =     0.00000000    0.00000000    0.00000000
     atom   25 type  2   force =     0.00000000    0.00000000    0.00000000
     atom   26 type  2   force =     0.00000000    0.00000000    0.00000000
     atom   27 type  1   force =     0.00000000    0.00000000    0.00000000
     atom   28 type  2   force =     0.00000000    0.00000000    0.00000000
     atom   29 type  2   force =     0.00000000    0.00000000    0.00000000
     atom   30 type  1   force =     0.00000000    0.00000000    0.00000000
     atom   31 type  2   force =     0.00000000    0.00000000    0.00000000
     atom   32 type  2   force =     0.00000000    0.00000000    0.00000000
     atom   33 type  1   force =     0.00000000    0.00000000    0.00000000
     atom   34 type  2   force =     0.00000000    0.00000000    0.00000000
     atom   35 type  2   force =     0.00000000    0.00000000    0.00000000
     atom   36 type  3   force =     0.00000000    0.00000000    0.00000000
     The SCF correction term to forces
     atom    1 type  1   force =    -0.00011282   -0.00006644   -0.00127450
     atom    2 type  2   force =     0.00000552    0.00002190   -0.00047409
     atom    3 type  2   force =    -0.00001060    0.00004784   -0.00034585
     atom    4 type  1   force =     0.00021304   -0.00003806   -0.00129557
     atom    5 type  2   force =    -0.00010739   -0.00000262   -0.00027251
     atom    6 type  2   force =    -0.00007214    0.00004453   -0.00030115
     atom    7 type  1   force =    -0.00016063   -0.00009228   -0.00114618
     atom    8 type  2   force =     0.00008683   -0.00008731   -0.00044030
     atom    9 type  2   force =     0.00005495   -0.00012157   -0.00037862
     atom   10 type  1   force =     0.00003981    0.00011892   -0.00107897
     atom   11 type  2   force =    -0.00005021    0.00007720   -0.00041676
     atom   12 type  2   force =    -0.00004191    0.00006800   -0.00039886
     atom   13 type  1   force =    -0.00000400    0.00022247   -0.00111476
     atom   14 type  2   force =    -0.00002050    0.00002496   -0.00050955
     atom   15 type  2   force =    -0.00000628    0.00005980   -0.00030711
     atom   16 type  1   force =    -0.00044444   -0.00007114   -0.00137417
     atom   17 type  2   force =    -0.00002120    0.00007191   -0.00058604
     atom   18 type  2   force =     0.00005748    0.00009603   -0.00021429
     atom   19 type  1   force =    -0.00015186   -0.00014046   -0.00112575
     atom   20 type  2   force =    -0.00018724   -0.00010051   -0.00027843
     atom   21 type  1   force =    -0.00017252    0.00000612   -0.00103725
     atom   22 type  2   force =     0.00000243   -0.00008589   -0.00058101
     atom   23 type  2   force =    -0.00001752   -0.00011002   -0.00023768
     atom   24 type  1   force =     0.00007152    0.00012323   -0.00110260
     atom   25 type  2   force =     0.00002564    0.00004424   -0.00051948
     atom   26 type  2   force =     0.00002769    0.00003513   -0.00030933
     atom   27 type  1   force =     0.00026652    0.00002835   -0.00101093
     atom   28 type  2   force =     0.00006294    0.00003282   -0.00050657
     atom   29 type  2   force =     0.00000846    0.00003890   -0.00028765
     atom   30 type  1   force =     0.00026427   -0.00012015   -0.00106246
     atom   31 type  2   force =     0.00011546   -0.00005207   -0.00058638
     atom   32 type  2   force =     0.00013641   -0.00001938   -0.00022385
     atom   33 type  1   force =     0.00012771   -0.00008234   -0.00110580
     atom   34 type  2   force =     0.00003511    0.00000694   -0.00051230
     atom   35 type  2   force =     0.00005809   -0.00000681   -0.00032583
     atom   36 type  3   force =    -0.00001024    0.00000211   -0.00004844

     Total force =     4.057777     Total SCF correction =     0.004534

     BFGS Geometry Optimization
     Energy error            =      0.0E+00 Ry
     Gradient error          =      2.8E+00 Ry/Bohr

     number of scf cycles    =   1
     number of bfgs steps    =   0

     energy             new  =   -2204.6646875316 Ry

     new trust radius        =       0.5000000000 bohr
     new conv_thr            =       0.0000010000 Ry


ATOMIC_POSITIONS (angstrom)
Mo            6.5755917269        1.7844986678        2.8242402793
S             8.1755260553        0.8110777208        4.4345987052
S             8.1921254917        0.8121041547        1.2775495323
Mo            8.0977741775        4.4955668661        2.7182207815
S             6.5615475266        3.7470619512        4.0905352721
S             6.5537382171        3.5127165727        1.1216353034
Mo            6.4896258537        7.2181560562        2.6713250933
S             8.0820378753        6.3442767180        4.2442273701
S             8.0822939650        6.3047830257        1.0847634499
Mo            8.1595477231        9.9031163012        2.8411322572
S             6.4954809068        8.9426495844        4.3826858272
S             6.6178971074        9.0489277955        1.1403436984
Mo            3.4223190753        1.7474059805        2.7756099140
S             4.9757222618        0.8168001128        4.3515883398
S             5.0567495227        0.8464996144        1.2258005982
Mo            4.9797108475        4.5134431617        2.6326299167
S             3.4282312220        3.6717872619        4.2795747673
S             3.4374143867        3.5477826334        1.0598187108
Mo            3.4548292523        7.2171893575        2.6303292134
S             4.9833789682        6.3262257628        1.0373868293
Mo            5.0118114715        9.9021777844        2.7434836462
S             3.4708098243        8.9434250708        4.3254226318
S             3.4083321951        9.0651886899        1.0969169946
Mo            0.2950318042        1.7473908415        2.8474603393
S             1.8519559824        0.7944212568        4.3989165798
S             1.8597854784        0.8543630839        1.2090385040
Mo            1.8597812087        4.4950160628        2.6615312942
S             0.2727657846        3.6543717363        4.3366259049
S             0.2311588896        3.5274688485        1.1716204019
Mo            0.2707938612        7.2174474010        2.7012563173
S             1.9023539682        6.3127749285        4.2240387436
S             1.8612243662        6.3106548969        1.0452005996
Mo            1.8455764583        9.9396913825        2.7720461471
S             0.2962195541        9.0859571298        4.4128031482
S             0.2760311954        9.0441347966        1.1518836899
H             6.2416794740        3.6173598676        5.3685067746



     Writing config-only to output data dir ./MoS2-V-O.save/
     NEW-OLD atomic charge density approx. for the potential

     negative rho (up, down):  1.509E-04 0.000E+00

     total cpu time spent up to now is       90.2 secs

     Self-consistent Calculation

     iteration #  1     ecut=    80.00 Ry     beta= 0.70
     Davidson diagonalization with overlap
     c_bands:  2 eigenvalues not converged
     ethr =  1.00E-06,  avg # of iterations = 20.0

     negative rho (up, down):  2.982E-04 0.000E+00

     total cpu time spent up to now is      102.7 secs

     total energy              =   -2205.52681418 Ry
     estimated scf accuracy    <       0.18327559 Ry

     iteration #  2     ecut=    80.00 Ry     beta= 0.70
     Davidson diagonalization with overlap
     ethr =  5.97E-05,  avg # of iterations =  3.0

     negative rho (up, down):  4.717E-04 0.000E+00

     total cpu time spent up to now is      124.4 secs

     total energy              =   -2205.52936175 Ry
     estimated scf accuracy    <       0.03213991 Ry

     iteration #  3     ecut=    80.00 Ry     beta= 0.70
     Davidson diagonalization with overlap
     ethr =  1.05E-05,  avg # of iterations =  3.0

     negative rho (up, down):  5.912E-04 0.000E+00

     total cpu time spent up to now is      142.8 secs

     total energy              =   -2205.53214689 Ry
     estimated scf accuracy    <       0.00367931 Ry

     iteration #  4     ecut=    80.00 Ry     beta= 0.70
     Davidson diagonalization with overlap
     ethr =  1.20E-06,  avg # of iterations = 10.0

     negative rho (up, down):  6.543E-04 0.000E+00

     total cpu time spent up to now is      160.4 secs

     total energy              =   -2205.53277048 Ry
     estimated scf accuracy    <       0.00034761 Ry

     iteration #  5     ecut=    80.00 Ry     beta= 0.70
     Davidson diagonalization with overlap
     ethr =  1.13E-07,  avg # of iterations =  5.0

     negative rho (up, down):  6.889E-04 0.000E+00

     total cpu time spent up to now is      178.3 secs

     total energy              =   -2205.53279187 Ry
     estimated scf accuracy    <       0.00005908 Ry

     iteration #  6     ecut=    80.00 Ry     beta= 0.70
     Davidson diagonalization with overlap
     ethr =  1.92E-08,  avg # of iterations =  5.0

     negative rho (up, down):  6.749E-04 0.000E+00

     total cpu time spent up to now is      189.3 secs

     total energy              =   -2205.53279886 Ry
     estimated scf accuracy    <       0.00001370 Ry

     iteration #  7     ecut=    80.00 Ry     beta= 0.70
     Davidson diagonalization with overlap
     ethr =  4.46E-09,  avg # of iterations =  2.0

     negative rho (up, down):  6.145E-04 0.000E+00

     total cpu time spent up to now is      200.3 secs

     total energy              =   -2205.53280072 Ry
     estimated scf accuracy    <       0.00000244 Ry

     iteration #  8     ecut=    80.00 Ry     beta= 0.70
     Davidson diagonalization with overlap
     ethr =  7.94E-10,  avg # of iterations = 10.0

     negative rho (up, down):  1.367E-04 0.000E+00

     total cpu time spent up to now is      202.8 secs

     End of self-consistent calculation

          k = 0.0000 0.0000 0.0000 (105382 PWs)   bands (ev):

   -62.8811 -62.8146 -62.8002 -62.7882 -62.7772 -62.7531 -62.7463 -62.7335
   -62.7099 -62.5823 -62.5109 -62.3940 -37.2773 -37.1513 -37.0911 -37.0808
   -37.0552 -37.0470 -37.0277 -37.0177 -37.0102 -37.0022 -36.9865 -36.9766
   -36.9675 -36.9585 -36.9445 -36.9401 -36.9394 -36.9300 -36.9192 -36.9016
   -36.8890 -36.8739 -36.8633 -36.8136 -36.7955 -36.7904 -36.7871 -36.7552
   -36.7429 -36.7293 -36.7092 -36.6736 -36.6436 -36.5833 -36.5002 -36.4170
   -16.8930 -15.7696 -15.0471 -15.0141 -14.8391 -14.8233 -14.6593 -14.4223
   -14.3912 -14.3523 -14.3086 -14.2580 -14.2361 -14.2061 -14.1347 -14.0410
   -14.0328 -14.0229 -13.9425 -13.8232 -13.7488 -13.7443 -13.7076  -9.7424
    -7.7235  -7.5582  -7.4143  -7.2979  -7.2091  -7.1464  -7.1007  -7.0742
    -6.8545  -6.7886  -6.6868  -6.6613  -6.5806  -6.4659  -6.4123  -6.3728
    -6.3056  -6.2425  -6.1586  -5.9927  -5.9123  -5.8319  -5.8251  -5.7179
    -5.7110  -5.6722  -5.6161  -5.6125  -5.5754  -5.4949  -5.4746  -5.4057
    -5.3504  -5.3375  -5.1365  -5.0789  -5.0426  -4.9586  -4.9128  -4.8959
    -4.8341  -4.7485  -4.6683  -4.5194  -4.4653  -4.3618  -4.2162  -4.1405
    -4.0805  -4.0017  -3.9239  -3.7976  -3.7900  -3.7294  -3.6738  -3.6148
    -3.5551  -3.5428  -3.5021  -3.4692  -3.4128  -3.3907  -3.3626  -3.3173
    -3.2813  -3.1124  -3.1119  -2.8524  -2.8105  -2.7796  -2.6962  -2.6634
    -2.6441  -2.6154  -2.5786  -2.5256  -2.4767  -2.2080  -1.9548  -1.9165
    -1.7847  -0.7023  -0.5653  -0.2947  -0.1062  -0.0681   0.0043   0.0840
     0.1295   0.2081   0.3011   0.3159   0.3413   0.3936   0.4754   0.5435
     0.5682   0.6289   0.6731   0.6934   0.7140   0.7526   0.7999   0.8298
     0.8717   0.8970   0.9588   0.9834   1.0489   1.0826   1.1116   1.3662
     1.4511

     the Fermi energy is    -0.7164 ev

!    total energy              =   -2205.53280225 Ry
     estimated scf accuracy    <       0.00000082 Ry
     smearing contrib. (-TS)   =      -0.00722656 Ry
     internal energy E=F+TS    =   -2205.52557569 Ry

     The total energy is F=E-TS. E is the sum of the following terms:
     one-electron contribution =  -18084.37976625 Ry
     hartree contribution      =    9029.63348061 Ry
     xc contribution           =    -385.57854900 Ry
     ewald contribution        =    7234.79925896 Ry

     convergence has been achieved in   8 iterations

     negative rho (up, down):  1.367E-04 0.000E+00

     Forces acting on atoms (cartesian axes, Ry/au):

     atom    1 type  1   force =     0.01373977   -0.06109019   -0.02512675
     atom    2 type  2   force =    -0.01324389    0.01592760    0.00274323
     atom    3 type  2   force =    -0.00897316    0.00783792   -0.00490873
     atom    4 type  1   force =     0.09704279    0.03914802   -0.05792650
     atom    5 type  2   force =    -0.07417922   -0.03660837    0.07085199
     atom    6 type  2   force =     0.00389163    0.00825607   -0.01177993
     atom    7 type  1   force =    -0.00704064    0.00033581   -0.00359996
     atom    8 type  2   force =     0.00236918    0.00430514    0.02140448
     atom    9 type  2   force =     0.01330198    0.00508429    0.00732007
     atom   10 type  1   force =    -0.01036861    0.00993387   -0.02327610
     atom   11 type  2   force =     0.00340974   -0.00235271   -0.00498166
     atom   12 type  2   force =    -0.00089739    0.00124323    0.00402426
     atom   13 type  1   force =     0.00520075    0.00434451   -0.00944780
     atom   14 type  2   force =     0.00738431    0.00224834    0.01396126
     atom   15 type  2   force =    -0.01373379    0.00112165   -0.00956797
     atom   16 type  1   force =    -0.02391374    0.01481053   -0.04200546
     atom   17 type  2   force =     0.01186299    0.00301375    0.00276660
     atom   18 type  2   force =    -0.01009299   -0.00666823    0.01549115
     atom   19 type  1   force =     0.01065500    0.01083932   -0.00376349
     atom   20 type  2   force =     0.00206765   -0.00380647   -0.00043623
     atom   21 type  1   force =    -0.00499817    0.00570501    0.00058416
     atom   22 type  2   force =    -0.00112862   -0.00301202   -0.00080019
     atom   23 type  2   force =    -0.00099936    0.00186628    0.00782077
     atom   24 type  1   force =    -0.00856939   -0.00386077   -0.02170235
     atom   25 type  2   force =     0.01548900    0.01781087    0.00644307
     atom   26 type  2   force =    -0.01052885   -0.00070751   -0.00359081
     atom   27 type  1   force =    -0.01016445   -0.00676305    0.01064199
     atom   28 type  2   force =     0.00470754   -0.00149985   -0.00627621
     atom   29 type  2   force =     0.00419613   -0.00138512   -0.00521738
     atom   30 type  1   force =    -0.00532424    0.00663536   -0.00413591
     atom   31 type  2   force =     0.00180548    0.00013379    0.01705851
     atom   32 type  2   force =    -0.01058721    0.00263018    0.00733227
     atom   33 type  1   force =     0.01227341   -0.00438678   -0.00805045
     atom   34 type  2   force =     0.00291675   -0.04168722   -0.01176136
     atom   35 type  2   force =    -0.00770114    0.00669267    0.01539502
     atom   36 type  3   force =     0.01013077    0.00390408    0.05451643
     The non-local contrib.  to forces
     atom    1 type  1   force =    -0.00237513    0.02500650   -0.00672583
     atom    2 type  2   force =    -0.01587334    0.00870357   -0.26431695
     atom    3 type  2   force =    -0.01326318   -0.00527217    0.27133850
     atom    4 type  1   force =    -0.01003692    0.00753917    0.00169693
     atom    5 type  2   force =    -0.04761153   -0.05289894    0.29438063
     atom    6 type  2   force =    -0.00273645    0.00795315    0.26796466
     atom    7 type  1   force =    -0.03348037   -0.00928134   -0.01304549
     atom    8 type  2   force =     0.00287041   -0.01038449   -0.24809952
     atom    9 type  2   force =     0.01092699   -0.01772623    0.27537530
     atom   10 type  1   force =     0.00648915   -0.00572378   -0.00115830
     atom   11 type  2   force =     0.01346168    0.00430348   -0.26011864
     atom   12 type  2   force =    -0.01274828   -0.01510680    0.26245028
     atom   13 type  1   force =    -0.00287517    0.02015320   -0.00766975
     atom   14 type  2   force =     0.01613865   -0.00281494   -0.25422781
     atom   15 type  2   force =    -0.01236035   -0.00438319    0.26078672
     atom   16 type  1   force =    -0.00460968    0.05406361    0.00589914
     atom   17 type  2   force =     0.01148555   -0.02061566   -0.23865324
     atom   18 type  2   force =    -0.00720390   -0.00657136    0.26986106
     atom   19 type  1   force =     0.02089999   -0.01522179   -0.00684344
     atom   20 type  2   force =     0.00123500   -0.02022521    0.26177178
     atom   21 type  1   force =    -0.00147585    0.01350407    0.00439699
     atom   22 type  2   force =    -0.00694261    0.00484418   -0.25908557
     atom   23 type  2   force =     0.00599377   -0.01225507    0.26541684
     atom   24 type  1   force =     0.01070916    0.01048139   -0.01269122
     atom   25 type  2   force =     0.00838344    0.00806687   -0.25882506
     atom   26 type  2   force =    -0.00269389   -0.01330323    0.26510163
     atom   27 type  1   force =     0.00582141    0.01777296    0.00737537
     atom   28 type  2   force =    -0.01205034   -0.02002913   -0.27077131
     atom   29 type  2   force =     0.00550412    0.00285502    0.26199708
     atom   30 type  1   force =     0.00654469    0.02456668    0.01191196
     atom   31 type  2   force =    -0.00844797    0.00093911   -0.25217514
     atom   32 type  2   force =    -0.00861583   -0.01535821    0.27376756
     atom   33 type  1   force =    -0.00290443    0.00563587    0.00696736
     atom   34 type  2   force =    -0.00208771   -0.03804752   -0.27484596
     atom   35 type  2   force =    -0.00242793   -0.01198226    0.27174699
     atom   36 type  3   force =     0.01953867    0.00775963   -0.06701237
     The ionic contribution  to forces
     atom    1 type  1   force =     0.24710777   -1.24688818    5.35722453
     atom    2 type  2   force =    -0.54111791    0.20210754   39.41260290
     atom    3 type  2   force =    -0.10356655   -0.09516840  -36.14738258
     atom    4 type  1   force =     1.82692409    1.48321768   -0.33311073
     atom    5 type  2   force =    -1.02262040    1.37930183   35.17664622
     atom    6 type  2   force =     0.32051953   -0.55974692  -38.43969709
     atom    7 type  1   force =    -2.63212033   -2.31578765    2.57451268
     atom    8 type  2   force =    -0.86014277    0.29718481   37.55261734
     atom    9 type  2   force =     0.39400383    0.08643930  -38.07007102
     atom   10 type  1   force =    -0.98396576   -0.42781231    5.72534016
     atom   11 type  2   force =    -0.55721503   -1.58321017   39.20869449
     atom   12 type  2   force =     0.43057393    0.69188793  -37.84035420
     atom   13 type  1   force =     0.22192509    0.75428874    2.89267835
     atom   14 type  2   force =    -0.04538820   -0.16861416   38.62569249
     atom   15 type  2   force =     0.10200571   -0.16254884  -36.85428267
     atom   16 type  1   force =    -1.46925048    4.55473289   -0.13964287
     atom   17 type  2   force =     0.64128599    1.49022085   38.02363215
     atom   18 type  2   force =    -0.25427877   -0.64268246  -38.60160032
     atom   19 type  1   force =     2.57717319   -2.31596234    0.73158185
     atom   20 type  2   force =     0.15768622   -0.09286363  -38.54092094
     atom   21 type  1   force =    -0.03006498   -0.04780776    1.29508320
     atom   22 type  2   force =     0.42981039   -1.70031684   38.50504684
     atom   23 type  2   force =    -0.10042752    0.66634885  -38.26533041
     atom   24 type  1   force =    -0.21051402    0.83391931    5.84344825
     atom   25 type  2   force =     0.63846666    0.21211065   39.33093378
     atom   26 type  2   force =    -0.27928584    0.02080168  -37.31104568
     atom   27 type  1   force =     0.09473578    0.50502012   -2.12773498
     atom   28 type  2   force =     0.28069910    0.97132805   38.35480457
     atom   29 type  2   force =    -0.14198294   -0.43679463  -37.35212413
     atom   30 type  1   force =    -0.19515565   -0.71969236    0.04905097
     atom   31 type  2   force =     1.23680607    0.01576088   37.40158076
     atom   32 type  2   force =    -0.46353156    0.02929230  -38.60930255
     atom   33 type  1   force =     0.75728001   -0.85927037    2.20151595
     atom   34 type  2   force =     0.25454174   -1.39629954   39.40165585
     atom   35 type  2   force =    -0.27393417    0.48458682  -37.77313848
     atom   36 type  3   force =    -0.44698222    0.09291632    8.74139530
     The local contribution  to forces
     atom    1 type  1   force =    -0.23102232    1.16060371   -5.37572016
     atom    2 type  2   force =     0.54322435   -0.19436735  -39.16559410
     atom    3 type  2   force =     0.10729231    0.10805330   35.89188029
     atom    4 type  1   force =    -1.72000526   -1.45144003    0.27362932
     atom    5 type  2   force =     0.99305120   -1.36626934  -35.38988140
     atom    6 type  2   force =    -0.31412250    0.56090620   38.18077869
     atom    7 type  1   force =     2.65847345    2.32577579   -2.56454197
     atom    8 type  2   force =     0.85960514   -0.28339404  -37.30276962
     atom    9 type  2   force =    -0.39122657   -0.06459063   37.82273409
     atom   10 type  1   force =     0.96721724    0.44309666   -5.74705243
     atom   11 type  2   force =     0.54781976    1.57704254  -38.97389049
     atom   12 type  2   force =    -0.41986539   -0.67677424   37.60255402
     atom   13 type  1   force =    -0.21404444   -0.77049793   -2.89418815
     atom   14 type  2   force =     0.03750112    0.17409246  -38.37733184
     atom   15 type  2   force =    -0.10406697    0.16767236   36.60427566
     atom   16 type  1   force =     1.45000897   -4.59378590    0.09164516
     atom   17 type  2   force =    -0.64023783   -1.46781109  -37.80147924
     atom   18 type  2   force =     0.25108039    0.64284491   38.36780823
     atom   19 type  1   force =    -2.58745456    2.34229376   -0.72814591
     atom   20 type  2   force =    -0.15694643    0.10857907   38.29955852
     atom   21 type  1   force =     0.02649735    0.03964765   -1.29864063
     atom   22 type  2   force =    -0.42415365    1.69302347  -38.26699652
     atom   23 type  2   force =     0.09392635   -0.65329896   38.02828416
     atom   24 type  1   force =     0.19149203   -0.84862809   -5.85207315
     atom   25 type  2   force =    -0.63135390   -0.20185530  -39.08598303
     atom   26 type  2   force =     0.27158754   -0.00900725   37.06310666
     atom   27 type  1   force =    -0.11069926   -0.52926723    2.13120859
     atom   28 type  2   force =    -0.26482047   -0.95438500  -38.11071362
     atom   29 type  2   force =     0.14114201    0.43313612   37.10520752
     atom   30 type  1   force =     0.18338166    0.70212986   -0.06474252
     atom   31 type  2   force =    -1.22710084   -0.01650934  -37.15256532
     atom   32 type  2   force =     0.46132256   -0.01208474   38.36372499
     atom   33 type  1   force =    -0.74214932    0.84911676   -2.21623693
     atom   34 type  2   force =    -0.25002463    1.39144413  -39.15948877
     atom   35 type  2   force =     0.26874795   -0.46696630   37.53774448
     atom   36 type  3   force =     0.43756622   -0.09678160   -8.61978923
     The core correction contribution to forces
     atom    1 type  1   force =     0.00000000    0.00000000    0.00000000
     atom    2 type  2   force =     0.00063921   -0.00069652    0.02034595
     atom    3 type  2   force =     0.00059635    0.00012202   -0.02098069
     atom    4 type  1   force =     0.00000000    0.00000000    0.00000000
     atom    5 type  2   force =     0.00301799    0.00330395   -0.01033783
     atom    6 type  2   force =     0.00018292   -0.00087640   -0.02107974
     atom    7 type  1   force =     0.00000000    0.00000000    0.00000000
     atom    8 type  2   force =     0.00007022    0.00110203    0.01990457
     atom    9 type  2   force =    -0.00037161    0.00105602   -0.02093829
     atom   10 type  1   force =     0.00000000    0.00000000    0.00000000
     atom   11 type  2   force =    -0.00066518   -0.00054434    0.02057558
     atom   12 type  2   force =     0.00111690    0.00125563   -0.02078170
     atom   13 type  1   force =     0.00000000    0.00000000    0.00000000
     atom   14 type  2   force =    -0.00095982   -0.00059381    0.02009745
     atom   15 type  2   force =     0.00065737    0.00027892   -0.02057926
     atom   16 type  1   force =     0.00000000    0.00000000    0.00000000
     atom   17 type  2   force =    -0.00073817    0.00118897    0.01948738
     atom   18 type  2   force =     0.00036682   -0.00026654   -0.02083525
     atom   19 type  1   force =     0.00000000    0.00000000    0.00000000
     atom   20 type  2   force =     0.00003646    0.00077456   -0.02101885
     atom   21 type  1   force =     0.00000000    0.00000000    0.00000000
     atom   22 type  2   force =     0.00018612   -0.00061309    0.02046854
     atom   23 type  2   force =    -0.00049436    0.00105367   -0.02075038
     atom   24 type  1   force =     0.00000000    0.00000000    0.00000000
     atom   25 type  2   force =    -0.00003252   -0.00060496    0.02054971
     atom   26 type  2   force =    -0.00012588    0.00069070   -0.02093888
     atom   27 type  1   force =     0.00000000    0.00000000    0.00000000
     atom   28 type  2   force =     0.00091777    0.00154842    0.02066110
     atom   29 type  2   force =    -0.00046076   -0.00062145   -0.02056327
     atom   30 type  1   force =     0.00000000    0.00000000    0.00000000
     atom   31 type  2   force =     0.00055734    0.00012138    0.02038641
     atom   32 type  2   force =     0.00025264    0.00093220   -0.02101278
     atom   33 type  1   force =     0.00000000    0.00000000    0.00000000
     atom   34 type  2   force =     0.00045937    0.00119704    0.02116485
     atom   35 type  2   force =    -0.00005383    0.00104076   -0.02114435
     atom   36 type  3   force =     0.00000000    0.00000000    0.00000000
     The Hubbard contrib.    to forces
     atom    1 type  1   force =     0.00000000    0.00000000    0.00000000
     atom    2 type  2   force =     0.00000000    0.00000000    0.00000000
     atom    3 type  2   force =     0.00000000    0.00000000    0.00000000
     atom    4 type  1   force =     0.00000000    0.00000000    0.00000000
     atom    5 type  2   force =     0.00000000    0.00000000    0.00000000
     atom    6 type  2   force =     0.00000000    0.00000000    0.00000000
     atom    7 type  1   force =     0.00000000    0.00000000    0.00000000
     atom    8 type  2   force =     0.00000000    0.00000000    0.00000000
     atom    9 type  2   force =     0.00000000    0.00000000    0.00000000
     atom   10 type  1   force =     0.00000000    0.00000000    0.00000000
     atom   11 type  2   force =     0.00000000    0.00000000    0.00000000
     atom   12 type  2   force =     0.00000000    0.00000000    0.00000000
     atom   13 type  1   force =     0.00000000    0.00000000    0.00000000
     atom   14 type  2   force =     0.00000000    0.00000000    0.00000000
     atom   15 type  2   force =     0.00000000    0.00000000    0.00000000
     atom   16 type  1   force =     0.00000000    0.00000000    0.00000000
     atom   17 type  2   force =     0.00000000    0.00000000    0.00000000
     atom   18 type  2   force =     0.00000000    0.00000000    0.00000000
     atom   19 type  1   force =     0.00000000    0.00000000    0.00000000
     atom   20 type  2   force =     0.00000000    0.00000000    0.00000000
     atom   21 type  1   force =     0.00000000    0.00000000    0.00000000
     atom   22 type  2   force =     0.00000000    0.00000000    0.00000000
     atom   23 type  2   force =     0.00000000    0.00000000    0.00000000
     atom   24 type  1   force =     0.00000000    0.00000000    0.00000000
     atom   25 type  2   force =     0.00000000    0.00000000    0.00000000
     atom   26 type  2   force =     0.00000000    0.00000000    0.00000000
     atom   27 type  1   force =     0.00000000    0.00000000    0.00000000
     atom   28 type  2   force =     0.00000000    0.00000000    0.00000000
     atom   29 type  2   force =     0.00000000    0.00000000    0.00000000
     atom   30 type  1   force =     0.00000000    0.00000000    0.00000000
     atom   31 type  2   force =     0.00000000    0.00000000    0.00000000
     atom   32 type  2   force =     0.00000000    0.00000000    0.00000000
     atom   33 type  1   force =     0.00000000    0.00000000    0.00000000
     atom   34 type  2   force =     0.00000000    0.00000000    0.00000000
     atom   35 type  2   force =     0.00000000    0.00000000    0.00000000
     atom   36 type  3   force =     0.00000000    0.00000000    0.00000000
     The SCF correction term to forces
     atom    1 type  1   force =     0.00002954    0.00018369    0.00009427
     atom    2 type  2   force =    -0.00011612    0.00017628   -0.00029500
     atom    3 type  2   force =    -0.00003200    0.00009909    0.00023531
     atom    4 type  1   force =     0.00016097   -0.00017289   -0.00014245
     atom    5 type  2   force =    -0.00001639   -0.00004995    0.00004393
     atom    6 type  2   force =     0.00004821    0.00001596    0.00025312
     atom    7 type  1   force =     0.00008669   -0.00037508   -0.00052561
     atom    8 type  2   force =    -0.00003373   -0.00020725   -0.00024872
     atom    9 type  2   force =    -0.00003058   -0.00009825    0.00021956
     atom   10 type  1   force =    -0.00010916    0.00036922   -0.00040596
     atom   11 type  2   force =     0.00000860    0.00005170   -0.00024303
     atom   12 type  2   force =     0.00002553   -0.00002337    0.00015544
     atom   13 type  1   force =     0.00019535    0.00039642   -0.00026869
     atom   14 type  2   force =     0.00009265    0.00017470   -0.00026946
     atom   15 type  2   force =     0.00003054    0.00009832    0.00023116
     atom   16 type  1   force =    -0.00006247   -0.00020415    0.00009269
     atom   17 type  2   force =     0.00006754    0.00002660   -0.00022087
     atom   18 type  2   force =    -0.00005744    0.00000313    0.00025701
     atom   19 type  1   force =     0.00003647   -0.00027438   -0.00035642
     atom   20 type  2   force =     0.00005648   -0.00007534    0.00017283
     atom   21 type  1   force =     0.00004539    0.00035697   -0.00025583
     atom   22 type  2   force =    -0.00002878    0.00004618   -0.00023391
     atom   23 type  2   force =     0.00000249    0.00001370    0.00020013
     atom   24 type  1   force =    -0.00025646    0.00036254   -0.00038666
     atom   25 type  2   force =     0.00002539    0.00008953   -0.00023277
     atom   26 type  2   force =    -0.00001070    0.00010650    0.00018503
     atom   27 type  1   force =    -0.00002230   -0.00029297   -0.00020742
     atom   28 type  2   force =    -0.00003843    0.00003372   -0.00025738
     atom   29 type  2   force =    -0.00000623    0.00003574    0.00026499
     atom   30 type  1   force =    -0.00009485   -0.00037289   -0.00035674
     atom   31 type  2   force =    -0.00000904   -0.00018233   -0.00016863
     atom   32 type  2   force =    -0.00001494   -0.00015545    0.00015462
     atom   33 type  1   force =     0.00004723    0.00012687   -0.00029725
     atom   34 type  2   force =     0.00002806    0.00001458   -0.00024776
     atom   35 type  2   force =    -0.00003307    0.00000957    0.00018596
     atom   36 type  3   force =     0.00000819    0.00000565   -0.00007770

     Total force =     0.212335     Total SCF correction =     0.001964
     Energy error            =      8.7E-01 Ry
     Gradient error          =      9.7E-02 Ry/Bohr

     number of scf cycles    =   2
     number of bfgs steps    =   1

     energy             old  =   -2204.6646875316 Ry
     energy             new  =   -2205.5328022461 Ry

     CASE: energy            _new < energy            _old

     new trust radius        =       0.1190562983 bohr
     new conv_thr            =       0.0000000970 Ry


ATOMIC_POSITIONS (angstrom)
Mo            6.5828645055        1.7522208427        2.8110504202
S             8.1685079355        0.8195157980        4.4360442461
S             8.1873570233        0.8162647118        1.2749529372
Mo            8.1489316915        4.5161803758        2.6877703489
S             6.5252448522        3.7288921166        4.1165241782
S             6.5558022359        3.5171022045        1.1154549348
Mo            6.4859069536        7.2183203044        2.6694069570
S             8.0832976701        6.3465589971        4.2555634401
S             8.0893511367        6.3074608134        1.0886533052
Mo            8.1540468735        9.9083825224        2.8287869326
S             6.4972881560        8.9413998979        4.3800470954
S             6.6174228929        9.0495912438        1.1424795937
Mo            3.4250835962        1.7497109233        2.7706026401
S             4.9796307715        0.8179764795        4.3589781420
S             5.0494780915        0.8471000370        1.2207302699
Mo            4.9671306931        4.5212448740        2.6105246968
S             3.4344880626        3.6733806937        4.2810240079
S             3.4320833923        3.5442556401        1.0680313353
Mo            3.4604761676        7.2229286992        2.6283343855
S             4.9844728823        6.3241925283        1.0371632418
Mo            5.0091626133        9.9052039398        2.7437945447
S             3.4702096633        8.9418264452        4.3249943201
S             3.4078022835        9.0661790622        1.1010679292
Mo            0.2904778648        1.7453549300        2.8359579696
S             1.8601686520        0.8038654643        4.4023366400
S             1.8542028485        0.8539881798        1.2071338567
Mo            1.8543948449        4.4914301878        2.6671874998
S             0.2752661587        3.6535816520        4.3332825531
S             0.2333627826        3.5267499768        1.1688586631
Mo            0.2679776459        7.2209727493        2.6990615364
S             1.9033087092        6.3128442460        4.2330813830
S             1.8556110673        6.3120520135        1.0490854611
Mo            1.8520861718        9.9373643079        2.7677721402
S             0.2977672052        9.0638525884        4.4065699625
S             0.2719479601        9.0476818230        1.1600464484
H             6.2442416239        3.6182858075        5.4083935599



     Writing config-only to output data dir ./MoS2-V-O.save/
     NEW-OLD atomic charge density approx. for the potential

     negative rho (up, down):  1.455E-04 0.000E+00

     total cpu time spent up to now is      206.1 secs

     Self-consistent Calculation

     iteration #  1     ecut=    80.00 Ry     beta= 0.70
     Davidson diagonalization with overlap
     ethr =  1.00E-06,  avg # of iterations = 15.0

     negative rho (up, down):  9.276E-05 0.000E+00

     total cpu time spent up to now is      220.1 secs

     total energy              =   -2205.56273709 Ry
     estimated scf accuracy    <       0.00837540 Ry

     iteration #  2     ecut=    80.00 Ry     beta= 0.70
     Davidson diagonalization with overlap
     ethr =  2.73E-06,  avg # of iterations =  2.0

     negative rho (up, down):  7.768E-05 0.000E+00

     total cpu time spent up to now is      234.0 secs

     total energy              =   -2205.56297922 Ry
     estimated scf accuracy    <       0.00131553 Ry

     iteration #  3     ecut=    80.00 Ry     beta= 0.70
     Davidson diagonalization with overlap
     ethr =  4.29E-07,  avg # of iterations =  4.0

     negative rho (up, down):  7.151E-05 0.000E+00

     total cpu time spent up to now is      250.9 secs

     total energy              =   -2205.56306396 Ry
     estimated scf accuracy    <       0.00027512 Ry

     iteration #  4     ecut=    80.00 Ry     beta= 0.70
     Davidson diagonalization with overlap
     ethr =  8.96E-08,  avg # of iterations =  6.0

     negative rho (up, down):  7.018E-05 0.000E+00

     total cpu time spent up to now is      268.8 secs

     total energy              =   -2205.56310907 Ry
     estimated scf accuracy    <       0.00004636 Ry

     iteration #  5     ecut=    80.00 Ry     beta= 0.70
     Davidson diagonalization with overlap
     ethr =  1.51E-08,  avg # of iterations =  5.0

     negative rho (up, down):  6.825E-05 0.000E+00

     total cpu time spent up to now is      285.2 secs

     total energy              =   -2205.56311756 Ry
     estimated scf accuracy    <       0.00001180 Ry

     iteration #  6     ecut=    80.00 Ry     beta= 0.70
     Davidson diagonalization with overlap
     ethr =  3.84E-09,  avg # of iterations =  3.0

     negative rho (up, down):  6.705E-05 0.000E+00

     total cpu time spent up to now is      299.6 secs

     total energy              =   -2205.56311903 Ry
     estimated scf accuracy    <       0.00000246 Ry

     iteration #  7     ecut=    80.00 Ry     beta= 0.70
     Davidson diagonalization with overlap
     ethr =  8.00E-10,  avg # of iterations =  5.0

     negative rho (up, down):  6.852E-05 0.000E+00

     total cpu time spent up to now is      310.0 secs

     total energy              =   -2205.56311937 Ry
     estimated scf accuracy    <       0.00000122 Ry

     iteration #  8     ecut=    80.00 Ry     beta= 0.70
     Davidson diagonalization with overlap
     ethr =  3.99E-10,  avg # of iterations =  2.0

     negative rho (up, down):  8.135E-05 0.000E+00

     total cpu time spent up to now is      322.7 secs

     total energy              =   -2205.56311933 Ry
     estimated scf accuracy    <       0.00000065 Ry

     iteration #  9     ecut=    80.00 Ry     beta= 0.70
     Davidson diagonalization with overlap
     ethr =  2.13E-10,  avg # of iterations =  3.0

     negative rho (up, down):  9.737E-05 0.000E+00

     total cpu time spent up to now is      336.0 secs

     total energy              =   -2205.56311934 Ry
     estimated scf accuracy    <       0.00000010 Ry

     iteration # 10     ecut=    80.00 Ry     beta= 0.70
     Davidson diagonalization with overlap
     ethr =  3.39E-11,  avg # of iterations =  6.0

     negative rho (up, down):  1.370E-04 0.000E+00

     total cpu time spent up to now is      338.2 secs

     End of self-consistent calculation

          k = 0.0000 0.0000 0.0000 (105382 PWs)   bands (ev):

   -62.9002 -62.8106 -62.8015 -62.7887 -62.7794 -62.7479 -62.7454 -62.7171
   -62.7062 -62.5752 -62.5095 -62.3982 -37.2258 -37.1605 -37.0982 -37.0761
   -37.0630 -37.0481 -37.0278 -37.0202 -37.0068 -36.9952 -36.9881 -36.9713
   -36.9658 -36.9517 -36.9489 -36.9386 -36.9347 -36.9260 -36.9160 -36.8983
   -36.8796 -36.8639 -36.8598 -36.8046 -36.7924 -36.7869 -36.7827 -36.7567
   -36.7415 -36.7246 -36.7113 -36.6725 -36.6437 -36.5851 -36.4964 -36.4139
   -16.7771 -15.7647 -15.0458 -15.0205 -14.8451 -14.8080 -14.6535 -14.4186
   -14.3712 -14.3525 -14.3151 -14.2659 -14.2399 -14.2076 -14.1372 -14.0555
   -14.0361 -14.0216 -13.9484 -13.8133 -13.7456 -13.7405 -13.7323  -9.6082
    -7.6508  -7.4688  -7.3819  -7.2902  -7.2150  -7.1353  -7.1119  -7.0757
    -6.8261  -6.7761  -6.6842  -6.6515  -6.5657  -6.4755  -6.4079  -6.3675
    -6.3166  -6.2430  -6.1555  -5.9740  -5.9134  -5.8301  -5.8141  -5.7074
    -5.6992  -5.6792  -5.6158  -5.6102  -5.5863  -5.5010  -5.4734  -5.4089
    -5.3471  -5.3184  -5.0955  -5.0726  -5.0116  -4.9541  -4.9350  -4.8998
    -4.8470  -4.7530  -4.6578  -4.5320  -4.4515  -4.3449  -4.2113  -4.1509
    -4.1064  -4.0158  -3.9517  -3.8078  -3.7739  -3.7437  -3.6645  -3.6177
    -3.5688  -3.5386  -3.5105  -3.4744  -3.4144  -3.3979  -3.3601  -3.3195
    -3.2900  -3.1207  -3.1124  -2.8482  -2.8036  -2.7544  -2.6920  -2.6495
    -2.6202  -2.6070  -2.5883  -2.5145  -2.4776  -2.1876  -1.9505  -1.9045
    -1.7978  -0.7154  -0.5520  -0.2207  -0.1257  -0.0874   0.0097   0.1099
     0.1529   0.1886   0.2900   0.3235   0.3505   0.3897   0.4745   0.5499
     0.5666   0.6399   0.6441   0.6924   0.7107   0.7329   0.8032   0.8183
     0.8693   0.9164   0.9548   0.9811   1.0509   1.0866   1.1566   1.3459
     1.4661

     the Fermi energy is    -0.7243 ev

!    total energy              =   -2205.56311925 Ry
     estimated scf accuracy    <       0.00000003 Ry
     smearing contrib. (-TS)   =      -0.00675274 Ry
     internal energy E=F+TS    =   -2205.55636652 Ry

     The total energy is F=E-TS. E is the sum of the following terms:
     one-electron contribution =  -18078.68261182 Ry
     hartree contribution      =    9026.87789059 Ry
     xc contribution           =    -385.53938860 Ry
     ewald contribution        =    7231.78774332 Ry

     convergence has been achieved in  10 iterations

     negative rho (up, down):  1.370E-04 0.000E+00

     Forces acting on atoms (cartesian axes, Ry/au):

     atom    1 type  1   force =     0.00355596   -0.03053369   -0.01013700
     atom    2 type  2   force =    -0.00883873    0.00933336   -0.00177638
     atom    3 type  2   force =    -0.00651611    0.00354620   -0.01418515
     atom    4 type  1   force =     0.01746301    0.00563106    0.00176333
     atom    5 type  2   force =    -0.02340579   -0.01586246    0.01609557
     atom    6 type  2   force =     0.01008446    0.00658163   -0.00295726
     atom    7 type  1   force =    -0.00220247   -0.00136991    0.00163398
     atom    8 type  2   force =     0.00363276    0.00089216    0.01144429
     atom    9 type  2   force =     0.01398078    0.01088271   -0.00141616
     atom   10 type  1   force =    -0.00207975    0.00739197   -0.00758670
     atom   11 type  2   force =     0.00202330   -0.00118171   -0.00612056
     atom   12 type  2   force =    -0.00278854    0.00054340    0.00021988
     atom   13 type  1   force =     0.00595032    0.00296822   -0.00249236
     atom   14 type  2   force =     0.00576099    0.00000303    0.00742294
     atom   15 type  2   force =    -0.01240509   -0.00222841   -0.01254710
     atom   16 type  1   force =    -0.01742117    0.00499791   -0.01975911
     atom   17 type  2   force =     0.00951346    0.00442028   -0.00162109
     atom   18 type  2   force =    -0.01114133   -0.00536961    0.00713867
     atom   19 type  1   force =     0.00914631    0.00588294    0.00066789
     atom   20 type  2   force =     0.00049161    0.00014346   -0.00781296
     atom   21 type  1   force =    -0.00481513    0.00487011    0.00323061
     atom   22 type  2   force =     0.00009233   -0.00174586   -0.00066395
     atom   23 type  2   force =    -0.00006198    0.00185413    0.00287962
     atom   24 type  1   force =    -0.00702913    0.00045597   -0.00757576
     atom   25 type  2   force =     0.01083006    0.01367193   -0.00062542
     atom   26 type  2   force =    -0.00689265   -0.00148702   -0.00505039
     atom   27 type  1   force =    -0.00339046   -0.00609693    0.01130177
     atom   28 type  2   force =     0.00427705   -0.00171545   -0.00747668
     atom   29 type  2   force =     0.01212942   -0.00189876   -0.01553424
     atom   30 type  1   force =    -0.00164048    0.00442713    0.00331199
     atom   31 type  2   force =     0.00148373    0.00119321    0.01012930
     atom   32 type  2   force =    -0.00847619    0.00280437    0.00665431
     atom   33 type  1   force =     0.00570037   -0.00127258    0.00074733
     atom   34 type  2   force =     0.00058668   -0.03062996   -0.01539406
     atom   35 type  2   force =    -0.00554771    0.00671532    0.00873099
     atom   36 type  3   force =     0.00795012    0.00218188    0.04735987
     The non-local contrib.  to forces
     atom    1 type  1   force =    -0.00172025    0.01559160   -0.01078124
     atom    2 type  2   force =    -0.01180966    0.00310227   -0.26360242
     atom    3 type  2   force =    -0.00939556   -0.00938183    0.26384688
     atom    4 type  1   force =     0.00708481    0.01739473   -0.00187145
     atom    5 type  2   force =    -0.01633666   -0.04509138    0.26228122
     atom    6 type  2   force =     0.00344874    0.00598987    0.27756463
     atom    7 type  1   force =    -0.03285718   -0.01404710   -0.01610714
     atom    8 type  2   force =     0.00340408   -0.00717355   -0.25136211
     atom    9 type  2   force =     0.01118879   -0.01387409    0.26909172
     atom   10 type  1   force =     0.00545290   -0.00595328   -0.00207759
     atom   11 type  2   force =     0.01151312    0.00432470   -0.26084199
     atom   12 type  2   force =    -0.01385267   -0.01498167    0.26084696
     atom   13 type  1   force =    -0.00181297    0.02235349   -0.00975098
     atom   14 type  2   force =     0.01382703   -0.00504192   -0.25677304
     atom   15 type  2   force =    -0.01057983   -0.00656265    0.25877387
     atom   16 type  1   force =    -0.00828747    0.05837607    0.00153665
     atom   17 type  2   force =     0.00877523   -0.02008659   -0.24205714
     atom   18 type  2   force =    -0.00681865   -0.00533947    0.26524792
     atom   19 type  1   force =     0.02174060   -0.01520485   -0.00851978
     atom   20 type  2   force =    -0.00032243   -0.01663360    0.25772801
     atom   21 type  1   force =    -0.00198885    0.01315713    0.00275530
     atom   22 type  2   force =    -0.00518951    0.00598772   -0.25856424
     atom   23 type  2   force =     0.00711835   -0.01123718    0.26180169
     atom   24 type  1   force =     0.00754868    0.01173224   -0.01334570
     atom   25 type  2   force =     0.00503406    0.00469764   -0.26276787
     atom   26 type  2   force =    -0.00020799   -0.01335525    0.26451771
     atom   27 type  1   force =     0.00276532    0.01737103    0.00478389
     atom   28 type  2   force =    -0.00749865   -0.02043088   -0.26955571
     atom   29 type  2   force =     0.01061119    0.00034008    0.25479782
     atom   30 type  1   force =     0.00489861    0.02319048    0.00925715
     atom   31 type  2   force =    -0.00760183    0.00168829   -0.25667634
     atom   32 type  2   force =    -0.00592859   -0.01661702    0.27374850
     atom   33 type  1   force =    -0.00187605    0.00350802    0.00555813
[...]
     atom   27 type  1   force =    -0.00197797    0.01412641    0.00490339
     atom   28 type  2   force =    -0.00603702   -0.01043953   -0.26073585
     atom   29 type  2   force =    -0.00130598   -0.00868469    0.26554610
     atom   30 type  1   force =     0.00414491    0.02444044    0.00717790
     atom   31 type  2   force =    -0.01027987   -0.00396907   -0.26369733
     atom   32 type  2   force =     0.00604833   -0.01221737    0.26964531
     atom   33 type  1   force =     0.00080842    0.00246140    0.00357620
     atom   34 type  2   force =    -0.00266772   -0.00829452   -0.27064431
     atom   35 type  2   force =     0.00099566   -0.01394638    0.26582343
     atom   36 type  3   force =    -0.01235925    0.00183177   -0.05938510
     The ionic contribution  to forces
     atom    1 type  1   force =    -0.40166443    0.58992424    2.70038220
     atom    2 type  2   force =    -0.01958955   -0.09390202   38.94561783
     atom    3 type  2   force =     0.04693188   -0.11520400  -37.53916123
     atom    4 type  1   force =    -0.30830134    0.76722460    0.00853370
     atom    5 type  2   force =    -1.35232424    1.22159559   36.12277294
     atom    6 type  2   force =     0.11282998   -0.35518275  -37.90936983
     atom    7 type  1   force =    -2.43473445   -1.74779366    3.90412691
     atom    8 type  2   force =    -1.11480579    0.33938075   38.22622725
     atom    9 type  2   force =     0.12851158    0.20392148  -37.69490100
     atom   10 type  1   force =    -0.59229216   -0.78856411    3.42066334
     atom   11 type  2   force =    -0.39349296   -1.43064419   38.61938238
     atom   12 type  2   force =     0.29393075    0.16657256  -37.55148885
     atom   13 type  1   force =     0.17899145    0.98324974    1.97159978
     atom   14 type  2   force =    -0.12925795    0.00013180   38.67030790
     atom   15 type  2   force =     0.08255346   -0.00655720  -37.58765421
     atom   16 type  1   force =    -0.86015692    3.56078326    1.07562387
     atom   17 type  2   force =     0.83750778    1.31530685   37.93117785
     atom   18 type  2   force =    -0.10183769   -0.18113021  -37.85949270
     atom   19 type  1   force =     2.51975425   -2.95902082    1.50809275
     atom   20 type  2   force =    -0.05041970   -0.06228374  -38.54904380
     atom   21 type  1   force =     0.37116267   -0.39608475    1.38096242
     atom   22 type  2   force =     0.39809362   -1.49413087   38.85807157
     atom   23 type  2   force =    -0.13570998    0.33389001  -38.31052335
     atom   24 type  1   force =     0.10404690    0.20683032    1.95269951
     atom   25 type  2   force =     0.21905137    0.09644005   38.78719292
     atom   26 type  2   force =    -0.06858392   -0.01772741  -37.58959495
     atom   27 type  1   force =     1.03385772    0.74753078    0.85889323
     atom   28 type  2   force =     0.27831532    0.43034893   38.30801292
     atom   29 type  2   force =     0.06085455   -0.14609399  -37.93463786
     atom   30 type  1   force =    -0.15858442   -0.55005016    2.15516066
     atom   31 type  2   force =     1.44384910    0.06427955   38.07805036
     atom   32 type  2   force =    -0.19694459   -0.06397170  -37.79652949
     atom   33 type  1   force =     0.12572493   -0.35459577    2.73998529
     atom   34 type  2   force =     0.05031385   -0.48386526   38.89129238
     atom   35 type  2   force =    -0.10077582    0.10712885  -37.42009298
     atom   36 type  3   force =     0.13319476    0.11226327    8.62766027
     The local contribution  to forces
     atom    1 type  1   force =     0.40560852   -0.59663284   -2.68646842
     atom    2 type  2   force =     0.02586927    0.09609655  -38.70828482
     atom    3 type  2   force =    -0.04413916    0.12534137   37.28980514
     atom    4 type  1   force =     0.30072966   -0.78452559   -0.00418395
     atom    5 type  2   force =     1.26946184   -1.19684690  -36.36494149
     atom    6 type  2   force =    -0.11500809    0.36036814   37.65490166
     atom    7 type  1   force =     2.47282285    1.75469228   -3.87877221
     atom    8 type  2   force =     1.11055147   -0.33362535  -37.98807215
     atom    9 type  2   force =    -0.12552125   -0.18071349   37.44653125
     atom   10 type  1   force =     0.58768449    0.79411556   -3.42082756
     atom   11 type  2   force =     0.38947553    1.43371251  -38.37991904
     atom   12 type  2   force =    -0.28298544   -0.15310693   37.30616648
     atom   13 type  1   force =    -0.17729003   -1.00615173   -1.96429935
     atom   14 type  2   force =     0.12273581    0.00338476  -38.43063848
     atom   15 type  2   force =    -0.08328294    0.01490377   37.34502252
     atom   16 type  1   force =     0.86199079   -3.61455411   -1.05887201
     atom   17 type  2   force =    -0.83326325   -1.30038889  -37.70825609
     atom   18 type  2   force =     0.09967386    0.18220281   37.61363955
     atom   19 type  1   force =    -2.53906993    2.96775170   -1.50168462
     atom   20 type  2   force =     0.05060243    0.07684732   38.30882452
     atom   21 type  1   force =    -0.36485757    0.38297273   -1.38058175
     atom   22 type  2   force =    -0.39192989    1.48799322  -38.62132856
     atom   23 type  2   force =     0.13077367   -0.32363062   38.07227553
     atom   24 type  1   force =    -0.10741039   -0.22218861   -1.95101060
     atom   25 type  2   force =    -0.22056129   -0.08979911  -38.54277087
     atom   26 type  2   force =     0.06633186    0.02485254   37.34230382
     atom   27 type  1   force =    -1.03158465   -0.76143163   -0.86438407
     atom   28 type  2   force =    -0.27201636   -0.42092907  -38.06705339
     atom   29 type  2   force =    -0.05942097    0.15429754   37.68927958
     atom   30 type  1   force =     0.15456260    0.52513701   -2.16251667
     atom   31 type  2   force =    -1.43436872   -0.06085008  -37.83417137
     atom   32 type  2   force =     0.19164953    0.07618769   37.54661516
     atom   33 type  1   force =    -0.12668302    0.35188244   -2.74318951
     atom   34 type  2   force =    -0.04770154    0.49181385  -38.64081272
     atom   35 type  2   force =     0.10018871   -0.09418672   37.17504189
     atom   36 type  3   force =    -0.12015965   -0.11343527   -8.56787216
     The core correction contribution to forces
     atom    1 type  1   force =     0.00000000    0.00000000    0.00000000
     atom    2 type  2   force =     0.00056883   -0.00015040    0.02023417
     atom    3 type  2   force =     0.00024981    0.00029212   -0.02106395
     atom    4 type  1   force =     0.00000000    0.00000000    0.00000000
     atom    5 type  2   force =    -0.00555836    0.00141012   -0.00976627
     atom    6 type  2   force =     0.00009782   -0.00020849   -0.02126960
     atom    7 type  1   force =     0.00000000    0.00000000    0.00000000
     atom    8 type  2   force =    -0.00014614    0.00082744    0.02015933
     atom    9 type  2   force =     0.00023603    0.00136278   -0.02084172
     atom   10 type  1   force =     0.00000000    0.00000000    0.00000000
     atom   11 type  2   force =    -0.00010145    0.00000299    0.02044869
     atom   12 type  2   force =     0.00082522    0.00078060   -0.02075979
     atom   13 type  1   force =     0.00000000    0.00000000    0.00000000
     atom   14 type  2   force =    -0.00051359   -0.00031628    0.02043217
     atom   15 type  2   force =    -0.00002735    0.00027130   -0.02075381
     atom   16 type  1   force =     0.00000000    0.00000000    0.00000000
     atom   17 type  2   force =     0.00024605    0.00079614    0.01967048
     atom   18 type  2   force =    -0.00019226   -0.00025118   -0.02074528
     atom   19 type  1   force =     0.00000000    0.00000000    0.00000000
     atom   20 type  2   force =    -0.00012396    0.00072838   -0.02113835
     atom   21 type  1   force =     0.00000000    0.00000000    0.00000000
     atom   22 type  2   force =     0.00010722   -0.00059903    0.02050655
     atom   23 type  2   force =    -0.00046675    0.00094171   -0.02068810
     atom   24 type  1   force =     0.00000000    0.00000000    0.00000000
     atom   25 type  2   force =     0.00003424    0.00028964    0.02066236
     atom   26 type  2   force =    -0.00011005    0.00028942   -0.02097272
     atom   27 type  1   force =     0.00000000    0.00000000    0.00000000
     atom   28 type  2   force =     0.00055145    0.00064858    0.02050658
     atom   29 type  2   force =     0.00016728    0.00016849   -0.02084715
     atom   30 type  1   force =     0.00000000    0.00000000    0.00000000
     atom   31 type  2   force =     0.00074990    0.00044511    0.02061118
     atom   32 type  2   force =    -0.00042669    0.00063659   -0.02090016
     atom   33 type  1   force =     0.00000000    0.00000000    0.00000000
     atom   34 type  2   force =     0.00025359    0.00030884    0.02105583
     atom   35 type  2   force =    -0.00002335    0.00083223   -0.02091254
     atom   36 type  3   force =     0.00000000    0.00000000    0.00000000
     The Hubbard contrib.    to forces
     atom    1 type  1   force =     0.00000000    0.00000000    0.00000000
     atom    2 type  2   force =     0.00000000    0.00000000    0.00000000
     atom    3 type  2   force =     0.00000000    0.00000000    0.00000000
     atom    4 type  1   force =     0.00000000    0.00000000    0.00000000
     atom    5 type  2   force =     0.00000000    0.00000000    0.00000000
     atom    6 type  2   force =     0.00000000    0.00000000    0.00000000
     atom    7 type  1   force =     0.00000000    0.00000000    0.00000000
     atom    8 type  2   force =     0.00000000    0.00000000    0.00000000
     atom    9 type  2   force =     0.00000000    0.00000000    0.00000000
     atom   10 type  1   force =     0.00000000    0.00000000    0.00000000
     atom   11 type  2   force =     0.00000000    0.00000000    0.00000000
     atom   12 type  2   force =     0.00000000    0.00000000    0.00000000
     atom   13 type  1   force =     0.00000000    0.00000000    0.00000000
     atom   14 type  2   force =     0.00000000    0.00000000    0.00000000
     atom   15 type  2   force =     0.00000000    0.00000000    0.00000000
     atom   16 type  1   force =     0.00000000    0.00000000    0.00000000
     atom   17 type  2   force =     0.00000000    0.00000000    0.00000000
     atom   18 type  2   force =     0.00000000    0.00000000    0.00000000
     atom   19 type  1   force =     0.00000000    0.00000000    0.00000000
     atom   20 type  2   force =     0.00000000    0.00000000    0.00000000
     atom   21 type  1   force =     0.00000000    0.00000000    0.00000000
     atom   22 type  2   force =     0.00000000    0.00000000    0.00000000
     atom   23 type  2   force =     0.00000000    0.00000000    0.00000000
     atom   24 type  1   force =     0.00000000    0.00000000    0.00000000
     atom   25 type  2   force =     0.00000000    0.00000000    0.00000000
     atom   26 type  2   force =     0.00000000    0.00000000    0.00000000
     atom   27 type  1   force =     0.00000000    0.00000000    0.00000000
     atom   28 type  2   force =     0.00000000    0.00000000    0.00000000
     atom   29 type  2   force =     0.00000000    0.00000000    0.00000000
     atom   30 type  1   force =     0.00000000    0.00000000    0.00000000
     atom   31 type  2   force =     0.00000000    0.00000000    0.00000000
     atom   32 type  2   force =     0.00000000    0.00000000    0.00000000
     atom   33 type  1   force =     0.00000000    0.00000000    0.00000000
     atom   34 type  2   force =     0.00000000    0.00000000    0.00000000
     atom   35 type  2   force =     0.00000000    0.00000000    0.00000000
     atom   36 type  3   force =     0.00000000    0.00000000    0.00000000
     The SCF correction term to forces
     atom    1 type  1   force =     0.00006822   -0.00010684   -0.00003710
     atom    2 type  2   force =    -0.00000030    0.00001550   -0.00002374
     atom    3 type  2   force =    -0.00001261   -0.00001288    0.00001208
     atom    4 type  1   force =     0.00005060   -0.00005791    0.00005051
     atom    5 type  2   force =     0.00003886   -0.00002875    0.00001217
     atom    6 type  2   force =     0.00001113   -0.00002035   -0.00002205
     atom    7 type  1   force =     0.00001336   -0.00001979    0.00001682
     atom    8 type  2   force =    -0.00000895   -0.00002356   -0.00000549
     atom    9 type  2   force =    -0.00001193   -0.00000617    0.00000139
     atom   10 type  1   force =     0.00004850    0.00009719   -0.00001679
     atom   11 type  2   force =     0.00000991    0.00002705    0.00001255
     atom   12 type  2   force =     0.00000095    0.00005061   -0.00002159
     atom   13 type  1   force =     0.00006238   -0.00005036   -0.00006520
     atom   14 type  2   force =     0.00000743   -0.00000824   -0.00003045
     atom   15 type  2   force =     0.00000278   -0.00000893    0.00000299
     atom   16 type  1   force =    -0.00006790   -0.00001334   -0.00003473
     atom   17 type  2   force =    -0.00000613   -0.00000135   -0.00002435
     atom   18 type  2   force =     0.00000805   -0.00001152   -0.00001217
     atom   19 type  1   force =    -0.00002011    0.00003427   -0.00000999
     atom   20 type  2   force =    -0.00001104   -0.00001113   -0.00000120
     atom   21 type  1   force =    -0.00001861    0.00009459   -0.00005689
     atom   22 type  2   force =    -0.00001860    0.00002041   -0.00000761
     atom   23 type  2   force =    -0.00000930    0.00002802   -0.00000234
     atom   24 type  1   force =    -0.00005551   -0.00002934   -0.00000105
     atom   25 type  2   force =    -0.00001807   -0.00000707   -0.00000286
     atom   26 type  2   force =    -0.00000601   -0.00002052   -0.00001523
     atom   27 type  1   force =     0.00003803   -0.00005676    0.00005260
     atom   28 type  2   force =    -0.00003273   -0.00002413    0.00000006
     atom   29 type  2   force =    -0.00001220   -0.00002870   -0.00000111
     atom   30 type  1   force =     0.00004802    0.00006925    0.00000373
     atom   31 type  2   force =     0.00000911    0.00000419   -0.00000941
     atom   32 type  2   force =     0.00002384    0.00001917    0.00000691
     atom   33 type  1   force =     0.00000898   -0.00000653   -0.00006245
     atom   34 type  2   force =     0.00000274    0.00002954   -0.00002296
     atom   35 type  2   force =    -0.00000093    0.00004210    0.00001040
     atom   36 type  3   force =     0.00000310   -0.00000295   -0.00000364

     Total force =     0.005479     Total SCF correction =     0.000338
     Energy error            =      7.1E-05 Ry
     Gradient error          =      1.4E-03 Ry/Bohr

     bfgs converged in  29 scf cycles and  28 bfgs steps
     (criteria: energy <  1.0E-04 Ry, force <  1.0E-02 Ry/Bohr)

     End of BFGS Geometry Optimization

     Final energy             =   -2205.5946351838 Ry

     File ./MoS2-V-O.bfgs deleted, as requested
Begin final coordinates

ATOMIC_POSITIONS (angstrom)
Mo            6.5588335596        1.7299675708        2.7642788842
S             8.1340716684        0.8378313171        4.3697872883
S             8.1292614098        0.8246311280        1.1697310679
Mo            8.1472771025        4.4939565459        2.7061856689
S             6.5434781353        3.6513259112        4.2486683330
S             6.5700499726        3.5464554207        1.1146070607
Mo            6.4672262580        7.1669479251        2.6879350581
S             8.0648367356        6.3085657628        4.3079163769
S             8.1119260593        6.3267077272        1.1199221390
Mo            8.1198368174        9.9298811172        2.7735789251
S             6.4908847069        8.9477244276        4.3335229914
S             6.5661110621        9.0194100270        1.1403054737
Mo            3.4205179535        1.7631348600        2.7421524196
S             4.9703533469        0.8121404313        4.3433939233
S             4.9869915398        0.8359011777        1.1586793011
Mo            5.0103828469        4.5394227420        2.6411744704
S             3.4589676005        3.6761809236        4.2784326426
S             3.4174169900        3.5762018268        1.1061208563
Mo            3.4420474141        7.2416037556        2.6432823508
S             4.9588665344        6.3148947869        1.0407748775
Mo            4.9662590854        9.9134040750        2.7300823315
S             3.4418903395        8.9684434785        4.3306012698
S             3.3744083932        9.0637783399        1.1035415351
Mo            0.2533399771        1.7478644312        2.7549754708
S             1.8489277745        0.8621414842        4.3530232814
S             1.8360575569        0.8517494167        1.1618334127
Mo            1.8430478816        4.4982515709        2.7109807765
S             0.2691329288        3.6084745901        4.3116470185
S             0.2623762328        3.5623370777        1.1286876458
Mo            0.2449464789        7.2195094710        2.7353433182
S             1.8958851435        6.3230791680        4.2896959411
S             1.8173349108        6.3257767128        1.1083622381
Mo            1.8342256636        9.9486900244        2.7570770172
S             0.2554172030        9.0266542342        4.3547536251
S             0.2419485702        9.0509026413        1.1718148759
H             6.8223178251        3.6099709765        5.5978777100
End final coordinates



     Writing all to output data dir ./MoS2-V-O.save/
 
     init_run     :      3.09s CPU      3.28s WALL (       1 calls)
     electrons    :   2518.20s CPU   2757.02s WALL (      29 calls)
     update_pot   :     39.02s CPU     40.77s WALL (      28 calls)
     forces       :     39.09s CPU     41.84s WALL (      29 calls)

     Called by init_run:
     wfcinit      :      0.40s CPU      0.43s WALL (       1 calls)
     potinit      :      2.01s CPU      2.11s WALL (       1 calls)
     hinit0       :      0.17s CPU      0.18s WALL (       1 calls)

     Called by electrons:
     c_bands      :    300.09s CPU    303.49s WALL (     244 calls)
     sum_band     :     78.09s CPU     85.30s WALL (     244 calls)
     v_of_rho     :     98.91s CPU    114.09s WALL (     252 calls)
     newd         :     40.24s CPU     45.20s WALL (     252 calls)
     mix_rho      :   2014.18s CPU   2220.78s WALL (     244 calls)

     Called by c_bands:
     init_us_2    :      5.36s CPU      5.57s WALL (     489 calls)
     init_us_2:cp :      5.35s CPU      5.57s WALL (     489 calls)
     regterg      :    282.34s CPU    285.51s WALL (     244 calls)

     Called by *egterg:
     rdiaghg      :     22.41s CPU     22.59s WALL (    1303 calls)
     h_psi        :    164.59s CPU    165.96s WALL (    1353 calls)
     s_psi        :     20.37s CPU     20.48s WALL (    1353 calls)
     g_psi        :      1.11s CPU      1.12s WALL (    1108 calls)

     Called by h_psi:
     h_psi:calbec :     22.04s CPU     22.13s WALL (    1353 calls)
     vloc_psi     :    119.96s CPU    121.12s WALL (    1353 calls)
     add_vuspsi   :     19.93s CPU     20.04s WALL (    1353 calls)

     General routines
     calbec       :     31.59s CPU     31.71s WALL (    1713 calls)
     fft          :     66.19s CPU     77.23s WALL (   17074 calls)
     ffts         :    899.04s CPU   1098.80s WALL (  491038 calls)
     fftw         :    101.44s CPU    102.32s WALL (  149626 calls)
     interpolate  :      1.79s CPU      2.09s WALL (     252 calls)
 
     Parallel routines
 
     PWSCF        :  43m25.18s CPU  47m30.84s WALL

 
   This run was terminated on:   1:36:34   4Nov2023            

=------------------------------------------------------------------------------=
   JOB DONE.
=------------------------------------------------------------------------------=
