
     Program PWSCF v.7.2 starts on  3Nov2023 at 20:53: 2 

     This program is part of the open-source Quantum ESPRESSO suite
     for quantum simulation of materials; please cite
         "P. Giannozzi et al., J. Phys.:Condens. Matter 21 395502 (2009);
         "P. Giannozzi et al., J. Phys.:Condens. Matter 29 465901 (2017);
         "P. Giannozzi et al., J. Chem. Phys. 152 154105 (2020);
          URL http://www.quantum-espresso.org", 
     in publications or presentations arising from this work. More details at
     http://www.quantum-espresso.org/quote

     Parallel version (MPI & OpenMP), running on      96 processor cores
     Number of MPI processes:                48
     Threads/MPI process:                     2

     MPI processes distributed on     2 nodes
     114071 MiB available memory on the printing compute node when the environment starts
 
     Waiting for input...
     Reading input from standard input
Warning: card &CELL ignored
Warning: card CELL_DYNAMICS = 'BFGS', ignored
Warning: card CELL_DOFREE = '2DXY' ignored
Warning: card / ignored

     Current dimensions of program PWSCF are:
     Max number of different atomic species (ntypx) = 10
     Max number of k-points (npk) =  40000
     Max angular momentum in pseudopotentials (lmaxx) =  4

     IMPORTANT: XC functional enforced from input :
     Exchange-correlation= RVV10
                           (   1   4  13   4  26   0   0)
     Any further DFT definition will be discarded
     Please, verify this is what you really want


     gamma-point specific algorithms are used
     signal trapping enabled: kill the code with -SIGUSR1 to stop cleanly the simulation 
 
     R & G space division:  proc/nbgrp/npool/nimage =      48
     Subspace diagonalization in iterative solution of the eigenvalue problem:
     one sub-group per band group will be used
     scalapack distributed-memory algorithm (size of sub-group:  2*  2 procs)

 
     Parallelization info
     --------------------
     sticks:   dense  smooth     PW     G-vecs:    dense   smooth      PW
     Min         243     194     47                49060    35090    4376
     Max         246     196     50                49086    35128    4410
     Sum       11735    9389   2349              2355467  1685513  210763
 
     Using Slab Decomposition
 


     bravais-lattice index     =            0
     lattice parameter (alat)  =      17.8707  a.u.
     unit-cell volume          =   17436.2743 (a.u.)^3
     number of atoms/cell      =           36
     number of atomic types    =            3
     number of electrons       =       307.00
     number of Kohn-Sham states=          185
     kinetic-energy cutoff     =      80.0000  Ry
     charge density cutoff     =     400.0000  Ry
     scf convergence threshold =      1.0E-06
     mixing beta               =       0.7000
     number of iterations used =            8  local-TF  mixing
     energy convergence thresh.=      1.0E-04
     force convergence thresh. =      1.0E-02
     Exchange-correlation= RVV10
                           (   1   4  13   4  26   0   0)
     nstep                     =          200


     celldm(1)=  17.870686  celldm(2)=   0.000000  celldm(3)=   0.000000
     celldm(4)=   0.000000  celldm(5)=   0.000000  celldm(6)=   0.000000

     crystal axes: (cart. coord. in units of alat)
               a(1) = (   1.000000   0.000000   0.000000 )  
               a(2) = (   0.000000   1.155671   0.000000 )  
               a(3) = (   0.000000   0.000000   2.643601 )  

     reciprocal axes: (cart. coord. in units 2 pi/alat)
               b(1) = (  1.000000  0.000000  0.000000 )  
               b(2) = (  0.000000  0.865298  0.000000 )  
               b(3) = (  0.000000  0.000000  0.378272 )  


     PseudoPot. # 1 for Mo read from file:
     ../pseudo/Mo_ONCV_PBE-1.0.oncvpsp.upf
     MD5 check sum: 1b5d28e075c9ccadda658a603575cd1f
     Pseudo is Norm-conserving, Zval = 14.0
     Generated using ONCVPSP code by D. R. Hamann
     Using radial grid of 1526 points,  6 beta functions with: 
                l(1) =   0
                l(2) =   0
                l(3) =   1
                l(4) =   1
                l(5) =   2
                l(6) =   2

     PseudoPot. # 2 for S  read from file:
     ../pseudo/s_pbe_v1.4.uspp.F.UPF
     MD5 check sum: 88d86576ff6df21479756cfb9bdac1df
     Pseudo is Ultrasoft + core correction, Zval =  6.0
     Generated by new atomic code, or converted to UPF format
     Using radial grid of  907 points,  6 beta functions with: 
                l(1) =   0
                l(2) =   0
                l(3) =   1
                l(4) =   1
                l(5) =   2
                l(6) =   2
     Q(r) pseudized with  8 coefficients,  rinner =    1.300   1.300   1.300
                                                       1.300   1.300

     PseudoPot. # 3 for H  read from file:
     ../pseudo/H_ONCV_PBE-1.0.oncvpsp.upf
     MD5 check sum: 1790becc920ee074925cf490c71280fe
     Pseudo is Norm-conserving, Zval =  1.0
     Generated using ONCVPSP code by D. R. Hamann
     Using radial grid of 1166 points,  2 beta functions with: 
                l(1) =   0
                l(2) =   0

     atomic species   valence    mass     pseudopotential
        Mo            14.00    95.94000     Mo( 1.00)
        S              6.00    32.06500     S ( 1.00)
        H              1.00     1.00794     H ( 1.00)

     No symmetry found



   Cartesian axes

     site n.     atom                  positions (alat units)
         1           Mo  tau(   1) = (   0.6952221   0.1890506   0.2985846  )
         2           S   tau(   2) = (   0.8646417   0.0856217   0.4689279  )
         3           S   tau(   3) = (   0.8663890   0.0857843   0.1351291  )
         4           Mo  tau(   4) = (   0.8560186   0.4753274   0.2873942  )
         5           S   tau(   5) = (   0.6873294   0.3936244   0.4596353  )
         6           S   tau(   6) = (   0.6929804   0.3713468   0.1185692  )
         7           Mo  tau(   7) = (   0.6862796   0.7633098   0.2825370  )
         8           S   tau(   8) = (   0.8545980   0.6708292   0.4486168  )
         9           S   tau(   9) = (   0.8545123   0.6666874   0.1146125  )
        10           Mo  tau(  10) = (   0.8629403   1.0471007   0.3006803  )
        11           S   tau(  11) = (   0.6868280   0.9456650   0.4634891  )
        12           S   tau(  12) = (   0.6998113   0.9568511   0.1205389  )
        13           Mo  tau(  13) = (   0.3618216   0.1847309   0.2935964  )
        14           S   tau(  14) = (   0.5260962   0.0863870   0.4600448  )
        15           S   tau(  15) = (   0.5348379   0.0894875   0.1297123  )
        16           Mo  tau(  16) = (   0.5265817   0.4772436   0.2784130  )
        17           S   tau(  17) = (   0.3624753   0.3882513   0.4525556  )
        18           S   tau(  18) = (   0.3635411   0.3752055   0.1119148  )
        19           Mo  tau(  19) = (   0.3652268   0.7630864   0.2781795  )
        20           S   tau(  20) = (   0.5269494   0.6690381   0.1096838  )
        21           Mo  tau(  21) = (   0.5300192   1.0470394   0.2900995  )
        22           S   tau(  22) = (   0.3670346   0.9457522   0.4574073  )
        23           S   tau(  23) = (   0.3604225   0.9585725   0.1159032  )
        24           Mo  tau(  24) = (   0.0313099   0.1847895   0.3013130  )
        25           S   tau(  25) = (   0.1956761   0.0838230   0.4650863  )
        26           S   tau(  26) = (   0.1967693   0.0903508   0.1278874  )
        27           Mo  tau(  27) = (   0.1967578   0.4753919   0.2813011  )
        28           S   tau(  28) = (   0.0287851   0.3864324   0.4586755  )
        29           S   tau(  29) = (   0.0244514   0.3729871   0.1239344  )
        30           Mo  tau(  30) = (   0.0286728   0.7631204   0.2856894  )
        31           S   tau(  31) = (   0.2011512   0.6675435   0.4465001  )
        32           S   tau(  32) = (   0.1969214   0.6672839   0.1104564  )
        33           Mo  tau(  33) = (   0.1950294   1.0511147   0.2932237  )
        34           S   tau(  34) = (   0.0312912   0.9612169   0.4667423  )
        35           S   tau(  35) = (   0.0292670   0.9563028   0.1216485  )
        36           H   tau(  36) = (   0.0000000   0.1284079   0.5650415  )

     number of k points=     1  Gaussian smearing, width (Ry)=  0.0100
                       cart. coord. in units 2pi/alat
        k(    1) = (   0.0000000   0.0000000   0.0000000), wk =   2.0000000

     Dense  grid:  1177734 G-vectors     FFT dimensions: ( 120, 135, 320)

     Smooth grid:   842757 G-vectors     FFT dimensions: ( 108, 120, 270)

     Estimated max dynamical RAM per process >     146.59 MB

     Estimated total dynamical RAM >       6.87 GB

     Initial potential from superposition of free atoms

     starting charge     306.9873, renormalised to     307.0000

     negative rho (up, down):  1.412E-04 0.000E+00


---------------------------------------------------------------------------------
Carrying out rVV10 run using the following parameters:
Nqs =      20    Nr_points =    1024   r_max =   100.000
b_value =  6.30000    beta =  0.00901
     q_mesh =  0.00010000  0.00030000  0.00058939  0.00100810
               0.00161396  0.00249058  0.00375900  0.00559430
               0.00824984  0.01209221  0.01765183  0.02569619
               0.03733578  0.05417739  0.07854596  0.11380545
               0.16482331  0.23864234  0.34545298  0.50000000

Gradients computed in Reciprocal space

---------------------------------------------------------------------------------


     Starting wfcs are  213 randomized atomic wfcs

     total cpu time spent up to now is        6.5 secs

     Self-consistent Calculation

     iteration #  1     ecut=    80.00 Ry     beta= 0.70
     Davidson diagonalization with overlap
     ethr =  1.00E-02,  avg # of iterations =  2.0

     Threshold (ethr) on eigenvalues was too large:
     Diagonalizing with lowered threshold

     Davidson diagonalization with overlap
     ethr =  3.88E-04,  avg # of iterations =  4.0

     negative rho (up, down):  1.835E-08 0.000E+00

     total cpu time spent up to now is     1228.2 secs

     total energy              =   -2205.59638401 Ry
     estimated scf accuracy    <       1.48512695 Ry

     iteration #  2     ecut=    80.00 Ry     beta= 0.70
     Davidson diagonalization with overlap
     ethr =  4.84E-04,  avg # of iterations =  1.0

     total cpu time spent up to now is     1276.9 secs

     total energy              =   -2205.43071752 Ry
     estimated scf accuracy    <       0.59568646 Ry

     iteration #  3     ecut=    80.00 Ry     beta= 0.70
     Davidson diagonalization with overlap
     ethr =  1.94E-04,  avg # of iterations =  5.0

     total cpu time spent up to now is     1310.3 secs

     total energy              =   -2205.52474208 Ry
     estimated scf accuracy    <       0.05448931 Ry

     iteration #  4     ecut=    80.00 Ry     beta= 0.70
     Davidson diagonalization with overlap
     ethr =  1.77E-05,  avg # of iterations = 16.0

     total cpu time spent up to now is     1349.0 secs

     total energy              =   -2205.52763450 Ry
     estimated scf accuracy    <       0.02753106 Ry

     iteration #  5     ecut=    80.00 Ry     beta= 0.70
     Davidson diagonalization with overlap
     ethr =  8.97E-06,  avg # of iterations =  2.0

     total cpu time spent up to now is     1380.2 secs

     total energy              =   -2205.52741223 Ry
     estimated scf accuracy    <       0.01976255 Ry

     iteration #  6     ecut=    80.00 Ry     beta= 0.70
     Davidson diagonalization with overlap
     ethr =  6.44E-06,  avg # of iterations =  1.0

     total cpu time spent up to now is     1399.7 secs

     total energy              =   -2205.52637340 Ry
     estimated scf accuracy    <       0.01198651 Ry

     iteration #  7     ecut=    80.00 Ry     beta= 0.70
     Davidson diagonalization with overlap
     ethr =  3.90E-06,  avg # of iterations =  2.0

     total cpu time spent up to now is     1441.7 secs

     total energy              =   -2205.52486239 Ry
     estimated scf accuracy    <       0.00751873 Ry

     iteration #  8     ecut=    80.00 Ry     beta= 0.70
     Davidson diagonalization with overlap
     ethr =  2.45E-06,  avg # of iterations =  2.0

     negative rho (up, down):  5.189E-03 0.000E+00

     total cpu time spent up to now is     1600.7 secs

     total energy              =   -2205.52432807 Ry
     estimated scf accuracy    <       0.00393294 Ry

     iteration #  9     ecut=    80.00 Ry     beta= 0.70
     Davidson diagonalization with overlap
     ethr =  1.28E-06,  avg # of iterations =  2.0

     negative rho (up, down):  1.930E-02 0.000E+00

     total cpu time spent up to now is     1811.8 secs

     total energy              =   -2205.52409860 Ry
     estimated scf accuracy    <       0.00238159 Ry

     iteration # 10     ecut=    80.00 Ry     beta= 0.70
     Davidson diagonalization with overlap
     ethr =  7.76E-07,  avg # of iterations =  1.0

     negative rho (up, down):  3.120E-02 0.000E+00

     total cpu time spent up to now is     2016.3 secs

     total energy              =   -2205.52419961 Ry
     estimated scf accuracy    <       0.00131890 Ry

     iteration # 11     ecut=    80.00 Ry     beta= 0.70
     Davidson diagonalization with overlap
     ethr =  4.30E-07,  avg # of iterations =  2.0

     negative rho (up, down):  1.888E-02 0.000E+00

     total cpu time spent up to now is     2201.3 secs

     total energy              =   -2205.52426129 Ry
     estimated scf accuracy    <       0.00034391 Ry

     iteration # 12     ecut=    80.00 Ry     beta= 0.70
     Davidson diagonalization with overlap
     ethr =  1.12E-07,  avg # of iterations =  6.0

     negative rho (up, down):  5.187E-03 0.000E+00

     total cpu time spent up to now is     2595.5 secs

     total energy              =   -2205.52434482 Ry
     estimated scf accuracy    <       0.00004747 Ry

     iteration # 13     ecut=    80.00 Ry     beta= 0.70
     Davidson diagonalization with overlap
     c_bands:  1 eigenvalues not converged
     ethr =  1.55E-08,  avg # of iterations = 20.0

     negative rho (up, down):  1.200E-03 0.000E+00

     total cpu time spent up to now is     3181.4 secs

     total energy              =   -2205.52435624 Ry
     estimated scf accuracy    <       0.00000644 Ry

     iteration # 14     ecut=    80.00 Ry     beta= 0.70
     Davidson diagonalization with overlap
     ethr =  2.10E-09,  avg # of iterations =  4.0

     negative rho (up, down):  3.009E-04 0.000E+00

     total cpu time spent up to now is     3621.5 secs

     total energy              =   -2205.52435816 Ry
     estimated scf accuracy    <       0.00000131 Ry

     iteration # 15     ecut=    80.00 Ry     beta= 0.70
     Davidson diagonalization with overlap
     ethr =  4.27E-10,  avg # of iterations =  5.0

     negative rho (up, down):  1.371E-04 0.000E+00

     total cpu time spent up to now is     3637.9 secs

     End of self-consistent calculation

          k = 0.0000 0.0000 0.0000 (105382 PWs)   bands (ev):

   -62.8640 -62.8500 -62.8416 -62.8274 -62.8261 -62.8137 -62.8104 -62.8036
   -62.7698 -62.6664 -62.6498 -62.6210 -37.1938 -37.1383 -37.1169 -37.1114
   -37.1093 -37.1019 -37.0719 -37.0556 -37.0494 -37.0393 -37.0318 -37.0235
   -37.0102 -37.0040 -37.0031 -36.9953 -36.9894 -36.9861 -36.9779 -36.9751
   -36.9343 -36.9216 -36.9029 -36.8739 -36.8664 -36.8605 -36.8473 -36.8318
   -36.8244 -36.8153 -36.8094 -36.8007 -36.7946 -36.7479 -36.6300 -36.6137
   -16.0888 -15.4217 -15.1518 -15.0312 -14.9661 -14.8006 -14.6376 -14.4986
   -14.4588 -14.4018 -14.3869 -14.3385 -14.3259 -14.2496 -14.1474 -14.1166
   -14.0816 -14.0666 -13.9960 -13.9438 -13.8045 -13.7931 -13.7601  -8.4961
    -7.6507  -7.4503  -7.2564  -7.2501  -7.2340  -7.1831  -7.1344  -6.9912
    -6.8010  -6.7848  -6.7180  -6.6682  -6.5730  -6.4931  -6.4349  -6.4251
    -6.3243  -6.2526  -6.1486  -5.9509  -5.9195  -5.8296  -5.8263  -5.7795
    -5.7594  -5.7286  -5.6301  -5.6203  -5.5901  -5.5142  -5.5049  -5.4918
    -5.4295  -5.3372  -5.2076  -5.1498  -5.0659  -5.0127  -4.9409  -4.9327
    -4.9268  -4.7917  -4.6463  -4.4906  -4.3627  -4.3110  -4.2866  -4.2379
    -4.2117  -4.0193  -3.9968  -3.8436  -3.8089  -3.7473  -3.7038  -3.6858
    -3.6446  -3.5672  -3.5448  -3.5156  -3.4838  -3.4717  -3.4146  -3.3595
    -3.3520  -3.1758  -3.1265  -2.8913  -2.8697  -2.7804  -2.7344  -2.7018
    -2.6953  -2.6694  -2.6363  -2.5776  -2.5101  -2.2336  -1.9899  -1.9723
    -1.9221  -0.8565  -0.6478  -0.5473  -0.1566  -0.1185  -0.0717  -0.0060
     0.0257   0.1406   0.2281   0.2468   0.2583   0.2974   0.3871   0.4650
     0.4889   0.5567   0.5812   0.6024   0.6559   0.6985   0.7331   0.7640
     0.7988   0.8360   0.8522   0.9162   0.9473   0.9999   1.0243   1.3687
     1.4110

     the Fermi energy is    -0.8600 ev

!    total energy              =   -2205.52435894 Ry
     estimated scf accuracy    <       0.00000043 Ry
     smearing contrib. (-TS)   =      -0.00616248 Ry
     internal energy E=F+TS    =   -2205.51819646 Ry

     The total energy is F=E-TS. E is the sum of the following terms:
     one-electron contribution =  -18049.29692775 Ry
     hartree contribution      =    9011.64845319 Ry
     xc contribution           =    -385.28557145 Ry
     ewald contribution        =    7217.41584955 Ry

     convergence has been achieved in  15 iterations

     negative rho (up, down):  1.371E-04 0.000E+00

     Forces acting on atoms (cartesian axes, Ry/au):

     atom    1 type  1   force =     0.00075966   -0.00847274   -0.00241226
     atom    2 type  2   force =     0.02389574    0.02291891    0.05559372
     atom    3 type  2   force =    -0.01203518    0.00963725   -0.00300665
     atom    4 type  1   force =     0.00627348   -0.00795259   -0.00325978
     atom    5 type  2   force =    -0.00538149   -0.00094150   -0.00737496
     atom    6 type  2   force =     0.00200057    0.00985364    0.00329701
     atom    7 type  1   force =    -0.00440794    0.00071321   -0.00796367
     atom    8 type  2   force =     0.00360571   -0.00458992    0.01750973
     atom    9 type  2   force =     0.01418591    0.00565177    0.01072662
     atom   10 type  1   force =    -0.00352760    0.00207638   -0.02373190
     atom   11 type  2   force =     0.00062285   -0.00360936   -0.00355580
     atom   12 type  2   force =    -0.00032943   -0.00018173    0.00520393
     atom   13 type  1   force =     0.00923737    0.00790937   -0.00646845
     atom   14 type  2   force =     0.00682177   -0.00087208    0.00903361
     atom   15 type  2   force =    -0.01239475    0.00080669   -0.01040567
     atom   16 type  1   force =     0.00205271    0.00303039    0.00378248
     atom   17 type  2   force =     0.00725730    0.00273521    0.00008344
     atom   18 type  2   force =    -0.00495046   -0.00568095    0.01619514
     atom   19 type  1   force =     0.01441547    0.00115131   -0.00445789
     atom   20 type  2   force =     0.00330195   -0.00519571    0.00085379
     atom   21 type  1   force =    -0.00280488    0.00941137    0.00151479
     atom   22 type  2   force =     0.00026002   -0.00232883   -0.00086381
     atom   23 type  2   force =    -0.00199576    0.00082207    0.00886744
     atom   24 type  1   force =     0.00098057    0.01578204   -0.06237313
     atom   25 type  2   force =     0.01744858    0.01769355    0.01519463
     atom   26 type  2   force =    -0.01137572   -0.00034122   -0.00451092
     atom   27 type  1   force =    -0.00459025   -0.01000191    0.00579511
     atom   28 type  2   force =     0.00154430    0.00310886   -0.00404024
     atom   29 type  2   force =     0.00303662   -0.00136715   -0.00154656
     atom   30 type  1   force =    -0.00503539    0.00991919   -0.00555289
     atom   31 type  2   force =     0.00048287   -0.00015841    0.01654387
     atom   32 type  2   force =    -0.01078951    0.00536006    0.00738833
     atom   33 type  1   force =     0.01212331   -0.00501394   -0.00932486
     atom   34 type  2   force =     0.00389415   -0.04914361   -0.00882882
     atom   35 type  2   force =    -0.00822639    0.00815989    0.01376263
     atom   36 type  3   force =    -0.04635617   -0.03088952   -0.02166802
     The non-local contrib.  to forces
     atom    1 type  1   force =     0.00262369    0.02539355   -0.01470464
     atom    2 type  2   force =     0.22584650    0.06479239   -0.02913935
     atom    3 type  2   force =    -0.01593562   -0.00385179    0.27574085
     atom    4 type  1   force =    -0.00234224    0.01242153    0.00354732
     atom    5 type  2   force =     0.00449434   -0.03037153   -0.25110801
     atom    6 type  2   force =    -0.00616555    0.00544784    0.26514566
     atom    7 type  1   force =    -0.03068031   -0.01397075   -0.01489896
     atom    8 type  2   force =     0.00495995   -0.00448240   -0.25307616
     atom    9 type  2   force =     0.01103955   -0.01334331    0.27650059
     atom   10 type  1   force =     0.00527573    0.00264781   -0.00949182
     atom   11 type  2   force =     0.00855609    0.00725104   -0.25760160
     atom   12 type  2   force =    -0.01123428   -0.01658821    0.26269592
     atom   13 type  1   force =    -0.00244215    0.01999619   -0.00946773
     atom   14 type  2   force =     0.00665395   -0.01320096   -0.25487493
     atom   15 type  2   force =    -0.01339894   -0.00104193    0.26173292
     atom   16 type  1   force =    -0.00299733    0.03909430   -0.03366456
     atom   17 type  2   force =     0.00203278   -0.02823160   -0.24908828
     atom   18 type  2   force =    -0.00259685   -0.00563160    0.27435395
     atom   19 type  1   force =     0.02340338   -0.01323738   -0.01145611
     atom   20 type  2   force =     0.00002114   -0.02179246    0.26497770
     atom   21 type  1   force =    -0.00145193    0.01460329    0.00829406
     atom   22 type  2   force =    -0.00443375    0.00729810   -0.25786022
     atom   23 type  2   force =     0.00588954   -0.01329938    0.26817367
     atom   24 type  1   force =     0.00657660    0.02324690   -0.00497639
     atom   25 type  2   force =    -0.02199621    0.01097495   -0.20002121
     atom   26 type  2   force =    -0.00189929   -0.01357228    0.26595930
     atom   27 type  1   force =     0.00223349    0.01490378    0.00711309
     atom   28 type  2   force =    -0.00129255   -0.02359194   -0.25850584
     atom   29 type  2   force =     0.00752033   -0.00066375    0.26523873
     atom   30 type  1   force =     0.00260074    0.01144571    0.00762209
     atom   31 type  2   force =    -0.00785145    0.00092016   -0.25160502
     atom   32 type  2   force =    -0.00783724   -0.01411452    0.27273406
     atom   33 type  1   force =    -0.00406078    0.00752309    0.00492036
     atom   34 type  2   force =    -0.00178478   -0.03296249   -0.27542656
     atom   35 type  2   force =    -0.00544695   -0.00824172    0.27146826
     atom   36 type  3   force =    -0.01995424   -0.00881601   -0.01785999
     The ionic contribution  to forces
     atom    1 type  1   force =     0.11633437    0.29687762    5.46217519
     atom    2 type  2   force =    -1.64869569    0.08841128   38.59270960
     atom    3 type  2   force =    -0.20253678    0.00078847  -36.19277507
     atom    4 type  1   force =     0.00240055    0.80045764    0.54484903
     atom    5 type  2   force =    -1.07171496    1.61111823   38.72041787
     atom    6 type  2   force =     0.32120248   -0.46980397  -38.04869440
     atom    7 type  1   force =    -2.66049799   -2.80950450    2.57102089
     atom    8 type  2   force =    -1.01031578    0.05328410   37.38580782
     atom    9 type  2   force =     0.33288044   -0.02728891  -38.00302328
     atom   10 type  1   force =    -1.27611818   -0.64127409    5.36809171
     atom   11 type  2   force =    -0.63165981   -1.69959386   39.12784990
     atom   12 type  2   force =     0.42357273    0.66355845  -37.86437753
     atom   13 type  1   force =     0.66935413    1.03205674    2.69484201
     atom   14 type  2   force =     0.03087743   -0.02558699   38.49543596
     atom   15 type  2   force =     0.14961958   -0.07006898  -36.82871826
     atom   16 type  1   force =    -0.03628830    4.04029054    0.46856943
     atom   17 type  2   force =     0.89045603    1.58929872   37.91306687
     atom   18 type  2   force =    -0.14284136   -0.61952466  -38.58039422
     atom   19 type  1   force =     2.75472062   -2.47104845    0.66236640
     atom   20 type  2   force =     0.22742718   -0.19168404  -38.46577479
     atom   21 type  1   force =     0.01415440   -0.05038847    1.12063673
     atom   22 type  2   force =     0.50882771   -1.79038540   38.42414652
     atom   23 type  2   force =    -0.07179608    0.64053830  -38.29499045
     atom   24 type  1   force =    -0.42472254    1.37113951    4.81326158
     atom   25 type  2   force =     1.27335183    0.13590172   38.96368411
     atom   26 type  2   force =    -0.24510020    0.05352564  -37.41560214
     atom   27 type  1   force =     0.12359308    0.59181008   -2.35262887
     atom   28 type  2   force =     0.09595101    1.41631743   38.05503427
     atom   29 type  2   force =    -0.26089753   -0.37557972  -37.32891629
     atom   30 type  1   force =    -0.33241255   -0.95726733   -0.06684782
     atom   31 type  2   force =     1.25580061   -0.03152999   37.32601126
     atom   32 type  2   force =    -0.47054498    0.00200951  -38.63221584
     atom   33 type  1   force =     0.98541785   -1.11026473    1.83574725
     atom   34 type  2   force =     0.26484211   -1.71243183   39.28664153
     atom   35 type  2   force =    -0.29656560    0.43237826  -37.85036660
     atom   36 type  3   force =     0.34192421    0.23346369    8.09295960
     The local contribution  to forces
     atom    1 type  1   force =    -0.11829371   -0.33057483   -5.44903735
     atom    2 type  2   force =     1.46076423   -0.12615642  -38.51422717
     atom    3 type  2   force =     0.20570771    0.01262164   35.93545427
     atom    4 type  1   force =     0.00620361   -0.82083204   -0.55081482
     atom    5 type  2   force =     1.06240308   -1.58352097  -38.49656620
     atom    6 type  2   force =    -0.31353509    0.47503656   37.80803771
     atom    7 type  1   force =     2.68690638    2.82422940   -2.56335022
     atom    8 type  2   force =     1.00921956   -0.05392063  -37.13513145
     atom    9 type  2   force =    -0.32934856    0.04552791   37.75838497
     atom   10 type  1   force =     1.26744720    0.64059988   -5.38138545
     atom   11 type  2   force =     0.62421274    1.68951792  -38.89384314
     atom   12 type  2   force =    -0.41370924   -0.64852776   37.62789153
     atom   13 type  1   force =    -0.65762686   -1.04405562   -2.69094289
     atom   14 type  2   force =    -0.03024949    0.03779716  -38.25138773
     atom   15 type  2   force =    -0.14933026    0.07183871   36.57741609
     atom   16 type  1   force =     0.04131588   -4.07654960   -0.43035538
     atom   17 type  2   force =    -0.88523688   -1.55985868  -37.68372273
     atom   18 type  2   force =     0.14050180    0.61985055   38.34349881
     atom   19 type  1   force =    -2.76386939    2.48540589   -0.65461782
     atom   20 type  2   force =    -0.22428376    0.20741074   38.22294504
     atom   21 type  1   force =    -0.01550392    0.04519765   -1.12654352
     atom   22 type  2   force =    -0.50424548    1.78147783  -38.18717198
     atom   23 type  2   force =     0.06439170   -0.62762697   38.05679231
     atom   24 type  1   force =     0.41913471   -1.37862962   -4.86976557
     atom   25 type  2   force =    -1.23597914   -0.12834682  -38.76540766
     atom   26 type  2   force =     0.23582371   -0.04101798   37.16636726
     atom   27 type  1   force =    -0.13040172   -0.61663262    2.35213688
     atom   28 type  2   force =    -0.09331760   -1.39163417  -37.82012030
     atom   29 type  2   force =     0.25702596    0.37535843   37.08298941
     atom   30 type  1   force =     0.32482204    0.95572547    0.05448082
     atom   31 type  2   force =    -1.24797965    0.03039834  -37.07790196
     atom   32 type  2   force =     0.46743023    0.01665846   38.38805680
     atom   33 type  1   force =    -0.96934903    1.09769161   -1.84904789
     atom   34 type  2   force =    -0.25965452    1.69548807  -39.04078898
     atom   35 type  2   force =     0.29370886   -0.41686704   37.61398806
     atom   36 type  3   force =    -0.36833079   -0.25554440   -8.09670646
     The core correction contribution to forces
     atom    1 type  1   force =     0.00000000    0.00000000    0.00000000
     atom    2 type  2   force =    -0.01398727   -0.00414376    0.00672697
     atom    3 type  2   force =     0.00074540    0.00008775   -0.02121094
     atom    4 type  1   force =     0.00000000    0.00000000    0.00000000
     atom    5 type  2   force =    -0.00058221    0.00183096    0.02021056
     atom    6 type  2   force =     0.00043521   -0.00079033   -0.02095596
     atom    7 type  1   force =     0.00000000    0.00000000    0.00000000
     atom    8 type  2   force =    -0.00019759    0.00053805    0.02032604
     atom    9 type  2   force =    -0.00035920    0.00076794   -0.02096657
     atom   10 type  1   force =     0.00000000    0.00000000    0.00000000
     atom   11 type  2   force =    -0.00045736   -0.00076720    0.02045592
     atom   12 type  2   force =     0.00104992    0.00132691   -0.02081070
     atom   13 type  1   force =     0.00000000    0.00000000    0.00000000
     atom   14 type  2   force =    -0.00046720    0.00012184    0.02024876
     atom   15 type  2   force =     0.00071954    0.00011986   -0.02059181
     atom   16 type  1   force =     0.00000000    0.00000000    0.00000000
     atom   17 type  2   force =     0.00001759    0.00154781    0.02016934
     atom   18 type  2   force =     0.00003887   -0.00031904   -0.02104158
     atom   19 type  1   force =     0.00000000    0.00000000    0.00000000
     atom   20 type  2   force =     0.00011088    0.00082263   -0.02113333
     atom   21 type  1   force =     0.00000000    0.00000000    0.00000000
     atom   22 type  2   force =     0.00008511   -0.00073245    0.02043285
     atom   23 type  2   force =    -0.00048903    0.00113764   -0.02089892
     atom   24 type  1   force =     0.00000000    0.00000000    0.00000000
     atom   25 type  2   force =     0.00205680   -0.00085559    0.01733920
     atom   26 type  2   force =    -0.00020880    0.00073677   -0.02099332
     atom   27 type  1   force =     0.00000000    0.00000000    0.00000000
     atom   28 type  2   force =     0.00021061    0.00204322    0.01996689
     atom   29 type  2   force =    -0.00060466   -0.00044001   -0.02066310
     atom   30 type  1   force =     0.00000000    0.00000000    0.00000000
     atom   31 type  2   force =     0.00048357    0.00006395    0.02042347
     atom   32 type  2   force =     0.00015672    0.00081617   -0.02098153
     atom   33 type  1   force =     0.00000000    0.00000000    0.00000000
     atom   34 type  2   force =     0.00048561    0.00076570    0.02114242
     atom   35 type  2   force =     0.00007392    0.00082640   -0.02109106
     atom   36 type  3   force =     0.00000000    0.00000000    0.00000000
     The Hubbard contrib.    to forces
     atom    1 type  1   force =     0.00000000    0.00000000    0.00000000
     atom    2 type  2   force =     0.00000000    0.00000000    0.00000000
     atom    3 type  2   force =     0.00000000    0.00000000    0.00000000
     atom    4 type  1   force =     0.00000000    0.00000000    0.00000000
     atom    5 type  2   force =     0.00000000    0.00000000    0.00000000
     atom    6 type  2   force =     0.00000000    0.00000000    0.00000000
     atom    7 type  1   force =     0.00000000    0.00000000    0.00000000
     atom    8 type  2   force =     0.00000000    0.00000000    0.00000000
     atom    9 type  2   force =     0.00000000    0.00000000    0.00000000
     atom   10 type  1   force =     0.00000000    0.00000000    0.00000000
     atom   11 type  2   force =     0.00000000    0.00000000    0.00000000
     atom   12 type  2   force =     0.00000000    0.00000000    0.00000000
     atom   13 type  1   force =     0.00000000    0.00000000    0.00000000
     atom   14 type  2   force =     0.00000000    0.00000000    0.00000000
     atom   15 type  2   force =     0.00000000    0.00000000    0.00000000
     atom   16 type  1   force =     0.00000000    0.00000000    0.00000000
     atom   17 type  2   force =     0.00000000    0.00000000    0.00000000
     atom   18 type  2   force =     0.00000000    0.00000000    0.00000000
     atom   19 type  1   force =     0.00000000    0.00000000    0.00000000
     atom   20 type  2   force =     0.00000000    0.00000000    0.00000000
     atom   21 type  1   force =     0.00000000    0.00000000    0.00000000
     atom   22 type  2   force =     0.00000000    0.00000000    0.00000000
     atom   23 type  2   force =     0.00000000    0.00000000    0.00000000
     atom   24 type  1   force =     0.00000000    0.00000000    0.00000000
     atom   25 type  2   force =     0.00000000    0.00000000    0.00000000
     atom   26 type  2   force =     0.00000000    0.00000000    0.00000000
     atom   27 type  1   force =     0.00000000    0.00000000    0.00000000
     atom   28 type  2   force =     0.00000000    0.00000000    0.00000000
     atom   29 type  2   force =     0.00000000    0.00000000    0.00000000
     atom   30 type  1   force =     0.00000000    0.00000000    0.00000000
     atom   31 type  2   force =     0.00000000    0.00000000    0.00000000
     atom   32 type  2   force =     0.00000000    0.00000000    0.00000000
     atom   33 type  1   force =     0.00000000    0.00000000    0.00000000
     atom   34 type  2   force =     0.00000000    0.00000000    0.00000000
     atom   35 type  2   force =     0.00000000    0.00000000    0.00000000
     atom   36 type  3   force =     0.00000000    0.00000000    0.00000000
     The SCF correction term to forces
     atom    1 type  1   force =     0.00009521   -0.00017174   -0.00082646
     atom    2 type  2   force =    -0.00003212    0.00001277   -0.00045733
     atom    3 type  2   force =    -0.00001598   -0.00001146   -0.00019675
     atom    4 type  1   force =     0.00001147   -0.00000237   -0.00082231
     atom    5 type  2   force =     0.00001816   -0.00000084   -0.00031016
     atom    6 type  2   force =     0.00006343   -0.00003911   -0.00021699
     atom    7 type  1   force =    -0.00013612   -0.00004359   -0.00071638
     atom    8 type  2   force =    -0.00006052   -0.00001170   -0.00039751
     atom    9 type  2   force =    -0.00002643   -0.00001451   -0.00015008
     atom   10 type  1   force =    -0.00013244    0.00010013   -0.00092733
     atom   11 type  2   force =    -0.00002891   -0.00001991   -0.00039786
     atom   12 type  2   force =    -0.00000865    0.00004623   -0.00017630
     atom   13 type  1   force =    -0.00004784   -0.00009059   -0.00088083
     atom   14 type  2   force =     0.00000699   -0.00000578   -0.00036944
     atom   15 type  2   force =    -0.00000475   -0.00004362   -0.00022561
     atom   16 type  1   force =     0.00002237    0.00019250   -0.00074800
     atom   17 type  2   force =    -0.00001231   -0.00002370   -0.00032275
     atom   18 type  2   force =    -0.00005300   -0.00005886   -0.00020281
     atom   19 type  1   force =     0.00016077    0.00002859   -0.00073135
     atom   20 type  2   force =     0.00002641    0.00004477   -0.00014182
     atom   21 type  1   force =    -0.00000353   -0.00000375   -0.00085348
     atom   22 type  2   force =     0.00002633    0.00001044   -0.00039197
     atom   23 type  2   force =     0.00000801    0.00006984   -0.00019016
     atom   24 type  1   force =    -0.00000830    0.00002259   -0.00087374
     atom   25 type  2   force =     0.00001521    0.00001663   -0.00038080
     atom   26 type  2   force =     0.00000876   -0.00001602   -0.00022301
     atom   27 type  1   force =    -0.00001520   -0.00008580   -0.00080699
     atom   28 type  2   force =    -0.00000727   -0.00002832   -0.00039625
     atom   29 type  2   force =    -0.00000757   -0.00004474   -0.00017631
     atom   30 type  1   force =    -0.00004571    0.00001269   -0.00078896
     atom   31 type  2   force =     0.00002970   -0.00001353   -0.00036486
     atom   32 type  2   force =     0.00000566   -0.00001221   -0.00018616
     atom   33 type  1   force =     0.00011518    0.00003343   -0.00092557
     atom   34 type  2   force =     0.00000565   -0.00000572   -0.00037822
     atom   35 type  2   force =     0.00000327    0.00006135   -0.00021702
     atom   36 type  3   force =     0.00000455    0.00000455   -0.00004215

     Total force =     0.142471     Total SCF correction =     0.003240

     BFGS Geometry Optimization
     Energy error            =      0.0E+00 Ry
     Gradient error          =      6.2E-02 Ry/Bohr

     number of scf cycles    =   1
     number of bfgs steps    =   0

     energy             new  =   -2205.5243589387 Ry

     new trust radius        =       0.0647066009 bohr
     new conv_thr            =       0.0000010000 Ry


ATOMIC_POSITIONS (angstrom)
Mo            6.5749504032        1.7833226473        2.8223665180
S             8.1893544206        0.8218321910        4.4639572797
S             8.1868643427        0.8163415578        1.2762923765
Mo            8.0984823498        4.4908486160        2.7160933911
S             6.4970614929        3.7219132684        4.3427579904
S             6.5544084535        3.5169518749        1.1230249328
Mo            6.4876491131        7.2188146990        2.6676702898
S             8.0836357880        6.3414421089        4.2517273146
S             8.0884245069        6.3076931069        1.0895392805
Mo            8.1587523246        9.9032791856        2.8309033816
S             6.4954971957        8.9410168260        4.3812238871
S             6.6177728719        9.0486150476        1.1426611011
Mo            3.4265478706        1.7511413089        2.7730482052
S             4.9787754183        0.8164797241        4.3553134755
S             5.0512747367        0.8466889906        1.2211520158
Mo            4.9808429279        4.5147816159        2.6348861517
S             3.4316820610        3.6730470980        4.2797537353
S             3.4353009098        3.5452224694        1.0669217811
Mo            3.4614900789        7.2169337859        2.6283178506
S             4.9849815106        6.3241828349        1.0377055397
Mo            5.0107796391        9.9065803360        2.7442025505
S             3.4710957148        8.9425189052        4.3251342051
S             3.4073730532        9.0654250048        1.1007607450
Mo            0.2966093807        1.7558610251        2.8164382700
S             1.8596956028        0.8020570302        4.4062500892
S             1.8547802640        0.8542453515        1.2070137804
Mo            1.8582622559        4.4903739789        2.6632640180
S             0.2730310590        3.6560439649        4.3354460950
S             0.2328381175        3.5265257644        1.1711994779
Mo            0.2684875354        7.2218951042        2.6987579647
S             1.9024937699        6.3127150055        4.2311987613
S             1.8565286512        6.3131802322        1.0484690211
Mo            1.8507620431        9.9374858902        2.7680117474
S             0.2979735950        9.0639921464        4.4091974580
S             0.2724181834        9.0478437424        1.1576836503
H            -0.0245306296        1.1979761936        5.3319955394



     Writing config-only to output data dir ./MoS2-V-O.save/
     NEW-OLD atomic charge density approx. for the potential

     negative rho (up, down):  1.452E-04 0.000E+00

     total cpu time spent up to now is     3653.0 secs

     Self-consistent Calculation

     iteration #  1     ecut=    80.00 Ry     beta= 0.70
     Davidson diagonalization with overlap
     ethr =  1.00E-06,  avg # of iterations =  8.0

     negative rho (up, down):  9.695E-05 0.000E+00

     total cpu time spent up to now is     4320.7 secs

     total energy              =   -2205.54119437 Ry
     estimated scf accuracy    <       0.00183777 Ry

     iteration #  2     ecut=    80.00 Ry     beta= 0.70
     Davidson diagonalization with overlap
     ethr =  5.99E-07,  avg # of iterations =  2.0

     negative rho (up, down):  8.849E-05 0.000E+00

     total cpu time spent up to now is     5360.6 secs

     total energy              =   -2205.54124264 Ry
     estimated scf accuracy    <       0.00039253 Ry

     iteration #  3     ecut=    80.00 Ry     beta= 0.70
     Davidson diagonalization with overlap
     ethr =  1.28E-07,  avg # of iterations =  6.0

     negative rho (up, down):  8.313E-05 0.000E+00

     total cpu time spent up to now is     6272.7 secs

     total energy              =   -2205.54126217 Ry
     estimated scf accuracy    <       0.00012074 Ry

     iteration #  4     ecut=    80.00 Ry     beta= 0.70
     Davidson diagonalization with overlap
     ethr =  3.93E-08,  avg # of iterations =  5.0

     negative rho (up, down):  8.035E-05 0.000E+00

     total cpu time spent up to now is     7128.7 secs

     total energy              =   -2205.54127982 Ry
     estimated scf accuracy    <       0.00000988 Ry

     iteration #  5     ecut=    80.00 Ry     beta= 0.70
     Davidson diagonalization with overlap
     ethr =  3.22E-09,  avg # of iterations =  6.0

     negative rho (up, down):  7.677E-05 0.000E+00

     total cpu time spent up to now is     7854.9 secs

     total energy              =   -2205.54128322 Ry
     estimated scf accuracy    <       0.00000404 Ry

     iteration #  6     ecut=    80.00 Ry     beta= 0.70
     Davidson diagonalization with overlap
     ethr =  1.32E-09,  avg # of iterations =  2.0

     negative rho (up, down):  1.375E-04 0.000E+00

     total cpu time spent up to now is     7876.4 secs

     End of self-consistent calculation

          k = 0.0000 0.0000 0.0000 (105382 PWs)   bands (ev):

   -62.8620 -62.8466 -62.8384 -62.8254 -62.8234 -62.8099 -62.8089 -62.8032
   -62.7655 -62.6649 -62.6467 -62.6099 -37.1898 -37.1339 -37.1145 -37.1080
   -37.1032 -37.0967 -37.0687 -37.0530 -37.0440 -37.0368 -37.0266 -37.0195
   -37.0074 -37.0003 -36.9991 -36.9917 -36.9858 -36.9815 -36.9764 -36.9691
   -36.9334 -36.9212 -36.8985 -36.8686 -36.8630 -36.8575 -36.8458 -36.8285
   -36.8197 -36.8132 -36.8071 -36.7937 -36.7904 -36.7406 -36.6245 -36.6101
   -16.0882 -15.4441 -15.1590 -15.0279 -14.9457 -14.8106 -14.6297 -14.4747
   -14.4528 -14.4002 -14.3927 -14.3414 -14.3259 -14.2508 -14.1401 -14.1226
   -14.0813 -14.0690 -13.9951 -13.9281 -13.8060 -13.7828 -13.7689  -8.5481
    -7.6412  -7.4422  -7.2560  -7.2509  -7.2333  -7.1814  -7.1209  -6.9922
    -6.8022  -6.7785  -6.7075  -6.6587  -6.5785  -6.4771  -6.4389  -6.4201
    -6.3274  -6.2300  -6.1492  -5.9354  -5.9084  -5.8318  -5.8188  -5.7813
    -5.7579  -5.7262  -5.6343  -5.6255  -5.5928  -5.5252  -5.4977  -5.4754
    -5.4161  -5.3092  -5.2005  -5.1265  -5.0599  -5.0157  -4.9374  -4.9339
    -4.9237  -4.7967  -4.6334  -4.4986  -4.3704  -4.2970  -4.2785  -4.2400
    -4.2138  -4.0264  -4.0008  -3.8517  -3.8051  -3.7454  -3.6989  -3.6808
    -3.6451  -3.5599  -3.5350  -3.5080  -3.4852  -3.4688  -3.4181  -3.3545
    -3.3421  -3.1721  -3.1298  -2.8895  -2.8727  -2.7660  -2.7337  -2.6983
    -2.6880  -2.6776  -2.6431  -2.5679  -2.5111  -2.2273  -1.9829  -1.9729
    -1.9322  -0.8653  -0.6435  -0.5375  -0.1419  -0.1016  -0.0797  -0.0034
     0.0273   0.1390   0.2260   0.2382   0.2790   0.3107   0.3733   0.4762
     0.5053   0.5694   0.5832   0.6106   0.6552   0.7059   0.7253   0.7767
     0.7947   0.8423   0.8705   0.9249   0.9464   1.0119   1.0374   1.3771
     1.3952

     the Fermi energy is    -0.8677 ev

!    total energy              =   -2205.54128344 Ry
     estimated scf accuracy    <       0.00000098 Ry
     smearing contrib. (-TS)   =      -0.00602875 Ry
     internal energy E=F+TS    =   -2205.53525469 Ry

     The total energy is F=E-TS. E is the sum of the following terms:
     one-electron contribution =  -18047.25042117 Ry
     hartree contribution      =    9010.69340348 Ry
     xc contribution           =    -385.28947057 Ry
     ewald contribution        =    7216.31123358 Ry

     convergence has been achieved in   6 iterations

     negative rho (up, down):  1.375E-04 0.000E+00

     Forces acting on atoms (cartesian axes, Ry/au):

     atom    1 type  1   force =    -0.00131207   -0.00391579   -0.00087893
     atom    2 type  2   force =     0.02415854    0.01566820    0.03869208
     atom    3 type  2   force =    -0.01319793    0.00738433   -0.00844988
     atom    4 type  1   force =     0.00533094   -0.00385569    0.00133874
     atom    5 type  2   force =    -0.00320827   -0.00173278   -0.00653079
     atom    6 type  2   force =     0.00083936    0.00684625    0.00241863
     atom    7 type  1   force =    -0.00084338   -0.00084284   -0.00096980
     atom    8 type  2   force =     0.00180433   -0.00421887    0.01012685
     atom    9 type  2   force =     0.01153138    0.00445656    0.00769756
     atom   10 type  1   force =     0.00098150    0.00532013   -0.00389162
     atom   11 type  2   force =     0.00109795   -0.00214867   -0.00566869
     atom   12 type  2   force =    -0.00170578    0.00061875    0.00093537
     atom   13 type  1   force =     0.00619079    0.00338055   -0.00076632
     atom   14 type  2   force =     0.00599849    0.00051398    0.00542203
     atom   15 type  2   force =    -0.00896994    0.00129655   -0.00982121
     atom   16 type  1   force =     0.00139225    0.00406599    0.00191361
     atom   17 type  2   force =     0.00586860    0.00167060    0.00074647
     atom   18 type  2   force =    -0.00341033   -0.00359685    0.01202086
     atom   19 type  1   force =     0.00835826   -0.00078742    0.00088462
     atom   20 type  2   force =     0.00324313   -0.00487225   -0.00241935
     atom   21 type  1   force =    -0.00130619    0.00705261    0.00305332
     atom   22 type  2   force =     0.00149204   -0.00165248   -0.00129794
     atom   23 type  2   force =    -0.00018381    0.00045599    0.00440139
     atom   24 type  1   force =     0.00161153    0.00767733   -0.02399857
     atom   25 type  2   force =     0.01182822    0.01559206   -0.00014682
     atom   26 type  2   force =    -0.00435328   -0.00113393   -0.00837821
     atom   27 type  1   force =    -0.00320994   -0.00396502    0.00729097
     atom   28 type  2   force =     0.00123918   -0.00080755   -0.00723859
     atom   29 type  2   force =     0.00284716    0.00320663   -0.00942918
     atom   30 type  1   force =    -0.00204775    0.00242552    0.00249920
     atom   31 type  2   force =     0.00132643    0.00010067    0.00876732
     atom   32 type  2   force =    -0.00818737    0.00392415    0.00708630
     atom   33 type  1   force =     0.00458222   -0.00119758    0.00139442
     atom   34 type  2   force =     0.00207441   -0.03697531   -0.01356653
     atom   35 type  2   force =    -0.00596718    0.00794438    0.00669813
     atom   36 type  3   force =    -0.04589347   -0.02789818   -0.01993544
     The non-local contrib.  to forces
     atom    1 type  1   force =     0.00260186    0.02412631   -0.01576501
     atom    2 type  2   force =     0.24272098    0.06649315   -0.03259195
     atom    3 type  2   force =    -0.01399093   -0.00568515    0.27187828
     atom    4 type  1   force =    -0.00128329    0.01203929    0.00236649
     atom    5 type  2   force =     0.00606618   -0.03051141   -0.25012077
     atom    6 type  2   force =    -0.00691644    0.00206607    0.26530923
     atom    7 type  1   force =    -0.03127912   -0.01476323   -0.01609874
     atom    8 type  2   force =     0.00327024   -0.00505739   -0.25827150
     atom    9 type  2   force =     0.00842512   -0.01436731    0.27503552
     atom   10 type  1   force =     0.00455985    0.00102095   -0.01261564
     atom   11 type  2   force =     0.00748712    0.00823378   -0.25876595
     atom   12 type  2   force =    -0.01191938   -0.01578033    0.26114353
     atom   13 type  1   force =    -0.00060364    0.02192635   -0.01027108
     atom   14 type  2   force =     0.00467126   -0.01205387   -0.25559973
     atom   15 type  2   force =    -0.01058449   -0.00039098    0.26150312
     atom   16 type  1   force =    -0.00379019    0.03969377   -0.03334307
     atom   17 type  2   force =     0.00093425   -0.02829210   -0.24864964
     atom   18 type  2   force =    -0.00152326   -0.00465198    0.27205409
     atom   19 type  1   force =     0.02506208   -0.01299151   -0.01290210
     atom   20 type  2   force =     0.00002759   -0.02091217    0.26296737
     atom   21 type  1   force =    -0.00232962    0.01436047    0.00698580
     atom   22 type  2   force =    -0.00317353    0.00776706   -0.25830491
     atom   23 type  2   force =     0.00744235   -0.01346639    0.26585590
     atom   24 type  1   force =     0.00694134    0.02609439   -0.00485730
     atom   25 type  2   force =    -0.01862051    0.00825620   -0.21344703
     atom   26 type  2   force =     0.00234549   -0.01299544    0.26434553
     atom   27 type  1   force =     0.00183799    0.01314013    0.00554261
     atom   28 type  2   force =    -0.00060782   -0.02338223   -0.25898969
     atom   29 type  2   force =     0.00700872    0.00015608    0.26107558
     atom   30 type  1   force =     0.00197925    0.01257164    0.00600061
     atom   31 type  2   force =    -0.00696951    0.00031732   -0.25776319
     atom   32 type  2   force =    -0.00530379   -0.01496771    0.27342584
     atom   33 type  1   force =    -0.00253793    0.00529947    0.00260556
     atom   34 type  2   force =    -0.00251371   -0.02327593   -0.27853497
     atom   35 type  2   force =    -0.00448256   -0.00840362    0.26818384
     atom   36 type  3   force =    -0.02511719   -0.00979608   -0.02052752
     The ionic contribution  to forces
     atom    1 type  1   force =     0.20862227    0.21976226    5.61022950
     atom    2 type  2   force =    -1.57580621   -0.01095512   38.67539415
     atom    3 type  2   force =    -0.27659179   -0.07009393  -36.18828114
     atom    4 type  1   force =    -0.09623539    0.95645032    0.61666895
     atom    5 type  2   force =    -1.02485953    1.59171898   38.68807522
     atom    6 type  2   force =     0.27584653   -0.46760359  -38.00920263
     atom    7 type  1   force =    -2.52306166   -2.83861016    2.50538914
     atom    8 type  2   force =    -1.04171869    0.05419590   37.43963760
     atom    9 type  2   force =     0.29837142   -0.05463925  -37.92499481
     atom   10 type  1   force =    -1.12845808   -0.33940828    5.25798045
     atom   11 type  2   force =    -0.56140804   -1.65638556   39.09945045
     atom   12 type  2   force =     0.36514640    0.65295691  -37.84394949
     atom   13 type  1   force =     0.57031944    0.85680537    2.72410706
     atom   14 type  2   force =     0.02495491   -0.02604975   38.57359938
     atom   15 type  2   force =     0.17860695   -0.07310803  -36.89483343
     atom   16 type  1   force =    -0.03278608    4.06797664    0.59654882
     atom   17 type  2   force =     0.86596720    1.58214702   37.95646199
     atom   18 type  2   force =    -0.10841011   -0.53118758  -38.51987390
     atom   19 type  1   force =     2.54072243   -2.58546690    0.63280480
     atom   20 type  2   force =     0.20512567   -0.22254723  -38.50887484
     atom   21 type  1   force =     0.07834029   -0.05209903    1.29941458
     atom   22 type  2   force =     0.47932125   -1.77521952   38.45364895
     atom   23 type  2   force =    -0.05384207    0.60919620  -38.27832885
     atom   24 type  1   force =    -0.44208387    0.87965583    3.76272755
     atom   25 type  2   force =     1.05726262    0.11227735   38.92336582
     atom   26 type  2   force =    -0.12716549   -0.04148271  -37.40074385
     atom   27 type  1   force =     0.21667791    0.89668413   -2.08173741
     atom   28 type  2   force =     0.08056932    1.27336804   38.09247687
     atom   29 type  2   force =    -0.26032906   -0.19174192  -37.45412188
     atom   30 type  1   force =    -0.22935083   -1.11720401   -0.09604904
     atom   31 type  2   force =     1.26697407   -0.01226574   37.32834541
     atom   32 type  2   force =    -0.41896180   -0.02010544  -38.52019901
     atom   33 type  1   force =     0.76472364   -0.86326301    1.97789249
     atom   34 type  2   force =     0.22553151   -1.47558442   39.20191938
     atom   35 type  2   force =    -0.24013383    0.43272011  -37.78673183
     atom   36 type  3   force =     0.43811870    0.23910611    8.09178354
     The local contribution  to forces
     atom    1 type  1   force =    -0.21282134   -0.24782329   -5.59627451
     atom    2 type  2   force =     1.37244907   -0.03543249  -38.61086635
     atom    3 type  2   force =     0.27673844    0.08312278   35.92885910
     atom    4 type  1   force =     0.10280272   -0.97229555   -0.61834992
     atom    5 type  2   force =     1.01620391   -1.56477168  -38.46517263
     atom    6 type  2   force =    -0.26855411    0.47295497   37.76707370
     atom    7 type  1   force =     2.55364728    2.85230617   -2.49076557
     atom    8 type  2   force =     1.04045878   -0.05398791  -37.19214650
     atom    9 type  2   force =    -0.29494703    0.07253817   37.67841990
     atom   10 type  1   force =     1.12479558    0.34376878   -5.25011860
     atom   11 type  2   force =     0.55536039    1.64686359  -38.86726249
     atom   12 type  2   force =    -0.35601310   -0.63769067   37.60425539
     atom   13 type  1   force =    -0.56329214   -0.87553110   -2.71534010
     atom   14 type  2   force =    -0.02321110    0.03856436  -38.33341655
     atom   15 type  2   force =    -0.17757095    0.07471783   36.64388169
     atom   16 type  1   force =     0.03802519   -4.10380596   -0.56199543
     atom   17 type  2   force =    -0.86106470   -1.55372457  -37.72764142
     atom   18 type  2   force =     0.10657908    0.53253739   38.28060058
     atom   19 type  1   force =    -2.55772970    2.59748383   -0.61953739
     atom   20 type  2   force =    -0.20207483    0.23771227   38.26431376
     atom   21 type  1   force =    -0.07736384    0.04528170   -1.30400829
     atom   22 type  2   force =    -0.47469551    1.76657702  -38.21757143
     atom   23 type  2   force =     0.04674656   -0.59631771   38.03751520
     atom   24 type  1   force =     0.43687927   -0.89801761   -3.78279988
     atom   25 type  2   force =    -1.02848837   -0.10424549  -38.72846811
     atom   26 type  2   force =     0.12077020    0.05268116   37.14878763
     atom   27 type  1   force =    -0.22173995   -0.91355427    2.08288203
     atom   28 type  2   force =    -0.07888559   -1.25261323  -37.86126770
     atom   29 type  2   force =     0.25670504    0.19507099   37.20402572
     atom   30 type  1   force =     0.22545594    1.10666400    0.09207047
     atom   31 type  2   force =    -1.25913662    0.01191694  -37.08288425
     atom   32 type  2   force =     0.41601380    0.03812464   38.27474898
     atom   33 type  1   force =    -0.75752075    0.85698032   -1.97983878
     atom   34 type  2   force =    -0.22137742    1.46135733  -38.95873444
     atom   35 type  2   force =     0.23864666   -0.41717346   37.54606072
     atom   36 type  3   force =    -0.45888587   -0.25720600   -8.09132156
     The core correction contribution to forces
     atom    1 type  1   force =     0.00000000    0.00000000    0.00000000
     atom    2 type  2   force =    -0.01522953   -0.00438309    0.00620730
     atom    3 type  2   force =     0.00056313    0.00012117   -0.02112611
     atom    4 type  1   force =     0.00000000    0.00000000    0.00000000
     atom    5 type  2   force =    -0.00063649    0.00182104    0.02015309
     atom    6 type  2   force =     0.00044024   -0.00062717   -0.02095155
     atom    7 type  1   force =     0.00000000    0.00000000    0.00000000
     atom    8 type  2   force =    -0.00013636    0.00055043    0.02046289
     atom    9 type  2   force =    -0.00025006    0.00077423   -0.02092755
     atom   10 type  1   force =     0.00000000    0.00000000    0.00000000
     atom   11 type  2   force =    -0.00036069   -0.00081426    0.02048200
     atom   12 type  2   force =     0.00100772    0.00128415   -0.02077813
     atom   13 type  1   force =     0.00000000    0.00000000    0.00000000
     atom   14 type  2   force =    -0.00041743    0.00008672    0.02029917
     atom   15 type  2   force =     0.00061087    0.00008479   -0.02059761
     atom   16 type  1   force =     0.00000000    0.00000000    0.00000000
     atom   17 type  2   force =     0.00006703    0.00154957    0.02015801
     atom   18 type  2   force =    -0.00000030   -0.00030135   -0.02099622
     atom   19 type  1   force =     0.00000000    0.00000000    0.00000000
     atom   20 type  2   force =     0.00010553    0.00074324   -0.02109626
     atom   21 type  1   force =     0.00000000    0.00000000    0.00000000
     atom   22 type  2   force =     0.00001342   -0.00077318    0.02046884
     atom   23 type  2   force =    -0.00052308    0.00113498   -0.02086306
     atom   24 type  1   force =     0.00000000    0.00000000    0.00000000
     atom   25 type  2   force =     0.00176152   -0.00070021    0.01778747
     atom   26 type  2   force =    -0.00027274    0.00063728   -0.02093962
     atom   27 type  1   force =     0.00000000    0.00000000    0.00000000
     atom   28 type  2   force =     0.00016474    0.00190319    0.02002416
     atom   29 type  2   force =    -0.00057728   -0.00028690   -0.02061845
     atom   30 type  1   force =     0.00000000    0.00000000    0.00000000
     atom   31 type  2   force =     0.00043990    0.00012175    0.02056205
     atom   32 type  2   force =     0.00005731    0.00081353   -0.02096510
     atom   33 type  1   force =     0.00000000    0.00000000    0.00000000
     atom   34 type  2   force =     0.00048065    0.00045375    0.02124563
     atom   35 type  2   force =     0.00007271    0.00083546   -0.02102540
     atom   36 type  3   force =     0.00000000    0.00000000    0.00000000
     The Hubbard contrib.    to forces
     atom    1 type  1   force =     0.00000000    0.00000000    0.00000000
     atom    2 type  2   force =     0.00000000    0.00000000    0.00000000
     atom    3 type  2   force =     0.00000000    0.00000000    0.00000000
     atom    4 type  1   force =     0.00000000    0.00000000    0.00000000
     atom    5 type  2   force =     0.00000000    0.00000000    0.00000000
     atom    6 type  2   force =     0.00000000    0.00000000    0.00000000
     atom    7 type  1   force =     0.00000000    0.00000000    0.00000000
     atom    8 type  2   force =     0.00000000    0.00000000    0.00000000
     atom    9 type  2   force =     0.00000000    0.00000000    0.00000000
     atom   10 type  1   force =     0.00000000    0.00000000    0.00000000
     atom   11 type  2   force =     0.00000000    0.00000000    0.00000000
     atom   12 type  2   force =     0.00000000    0.00000000    0.00000000
     atom   13 type  1   force =     0.00000000    0.00000000    0.00000000
     atom   14 type  2   force =     0.00000000    0.00000000    0.00000000
     atom   15 type  2   force =     0.00000000    0.00000000    0.00000000
     atom   16 type  1   force =     0.00000000    0.00000000    0.00000000
     atom   17 type  2   force =     0.00000000    0.00000000    0.00000000
     atom   18 type  2   force =     0.00000000    0.00000000    0.00000000
     atom   19 type  1   force =     0.00000000    0.00000000    0.00000000
     atom   20 type  2   force =     0.00000000    0.00000000    0.00000000
     atom   21 type  1   force =     0.00000000    0.00000000    0.00000000
     atom   22 type  2   force =     0.00000000    0.00000000    0.00000000
     atom   23 type  2   force =     0.00000000    0.00000000    0.00000000
     atom   24 type  1   force =     0.00000000    0.00000000    0.00000000
     atom   25 type  2   force =     0.00000000    0.00000000    0.00000000
     atom   26 type  2   force =     0.00000000    0.00000000    0.00000000
     atom   27 type  1   force =     0.00000000    0.00000000    0.00000000
     atom   28 type  2   force =     0.00000000    0.00000000    0.00000000
     atom   29 type  2   force =     0.00000000    0.00000000    0.00000000
     atom   30 type  1   force =     0.00000000    0.00000000    0.00000000
     atom   31 type  2   force =     0.00000000    0.00000000    0.00000000
     atom   32 type  2   force =     0.00000000    0.00000000    0.00000000
     atom   33 type  1   force =     0.00000000    0.00000000    0.00000000
     atom   34 type  2   force =     0.00000000    0.00000000    0.00000000
     atom   35 type  2   force =     0.00000000    0.00000000    0.00000000
     atom   36 type  3   force =     0.00000000    0.00000000    0.00000000
     The SCF correction term to forces
     atom    1 type  1   force =     0.00028346    0.00001451    0.00091993
     atom    2 type  2   force =     0.00002256   -0.00005867    0.00053776
     atom    3 type  2   force =     0.00008154   -0.00008495    0.00020882
     atom    4 type  1   force =     0.00004523   -0.00005417    0.00064205
     atom    5 type  2   force =     0.00001598    0.00000588    0.00052313
     atom    6 type  2   force =     0.00002148    0.00005156    0.00017870
     atom    7 type  1   force =    -0.00015157    0.00021996    0.00049420
     atom    8 type  2   force =    -0.00007133    0.00007567    0.00043319
     atom    9 type  2   force =    -0.00006976    0.00014630    0.00015332
     atom   10 type  1   force =     0.00008247   -0.00006574    0.00085099
     atom   11 type  2   force =     0.00001749   -0.00005064    0.00041613
     atom   12 type  2   force =     0.00007089   -0.00015573    0.00025290
     atom   13 type  1   force =    -0.00023454    0.00017552    0.00072663
     atom   14 type  2   force =    -0.00000082   -0.00003788    0.00052859
     atom   15 type  2   force =    -0.00003400   -0.00001148    0.00021385
     atom   16 type  1   force =    -0.00005834    0.00019712    0.00069211
     atom   17 type  2   force =    -0.00003686   -0.00001374    0.00040637
     atom   18 type  2   force =    -0.00005742    0.00000224    0.00022514
     atom   19 type  1   force =     0.00030176    0.00018275    0.00050814
     atom   20 type  2   force =     0.00005749    0.00012721    0.00025945
     atom   21 type  1   force =     0.00004530   -0.00049496    0.00065006
     atom   22 type  2   force =     0.00002473   -0.00000827    0.00044944
     atom   23 type  2   force =    -0.00000925   -0.00009550    0.00021102
     atom   24 type  1   force =    -0.00012688   -0.00005970    0.00091989
     atom   25 type  2   force =    -0.00008873   -0.00000021    0.00060385
     atom   26 type  2   force =    -0.00003243    0.00002137    0.00016092
     atom   27 type  1   force =     0.00001242   -0.00023944    0.00059256
     atom   28 type  2   force =    -0.00000315   -0.00008773    0.00050659
     atom   29 type  2   force =     0.00003807    0.00000395    0.00019868
     atom   30 type  1   force =    -0.00013380    0.00038948    0.00046599
     atom   31 type  2   force =     0.00001691    0.00000598    0.00049613
     atom   32 type  2   force =     0.00000542    0.00005471    0.00006442
     atom   33 type  1   force =    -0.00008442   -0.00021878    0.00072398
     atom   34 type  2   force =    -0.00004830    0.00006953    0.00052670
     atom   35 type  2   force =    -0.00007184   -0.00003853    0.00019962
     atom   36 type  3   force =    -0.00001079   -0.00000663    0.00011893

     Total force =     0.102617     Total SCF correction =     0.003193
     Energy error            =      1.7E-02 Ry
     Gradient error          =      4.6E-02 Ry/Bohr

     number of scf cycles    =   2
     number of bfgs steps    =   1

     energy             old  =   -2205.5243589387 Ry
     energy             new  =   -2205.5412834351 Ry

     CASE: energy            _new < energy            _old

     new trust radius        =       0.0711772610 bohr
     new conv_thr            =       0.0000000459 Ry


ATOMIC_POSITIONS (angstrom)
Mo            6.5743537485        1.7801992774        2.8216016344
S             8.2050764464        0.8329566130        4.4913031707
S             8.1784027398        0.8214388749        1.2714623367
Mo            8.1020767357        4.4878219536        2.7163915391
S             6.4946975388        3.7208821684        4.3383934306
S             6.5551010129        3.5217926068        1.1247120466
Mo            6.4866534648        7.2184595818        2.6661634701
S             8.0850376812        6.3386444007        4.2592544986
S             8.0962765121        6.3107488594        1.0949379002
Mo            8.1588286792        9.9063431538        2.8258850602
S             6.4961538211        8.9394329679        4.3777912307
S             6.6168325229        9.0489184853        1.1438047510
Mo            3.4309660455        1.7539121082        2.7718355762
S             4.9827902328        0.8166416321        4.3593009431
S             5.0449968659        0.8474732899        1.2146740875
Mo            4.9818334469        4.5173037614        2.6363677473
S             3.4356828567        3.6742696668        4.2801576535
S             3.4328843323        3.5426162453        1.0752829964
Mo            3.4676981473        7.2166626524        2.6282268338
S             4.9871038542        6.3209649785        1.0365369765
Mo            5.0097404488        9.9114745520        2.7460014123
S             3.4719147148        8.9413566930        4.3243420342
S             3.4070266511        9.0657681458        1.1041894341
Mo            0.2975814523        1.7618810040        2.7959901513
S             1.8681119746        0.8124880479        4.4080723170
S             1.8510633495        0.8536049658        1.2020334563
Mo            1.8559963417        4.4870334794        2.6678317772
S             0.2738773291        3.6560069523        4.3311253399
S             0.2347185666        3.5280451413        1.1660357618
Mo            0.2667785933        7.2244137509        2.6993811401
S             1.9032533349        6.3127482640        4.2378885476
S             1.8508639769        6.3159188623        1.0531280789
Mo            1.8546931011        9.9362277752        2.7675809942
S             0.2995539148        9.0383575954        4.4009424145
S             0.2682442682        9.0530515753        1.1629350019
H            -0.0545176908        1.1794085507        5.3187781275



     Writing config-only to output data dir ./MoS2-V-O.save/
     NEW-OLD atomic charge density approx. for the potential

     negative rho (up, down):  1.452E-04 0.000E+00

     total cpu time spent up to now is     7891.0 secs

     Self-consistent Calculation

     iteration #  1     ecut=    80.00 Ry     beta= 0.70
     Davidson diagonalization with overlap
     c_bands:  1 eigenvalues not converged
     ethr =  1.00E-06,  avg # of iterations = 20.0

     negative rho (up, down):  9.851E-05 0.000E+00

     total cpu time spent up to now is     8589.9 secs

     total energy              =   -2205.55277077 Ry
     estimated scf accuracy    <       0.00124763 Ry

     iteration #  2     ecut=    80.00 Ry     beta= 0.70
     Davidson diagonalization with overlap
     ethr =  4.06E-07,  avg # of iterations =  3.0

     negative rho (up, down):  8.245E-05 0.000E+00

     total cpu time spent up to now is     9948.7 secs

     total energy              =   -2205.55283044 Ry
     estimated scf accuracy    <       0.00022367 Ry

     iteration #  3     ecut=    80.00 Ry     beta= 0.70
     Davidson diagonalization with overlap
     ethr =  7.29E-08,  avg # of iterations =  5.0

     negative rho (up, down):  6.747E-05 0.000E+00

     total cpu time spent up to now is    11132.8 secs

     total energy              =   -2205.55284903 Ry
     estimated scf accuracy    <       0.00005916 Ry

     iteration #  4     ecut=    80.00 Ry     beta= 0.70
     Davidson diagonalization with overlap
     ethr =  1.93E-08,  avg # of iterations =  3.0

     negative rho (up, down):  6.423E-05 0.000E+00

     total cpu time spent up to now is    12281.9 secs

     total energy              =   -2205.55285782 Ry
     estimated scf accuracy    <       0.00000459 Ry

     iteration #  5     ecut=    80.00 Ry     beta= 0.70
     Davidson diagonalization with overlap
     ethr =  1.49E-09,  avg # of iterations =  8.0

     negative rho (up, down):  6.594E-05 0.000E+00

     total cpu time spent up to now is    13086.6 secs

     total energy              =   -2205.55285969 Ry
     estimated scf accuracy    <       0.00000182 Ry

     iteration #  6     ecut=    80.00 Ry     beta= 0.70
     Davidson diagonalization with overlap
     ethr =  5.93E-10,  avg # of iterations =  3.0

     negative rho (up, down):  7.216E-05 0.000E+00

     total cpu time spent up to now is    13916.5 secs

     total energy              =   -2205.55285977 Ry
     estimated scf accuracy    <       0.00000036 Ry

     iteration #  7     ecut=    80.00 Ry     beta= 0.70
     Davidson diagonalization with overlap
     ethr =  1.18E-10,  avg # of iterations =  5.0

     negative rho (up, down):  7.878E-05 0.000E+00

     total cpu time spent up to now is    14440.3 secs

     total energy              =   -2205.55285979 Ry
     estimated scf accuracy    <       0.00000011 Ry

     iteration #  8     ecut=    80.00 Ry     beta= 0.70
     Davidson diagonalization with overlap
     ethr =  3.65E-11,  avg # of iterations =  4.0

     negative rho (up, down):  9.706E-05 0.000E+00

     total cpu time spent up to now is    15065.1 secs

     total energy              =   -2205.55285970 Ry
     estimated scf accuracy    <       0.00000005 Ry

     iteration #  9     ecut=    80.00 Ry     beta= 0.70
     Davidson diagonalization with overlap
     ethr =  1.79E-11,  avg # of iterations =  3.0

     negative rho (up, down):  1.378E-04 0.000E+00

     total cpu time spent up to now is    15089.9 secs

     End of self-consistent calculation

          k = 0.0000 0.0000 0.0000 (105382 PWs)   bands (ev):

   -62.8589 -62.8406 -62.8323 -62.8208 -62.8171 -62.8067 -62.8021 -62.7977
   -62.7564 -62.6593 -62.6384 -62.5950 -37.1833 -37.1282 -37.1095 -37.1024
   -37.0959 -37.0895 -37.0619 -37.0480 -37.0363 -37.0314 -37.0190 -37.0130
   -37.0016 -36.9932 -36.9907 -36.9855 -36.9787 -36.9756 -36.9713 -36.9606
   -36.9283 -36.9170 -36.8909 -36.8605 -36.8566 -36.8507 -36.8402 -36.8214
   -36.8122 -36.8076 -36.8002 -36.7845 -36.7792 -36.7291 -36.6138 -36.6014
   -16.1020 -15.4928 -15.1598 -15.0251 -14.9277 -14.8096 -14.6281 -14.4656
   -14.4338 -14.4037 -14.3839 -14.3386 -14.3194 -14.2451 -14.1298 -14.1232
   -14.0745 -14.0643 -13.9923 -13.9188 -13.7995 -13.7822 -13.7556  -8.6366
    -7.6324  -7.4335  -7.2564  -7.2436  -7.2270  -7.1756  -7.1030  -6.9892
    -6.8040  -6.7692  -6.6954  -6.6492  -6.5768  -6.4657  -6.4383  -6.4061
    -6.3278  -6.2115  -6.1518  -5.9231  -5.8971  -5.8351  -5.8124  -5.7786
    -5.7500  -5.7182  -5.6277  -5.6203  -5.5914  -5.5281  -5.4865  -5.4620
    -5.4007  -5.2901  -5.1919  -5.1054  -5.0568  -5.0136  -4.9393  -4.9243
    -4.9126  -4.7963  -4.6195  -4.5001  -4.3868  -4.2850  -4.2682  -4.2321
    -4.2069  -4.0211  -4.0001  -3.8567  -3.7991  -3.7393  -3.6959  -3.6745
    -3.6370  -3.5543  -3.5275  -3.5015  -3.4782  -3.4586  -3.4103  -3.3475
    -3.3259  -3.1685  -3.1269  -2.8874  -2.8674  -2.7513  -2.7274  -2.6902
    -2.6804  -2.6792  -2.6454  -2.5529  -2.5068  -2.2193  -1.9772  -1.9648
    -1.9320  -0.8616  -0.6352  -0.5235  -0.1295  -0.0955  -0.0769   0.0013
     0.0339   0.1430   0.2205   0.2306   0.2984   0.3210   0.3672   0.4853
     0.5240   0.5804   0.5861   0.6205   0.6595   0.7139   0.7334   0.7823
     0.8008   0.8556   0.8892   0.9388   0.9491   1.0182   1.0482   1.3685
     1.3972

     the Fermi energy is    -0.8638 ev

!    total energy              =   -2205.55285956 Ry
     estimated scf accuracy    <       0.00000002 Ry
     smearing contrib. (-TS)   =      -0.00598629 Ry
     internal energy E=F+TS    =   -2205.54687327 Ry

     The total energy is F=E-TS. E is the sum of the following terms:
     one-electron contribution =  -18045.31979848 Ry
     hartree contribution      =    9009.77230197 Ry
     xc contribution           =    -385.30158250 Ry
     ewald contribution        =    7215.30220574 Ry

     convergence has been achieved in   9 iterations

     negative rho (up, down):  1.378E-04 0.000E+00

     Forces acting on atoms (cartesian axes, Ry/au):

     atom    1 type  1   force =    -0.00224362   -0.00050028   -0.00166599
     atom    2 type  2   force =     0.01466897    0.00760908    0.02302930
     atom    3 type  2   force =    -0.01186962    0.00560346   -0.00862593
     atom    4 type  1   force =     0.00433367   -0.00147284    0.00195733
     atom    5 type  2   force =    -0.00163191   -0.00194255   -0.00480419
     atom    6 type  2   force =     0.00010240    0.00457931    0.00226190
     atom    7 type  1   force =     0.00122794   -0.00126968    0.00152808
     atom    8 type  2   force =     0.00046667   -0.00408889    0.00601373
     atom    9 type  2   force =     0.00875363    0.00333500    0.00584095
     atom   10 type  1   force =     0.00259627    0.00656520    0.00515904
     atom   11 type  2   force =     0.00149981   -0.00092154   -0.00547496
     atom   12 type  2   force =    -0.00190220    0.00126227    0.00004970
     atom   13 type  1   force =     0.00357268    0.00006417    0.00119501
     atom   14 type  2   force =     0.00522355    0.00137122    0.00344603
     atom   15 type  2   force =    -0.00587358    0.00156115   -0.00765527
     atom   16 type  1   force =     0.00077575    0.00407913    0.00016724
     atom   17 type  2   force =     0.00468965    0.00103280    0.00181829
     atom   18 type  2   force =    -0.00234167   -0.00153451    0.00888980
     atom   19 type  1   force =     0.00443894   -0.00201055    0.00274963
     atom   20 type  2   force =     0.00304475   -0.00371394   -0.00355251
     atom   21 type  1   force =     0.00009734    0.00499680    0.00182886
     atom   22 type  2   force =     0.00222866   -0.00090390   -0.00051427
     atom   23 type  2   force =     0.00074691    0.00010959    0.00261874
     atom   24 type  1   force =     0.00103974    0.00278346   -0.00455412
     atom   25 type  2   force =     0.00919031    0.01250959   -0.00840689
     atom   26 type  2   force =     0.00039324   -0.00151685   -0.00840804
     atom   27 type  1   force =    -0.00202680   -0.00016159    0.00576879
     atom   28 type  2   force =     0.00108954   -0.00275503   -0.00718476
     atom   29 type  2   force =     0.00277166    0.00566087   -0.01193634
     atom   30 type  1   force =    -0.00016470   -0.00188337    0.00474194
     atom   31 type  2   force =     0.00224466   -0.00017452    0.00469055
     atom   32 type  2   force =    -0.00551104    0.00274833    0.00700383
     atom   33 type  1   force =     0.00017015    0.00096289    0.00442272
     atom   34 type  2   force =     0.00108767   -0.02572632   -0.01273166
     atom   35 type  2   force =    -0.00400492    0.00681578    0.00330663
     atom   36 type  3   force =    -0.03888449   -0.02307378   -0.01297315
     The non-local contrib.  to forces
     atom    1 type  1   force =     0.00225598    0.02333899   -0.01633664
     atom    2 type  2   force =     0.25013280    0.06431110   -0.03662072
     atom    3 type  2   force =    -0.01075254   -0.00685815    0.27102084
     atom    4 type  1   force =    -0.00039032    0.01188893    0.00200755
     atom    5 type  2   force =     0.00739225   -0.03001532   -0.24864213
     atom    6 type  2   force =    -0.00738813   -0.00057153    0.26577463
     atom    7 type  1   force =    -0.03172009   -0.01564158   -0.01652582
     atom    8 type  2   force =     0.00225370   -0.00559732   -0.26110509
     atom    9 type  2   force =     0.00560442   -0.01548085    0.27399793
     atom   10 type  1   force =     0.00413598    0.00020113   -0.01418247
     atom   11 type  2   force =     0.00712821    0.00918913   -0.25860459
     atom   12 type  2   force =    -0.01189053   -0.01510582    0.26143499
     atom   13 type  1   force =     0.00073405    0.02343979   -0.01026491
     atom   14 type  2   force =     0.00269363   -0.01100636   -0.25531520
     atom   15 type  2   force =    -0.00784187    0.00012558    0.26194506
     atom   16 type  1   force =    -0.00437803    0.04071475   -0.03259691
     atom   17 type  2   force =    -0.00009813   -0.02821783   -0.24814748
     atom   18 type  2   force =    -0.00075874   -0.00343236    0.27012378
     atom   19 type  1   force =     0.02626491   -0.01287347   -0.01385863
     atom   20 type  2   force =    -0.00009318   -0.01942639    0.26198665
     atom   21 type  1   force =    -0.00312301    0.01402733    0.00639643
     atom   22 type  2   force =    -0.00264287    0.00825267   -0.25804493
     atom   23 type  2   force =     0.00838686   -0.01348405    0.26508531
     atom   24 type  1   force =     0.00739125    0.02816283   -0.00450452
     atom   25 type  2   force =    -0.01257046    0.00424080   -0.22312517
     atom   26 type  2   force =     0.00531471   -0.01220802    0.26463182
     atom   27 type  1   force =     0.00165106    0.01213954    0.00485575
     atom   28 type  2   force =     0.00006945   -0.02309353   -0.25773526
     atom   29 type  2   force =     0.00667025    0.00019169    0.25960302
     atom   30 type  1   force =     0.00170363    0.01316855    0.00537618
     atom   31 type  2   force =    -0.00636703   -0.00041707   -0.26111950
     atom   32 type  2   force =    -0.00266716   -0.01567670    0.27404122
     atom   33 type  1   force =    -0.00156585    0.00359664    0.00195012
     atom   34 type  2   force =    -0.00278691   -0.01397748   -0.27772204
     atom   35 type  2   force =    -0.00355113   -0.00958369    0.26701646
     atom   36 type  3   force =    -0.03169189   -0.01103340   -0.02414482
     The ionic contribution  to forces
     atom    1 type  1   force =     0.32501595    0.13218528    5.68853649
     atom    2 type  2   force =    -1.61245100   -0.09073369   38.73611109
     atom    3 type  2   force =    -0.29994065   -0.12791039  -36.20744535
     atom    4 type  1   force =    -0.19189776    1.03593711    0.66959921
     atom    5 type  2   force =    -0.99273094    1.57383689   38.64163125
     atom    6 type  2   force =     0.25242290   -0.46518379  -37.97590199
     atom    7 type  1   force =    -2.43822126   -2.81361015    2.45068138
     atom    8 type  2   force =    -1.08061714    0.05667961   37.49291042
     atom    9 type  2   force =     0.26062242   -0.06312893  -37.86470805
     atom   10 type  1   force =    -1.07091039   -0.10505520    5.28666436
     atom   11 type  2   force =    -0.51716686   -1.61978564   39.04716711
     atom   12 type  2   force =     0.33933919    0.64338477  -37.81354537
     atom   13 type  1   force =     0.49720372    0.73007458    2.73513491
     atom   14 type  2   force =     0.02888764   -0.03278946   38.63829951
     atom   15 type  2   force =     0.20364437   -0.08461254  -36.97601592
     atom   16 type  1   force =    -0.03138225    4.07834390    0.64547131
[...]
     atom   23 type  2   force =     0.00705887   -0.01109033    0.26207327
     atom   24 type  1   force =     0.01646950    0.02540490   -0.01002672
     atom   25 type  2   force =    -0.00592422   -0.00342761   -0.25655264
     atom   26 type  2   force =     0.00224405   -0.00817091    0.26609931
     atom   27 type  1   force =     0.00320309    0.01713963    0.00286515
     atom   28 type  2   force =    -0.00171787   -0.02597479   -0.26053108
     atom   29 type  2   force =    -0.00009956   -0.01186633    0.26614248
     atom   30 type  1   force =     0.00666714    0.01133381    0.00479185
     atom   31 type  2   force =    -0.01276164   -0.00363448   -0.26329057
     atom   32 type  2   force =     0.00299957   -0.01074837    0.26719115
     atom   33 type  1   force =     0.00326138    0.00056690    0.00293437
     atom   34 type  2   force =    -0.00759674    0.00145951   -0.26255805
     atom   35 type  2   force =    -0.00270580   -0.01363276    0.26755128
     atom   36 type  3   force =    -0.00534970   -0.00102719   -0.06233754
     The ionic contribution  to forces
     atom    1 type  1   force =     0.44477293    0.07302871    3.69478747
     atom    2 type  2   force =    -0.30967412   -0.15123832   35.85400907
     atom    3 type  2   force =    -0.00613585   -0.11068381  -36.56512452
     atom    4 type  1   force =    -0.23309908    0.53715708    0.99437019
     atom    5 type  2   force =    -0.81571457    1.39531602   38.78034107
     atom    6 type  2   force =     0.33221580   -0.38513150  -38.12835855
     atom    7 type  1   force =    -2.68651067   -1.94896633    2.52496967
     atom    8 type  2   force =    -1.15481367    0.28457634   38.05745150
     atom    9 type  2   force =     0.22161201    0.03115971  -37.77648131
     atom   10 type  1   force =    -0.56453510    0.05785747    2.76311225
     atom   11 type  2   force =    -0.55694153   -1.45768923   38.52251591
     atom   12 type  2   force =     0.19041233    0.41554667  -37.94364308
     atom   13 type  1   force =     0.11126016    0.67768334    3.16084723
     atom   14 type  2   force =     0.05693276   -0.28481757   38.82679685
     atom   15 type  2   force =     0.18928877   -0.16214444  -37.45253445
     atom   16 type  1   force =    -0.54161432    4.06700097    1.49151251
     atom   17 type  2   force =     0.86192626    1.42540223   38.39338363
     atom   18 type  2   force =    -0.10674551   -0.27601306  -37.88921566
     atom   19 type  1   force =     2.77633504   -2.48050022    0.89311026
     atom   20 type  2   force =    -0.01586711   -0.09339525  -38.63570275
     atom   21 type  1   force =     0.52679045   -0.32323278    0.77638381
     atom   22 type  2   force =     0.46224254   -1.56243795   38.54482499
     atom   23 type  2   force =    -0.13441210    0.39650327  -38.26792298
     atom   24 type  1   force =    -0.59133050   -0.06661253    2.32174623
     atom   25 type  2   force =     0.18356103   -0.13262379   39.01166927
     atom   26 type  2   force =    -0.18382322   -0.09989904  -37.58001567
     atom   27 type  1   force =     0.55640901    0.88459207    1.20979926
     atom   28 type  2   force =    -0.00415499    0.63916848   38.50550962
     atom   29 type  2   force =    -0.12931937   -0.17446225  -37.76567242
     atom   30 type  1   force =    -0.16120702   -0.77242574    1.29603744
     atom   31 type  2   force =     1.38881382    0.17101750   38.05198794
     atom   32 type  2   force =    -0.23432811   -0.10660752  -38.00783923
     atom   33 type  1   force =     0.09459983   -0.35824044    2.49967212
     atom   34 type  2   force =     0.05279452   -0.49272796   38.82241575
     atom   35 type  2   force =    -0.09210281    0.36050711  -37.69952470
     atom   36 type  3   force =     0.07236240    0.02333276    8.71478126
     The local contribution  to forces
     atom    1 type  1   force =    -0.42798795   -0.10481723   -3.68056132
     atom    2 type  2   force =     0.28774896    0.13902089  -36.10970329
     atom    3 type  2   force =     0.00768650    0.12285818   36.29895550
     atom    4 type  1   force =     0.23516591   -0.55098440   -0.99763567
     atom    5 type  2   force =     0.80878503   -1.36299171  -38.55282598
     atom    6 type  2   force =    -0.33285712    0.38995497   37.88697017
     atom    7 type  1   force =     2.72717966    1.96215816   -2.50347145
     atom    8 type  2   force =     1.14751560   -0.28218317  -37.81238170
     atom    9 type  2   force =    -0.21936601   -0.01417109   37.52874773
     atom   10 type  1   force =     0.56364279   -0.03787866   -2.75074823
     atom   11 type  2   force =     0.54719295    1.44894285  -38.28826655
     atom   12 type  2   force =    -0.18280110   -0.40234885   37.69964908
     atom   13 type  1   force =    -0.11037720   -0.70705982   -3.15330450
     atom   14 type  2   force =    -0.06361495    0.28662618  -38.59146204
     atom   15 type  2   force =    -0.18803416    0.16736744   37.21131438
     atom   16 type  1   force =     0.55194234   -4.12561909   -1.46881356
     atom   17 type  2   force =    -0.85487216   -1.40029943  -38.16002965
     atom   18 type  2   force =     0.10640945    0.28141071   37.64515050
     atom   19 type  1   force =    -2.80542520    2.48895939   -0.88577250
     atom   20 type  2   force =     0.01653015    0.10531749   38.39525239
     atom   21 type  1   force =    -0.52171292    0.31048884   -0.77928820
     atom   22 type  2   force =    -0.45533509    1.55272715  -38.30892898
     atom   23 type  2   force =     0.12927983   -0.38724944   38.02689589
     atom   24 type  1   force =     0.57602004    0.04158335   -2.31113314
     atom   25 type  2   force =    -0.17742103    0.13689129  -38.77596318
     atom   26 type  2   force =     0.18111335    0.10803426   37.33444140
     atom   27 type  1   force =    -0.55983628   -0.90153487   -1.21311525
     atom   28 type  2   force =     0.00555889   -0.61482297  -38.26589633
     atom   29 type  2   force =     0.12871341    0.18396529   37.52021644
     atom   30 type  1   force =     0.15354767    0.76102852   -1.29971749
     atom   31 type  2   force =    -1.37732815   -0.16842969  -37.80822331
     atom   32 type  2   force =     0.23040352    0.11771082   37.76058909
     atom   33 type  1   force =    -0.09810695    0.35799699   -2.50279340
     atom   34 type  2   force =    -0.04608248    0.49276301  -38.58065429
     atom   35 type  2   force =     0.09323918   -0.34666462   37.45434896
     atom   36 type  3   force =    -0.06884915   -0.02045609   -8.65338934
     The core correction contribution to forces
     atom    1 type  1   force =     0.00000000    0.00000000    0.00000000
     atom    2 type  2   force =    -0.00171171   -0.00084919   -0.01103789
     atom    3 type  2   force =    -0.00004458    0.00055456   -0.02157749
     atom    4 type  1   force =     0.00000000    0.00000000    0.00000000
     atom    5 type  2   force =    -0.00066946    0.00209147    0.01991189
     atom    6 type  2   force =     0.00025324   -0.00012869   -0.02077418
     atom    7 type  1   force =     0.00000000    0.00000000    0.00000000
     atom    8 type  2   force =    -0.00032309    0.00049911    0.02060566
     atom    9 type  2   force =     0.00030167    0.00090884   -0.02074032
     atom   10 type  1   force =     0.00000000    0.00000000    0.00000000
     atom   11 type  2   force =    -0.00070203   -0.00091849    0.02009174
     atom   12 type  2   force =     0.00044416    0.00087707   -0.02086009
     atom   13 type  1   force =     0.00000000    0.00000000    0.00000000
     atom   14 type  2   force =    -0.00067682   -0.00051776    0.02031290
     atom   15 type  2   force =     0.00012343    0.00032381   -0.02063184
     atom   16 type  1   force =     0.00000000    0.00000000    0.00000000
     atom   17 type  2   force =     0.00066409    0.00145453    0.02018028
     atom   18 type  2   force =    -0.00007393   -0.00008384   -0.02072003
     atom   19 type  1   force =     0.00000000    0.00000000    0.00000000
     atom   20 type  2   force =    -0.00001881    0.00041041   -0.02107284
     atom   21 type  1   force =     0.00000000    0.00000000    0.00000000
     atom   22 type  2   force =     0.00022870   -0.00088246    0.02033930
     atom   23 type  2   force =    -0.00056708    0.00078230   -0.02075089
     atom   24 type  1   force =     0.00000000    0.00000000    0.00000000
     atom   25 type  2   force =     0.00060577   -0.00001832    0.02025365
     atom   26 type  2   force =    -0.00003739    0.00033764   -0.02098456
     atom   27 type  1   force =     0.00000000    0.00000000    0.00000000
     atom   28 type  2   force =     0.00018977    0.00179048    0.02042821
     atom   29 type  2   force =     0.00000710    0.00052205   -0.02085667
     atom   30 type  1   force =     0.00000000    0.00000000    0.00000000
     atom   31 type  2   force =     0.00089617    0.00043330    0.02066277
     atom   32 type  2   force =    -0.00024773    0.00045704   -0.02082814
     atom   33 type  1   force =     0.00000000    0.00000000    0.00000000
     atom   34 type  2   force =     0.00062940   -0.00046699    0.02060481
     atom   35 type  2   force =     0.00023431    0.00084357   -0.02100915
     atom   36 type  3   force =     0.00000000    0.00000000    0.00000000
     The Hubbard contrib.    to forces
     atom    1 type  1   force =     0.00000000    0.00000000    0.00000000
     atom    2 type  2   force =     0.00000000    0.00000000    0.00000000
     atom    3 type  2   force =     0.00000000    0.00000000    0.00000000
     atom    4 type  1   force =     0.00000000    0.00000000    0.00000000
     atom    5 type  2   force =     0.00000000    0.00000000    0.00000000
     atom    6 type  2   force =     0.00000000    0.00000000    0.00000000
     atom    7 type  1   force =     0.00000000    0.00000000    0.00000000
     atom    8 type  2   force =     0.00000000    0.00000000    0.00000000
     atom    9 type  2   force =     0.00000000    0.00000000    0.00000000
     atom   10 type  1   force =     0.00000000    0.00000000    0.00000000
     atom   11 type  2   force =     0.00000000    0.00000000    0.00000000
     atom   12 type  2   force =     0.00000000    0.00000000    0.00000000
     atom   13 type  1   force =     0.00000000    0.00000000    0.00000000
     atom   14 type  2   force =     0.00000000    0.00000000    0.00000000
     atom   15 type  2   force =     0.00000000    0.00000000    0.00000000
     atom   16 type  1   force =     0.00000000    0.00000000    0.00000000
     atom   17 type  2   force =     0.00000000    0.00000000    0.00000000
     atom   18 type  2   force =     0.00000000    0.00000000    0.00000000
     atom   19 type  1   force =     0.00000000    0.00000000    0.00000000
     atom   20 type  2   force =     0.00000000    0.00000000    0.00000000
     atom   21 type  1   force =     0.00000000    0.00000000    0.00000000
     atom   22 type  2   force =     0.00000000    0.00000000    0.00000000
     atom   23 type  2   force =     0.00000000    0.00000000    0.00000000
     atom   24 type  1   force =     0.00000000    0.00000000    0.00000000
     atom   25 type  2   force =     0.00000000    0.00000000    0.00000000
     atom   26 type  2   force =     0.00000000    0.00000000    0.00000000
     atom   27 type  1   force =     0.00000000    0.00000000    0.00000000
     atom   28 type  2   force =     0.00000000    0.00000000    0.00000000
     atom   29 type  2   force =     0.00000000    0.00000000    0.00000000
     atom   30 type  1   force =     0.00000000    0.00000000    0.00000000
     atom   31 type  2   force =     0.00000000    0.00000000    0.00000000
     atom   32 type  2   force =     0.00000000    0.00000000    0.00000000
     atom   33 type  1   force =     0.00000000    0.00000000    0.00000000
     atom   34 type  2   force =     0.00000000    0.00000000    0.00000000
     atom   35 type  2   force =     0.00000000    0.00000000    0.00000000
     atom   36 type  3   force =     0.00000000    0.00000000    0.00000000
     The SCF correction term to forces
     atom    1 type  1   force =    -0.00001063    0.00000949   -0.00002839
     atom    2 type  2   force =    -0.00000278   -0.00000144   -0.00000883
     atom    3 type  2   force =    -0.00001828    0.00000991    0.00001314
     atom    4 type  1   force =    -0.00003375   -0.00001725   -0.00001829
     atom    5 type  2   force =    -0.00000807    0.00000489    0.00001019
     atom    6 type  2   force =     0.00000816   -0.00000031    0.00001779
     atom    7 type  1   force =    -0.00002102    0.00001814   -0.00002344
     atom    8 type  2   force =    -0.00002497   -0.00000323   -0.00000728
     atom    9 type  2   force =     0.00000010    0.00000764   -0.00001270
     atom   10 type  1   force =    -0.00002358    0.00001113   -0.00001641
     atom   11 type  2   force =    -0.00001862    0.00000017   -0.00002325
     atom   12 type  2   force =    -0.00001911   -0.00001053   -0.00001652
     atom   13 type  1   force =     0.00001816    0.00001201   -0.00000328
     atom   14 type  2   force =     0.00000615    0.00002434    0.00000336
     atom   15 type  2   force =     0.00001105    0.00000970    0.00000812
     atom   16 type  1   force =    -0.00000133   -0.00001667    0.00001855
     atom   17 type  2   force =     0.00001458   -0.00000053   -0.00000289
     atom   18 type  2   force =    -0.00000538    0.00000736    0.00000214
     atom   19 type  1   force =     0.00005742    0.00001539   -0.00005424
     atom   20 type  2   force =    -0.00001746    0.00003386   -0.00001577
     atom   21 type  1   force =     0.00001269   -0.00004020   -0.00001429
     atom   22 type  2   force =     0.00002571   -0.00000517   -0.00003430
     atom   23 type  2   force =     0.00001121   -0.00001931   -0.00001268
     atom   24 type  1   force =    -0.00001612    0.00002419    0.00000938
     atom   25 type  2   force =     0.00000844    0.00001781   -0.00001386
     atom   26 type  2   force =     0.00001414    0.00000059   -0.00000203
     atom   27 type  1   force =     0.00001899   -0.00001650   -0.00002997
     atom   28 type  2   force =    -0.00000521   -0.00001378    0.00000385
     atom   29 type  2   force =    -0.00000007    0.00000977   -0.00000123
     atom   30 type  1   force =     0.00001581   -0.00000118   -0.00006290
     atom   31 type  2   force =     0.00000062    0.00000108   -0.00002900
     atom   32 type  2   force =    -0.00000988    0.00001051   -0.00001325
     atom   33 type  1   force =     0.00001598   -0.00000651   -0.00004728
     atom   34 type  2   force =    -0.00000212   -0.00001044   -0.00002328
     atom   35 type  2   force =     0.00000359   -0.00002209   -0.00001622
     atom   36 type  3   force =    -0.00000189    0.00000315   -0.00000141

     Total force =     0.009912     Total SCF correction =     0.000192
     Energy error            =      3.3E-04 Ry
     Gradient error          =      3.1E-03 Ry/Bohr

     number of scf cycles    =  39
     number of bfgs steps    =  38

     energy             old  =   -2205.5900821409 Ry
     energy             new  =   -2205.5904147483 Ry

     CASE: energy            _new < energy            _old

     new trust radius        =       0.1126076007 bohr
     new conv_thr            =       0.0000000100 Ry


ATOMIC_POSITIONS (angstrom)
Mo            6.5579017407        1.8015119814        2.7783202062
S             8.1577248211        0.8507635562        4.2755733493
S             8.1647356482        0.8475707835        1.2152171234
Mo            8.1685542843        4.4896711753        2.7173331787
S             6.5566909616        3.7044887883        4.3357084308
S             6.5973305498        3.5670792178        1.1101611747
Mo            6.5535635434        7.1696203975        2.6687753401
S             8.1420468214        6.3087848300        4.2958974340
S             8.1861550341        6.3158406860        1.1110315199
Mo            8.1681532050        9.8931134477        2.7734452111
S             6.5342635299        8.9223817389        4.3268464635
S             6.6209547081        9.0287887603        1.1264011391
Mo            3.4538053767        1.7691929826        2.7717051300
S             5.0078889232        0.8236944785        4.3535133617
S             5.0223060140        0.8655673399        1.1783028870
Mo            5.0483782497        4.5381451915        2.6541427424
S             3.5081885075        3.6813273941        4.3146260503
S             3.4571384767        3.5731082030        1.1188656944
Mo            3.5026977504        7.2324052539        2.6375583081
S             5.0294637669        6.3163064933        1.0377051261
Mo            5.0246651163        9.9252653915        2.7261828028
S             3.4968721484        8.9722936256        4.3205292361
S             3.4282944544        9.0755230347        1.1082590846
Mo            0.3258081720        1.7786947401        2.7750155136
S             1.8876227650        0.8565001726        4.3777854406
S             1.8787304641        0.8629275360        1.1774492276
Mo            1.9032264967        4.5054995201        2.7212224656
S             0.3135560895        3.6365018368        4.3300186723
S             0.3134578816        3.5753470688        1.1455306908
Mo            0.3201138553        7.2205501727        2.7241876408
S             1.9692407324        6.3301225982        4.2911918625
S             1.8925632834        6.3208433771        1.0990434081
Mo            1.8783869223        9.9539028801        2.7622125316
S             0.3115198036        9.0085548781        4.3568904670
S             0.3006807654        9.0521273127        1.1599605911
H            -1.2103338510        0.9212517878        5.6437303659



     Writing config-only to output data dir ./MoS2-V-O.save/
     NEW-OLD atomic charge density approx. for the potential

     negative rho (up, down):  1.389E-04 0.000E+00

     total cpu time spent up to now is   253382.9 secs

     Self-consistent Calculation

     iteration #  1     ecut=    80.00 Ry     beta= 0.70
     Davidson diagonalization with overlap
     ethr =  1.00E-06,  avg # of iterations =  6.0

     negative rho (up, down):  1.431E-04 0.000E+00

     total cpu time spent up to now is   254317.1 secs

     total energy              =   -2205.59059604 Ry
     estimated scf accuracy    <       0.00066747 Ry

     iteration #  2     ecut=    80.00 Ry     beta= 0.70
     Davidson diagonalization with overlap
     ethr =  2.17E-07,  avg # of iterations =  2.0

     negative rho (up, down):  1.446E-04 0.000E+00

     total cpu time spent up to now is   255045.8 secs

     total energy              =   -2205.59066013 Ry
     estimated scf accuracy    <       0.00020972 Ry

     iteration #  3     ecut=    80.00 Ry     beta= 0.70
     Davidson diagonalization with overlap
     ethr =  6.83E-08,  avg # of iterations =  2.0

     negative rho (up, down):  1.477E-04 0.000E+00

     total cpu time spent up to now is   256246.3 secs

     total energy              =   -2205.59067996 Ry
     estimated scf accuracy    <       0.00003912 Ry

     iteration #  4     ecut=    80.00 Ry     beta= 0.70
     Davidson diagonalization with overlap
     ethr =  1.27E-08,  avg # of iterations =  6.0

     negative rho (up, down):  1.473E-04 0.000E+00

     total cpu time spent up to now is   257878.3 secs

     total energy              =   -2205.59068747 Ry
     estimated scf accuracy    <       0.00000312 Ry

     iteration #  5     ecut=    80.00 Ry     beta= 0.70
     Davidson diagonalization with overlap
     ethr =  1.01E-09,  avg # of iterations =  5.0
srun: Job step aborted: Waiting up to 32 seconds for job step to finish.
slurmstepd: error: *** STEP 653856.0 ON cpu129 CANCELLED AT 2023-11-06T19:53:02 DUE TO TIME LIMIT ***
