
     Program PWSCF v.7.2 starts on  3Nov2023 at 23:46:27 

     This program is part of the open-source Quantum ESPRESSO suite
     for quantum simulation of materials; please cite
         "P. Giannozzi et al., J. Phys.:Condens. Matter 21 395502 (2009);
         "P. Giannozzi et al., J. Phys.:Condens. Matter 29 465901 (2017);
         "P. Giannozzi et al., J. Chem. Phys. 152 154105 (2020);
          URL http://www.quantum-espresso.org", 
     in publications or presentations arising from this work. More details at
     http://www.quantum-espresso.org/quote

     Parallel version (MPI & OpenMP), running on      48 processor cores
     Number of MPI processes:                48
     Threads/MPI process:                     1

     MPI processes distributed on     1 nodes
     110513 MiB available memory on the printing compute node when the environment starts
 
     Waiting for input...
     Reading input from standard input
Warning: card &CELL ignored
Warning: card CELL_DYNAMICS = 'BFGS', ignored
Warning: card CELL_DOFREE = '2DXY' ignored
Warning: card / ignored

     Current dimensions of program PWSCF are:
     Max number of different atomic species (ntypx) = 10
     Max number of k-points (npk) =  40000
     Max angular momentum in pseudopotentials (lmaxx) =  4

     IMPORTANT: XC functional enforced from input :
     Exchange-correlation= RVV10
                           (   1   4  13   4  26   0   0)
     Any further DFT definition will be discarded
     Please, verify this is what you really want


     gamma-point specific algorithms are used
     signal trapping enabled: kill the code with -SIGUSR1 to stop cleanly the simulation 
 
     R & G space division:  proc/nbgrp/npool/nimage =      48
     Subspace diagonalization in iterative solution of the eigenvalue problem:
     one sub-group per band group will be used
     scalapack distributed-memory algorithm (size of sub-group:  2*  2 procs)

 
     Parallelization info
     --------------------
     sticks:   dense  smooth     PW     G-vecs:    dense   smooth      PW
     Min         243     194     47                49060    35090    4376
     Max         246     196     50                49086    35128    4410
     Sum       11735    9389   2349              2355467  1685513  210763
 
     Using Slab Decomposition
 


     bravais-lattice index     =            0
     lattice parameter (alat)  =      17.8707  a.u.
     unit-cell volume          =   17436.2743 (a.u.)^3
     number of atoms/cell      =           36
     number of atomic types    =            3
     number of electrons       =       307.00
     number of Kohn-Sham states=          185
     kinetic-energy cutoff     =      80.0000  Ry
     charge density cutoff     =     400.0000  Ry
     scf convergence threshold =      1.0E-06
     mixing beta               =       0.7000
     number of iterations used =            8  local-TF  mixing
     energy convergence thresh.=      1.0E-04
     force convergence thresh. =      1.0E-02
     Exchange-correlation= RVV10
                           (   1   4  13   4  26   0   0)
     nstep                     =          200


     celldm(1)=  17.870686  celldm(2)=   0.000000  celldm(3)=   0.000000
     celldm(4)=   0.000000  celldm(5)=   0.000000  celldm(6)=   0.000000

     crystal axes: (cart. coord. in units of alat)
               a(1) = (   1.000000   0.000000   0.000000 )  
               a(2) = (   0.000000   1.155671   0.000000 )  
               a(3) = (   0.000000   0.000000   2.643601 )  

     reciprocal axes: (cart. coord. in units 2 pi/alat)
               b(1) = (  1.000000  0.000000  0.000000 )  
               b(2) = (  0.000000  0.865298  0.000000 )  
               b(3) = (  0.000000  0.000000  0.378272 )  


     PseudoPot. # 1 for Mo read from file:
     ../pseudo/Mo_ONCV_PBE-1.0.oncvpsp.upf
     MD5 check sum: 1b5d28e075c9ccadda658a603575cd1f
     Pseudo is Norm-conserving, Zval = 14.0
     Generated using ONCVPSP code by D. R. Hamann
     Using radial grid of 1526 points,  6 beta functions with: 
                l(1) =   0
                l(2) =   0
                l(3) =   1
                l(4) =   1
                l(5) =   2
                l(6) =   2

     PseudoPot. # 2 for S  read from file:
     ../pseudo/s_pbe_v1.4.uspp.F.UPF
     MD5 check sum: 88d86576ff6df21479756cfb9bdac1df
     Pseudo is Ultrasoft + core correction, Zval =  6.0
     Generated by new atomic code, or converted to UPF format
     Using radial grid of  907 points,  6 beta functions with: 
                l(1) =   0
                l(2) =   0
                l(3) =   1
                l(4) =   1
                l(5) =   2
                l(6) =   2
     Q(r) pseudized with  8 coefficients,  rinner =    1.300   1.300   1.300
                                                       1.300   1.300

     PseudoPot. # 3 for H  read from file:
     ../pseudo/H_ONCV_PBE-1.0.oncvpsp.upf
     MD5 check sum: 1790becc920ee074925cf490c71280fe
     Pseudo is Norm-conserving, Zval =  1.0
     Generated using ONCVPSP code by D. R. Hamann
     Using radial grid of 1166 points,  2 beta functions with: 
                l(1) =   0
                l(2) =   0

     atomic species   valence    mass     pseudopotential
        Mo            14.00    95.94000     Mo( 1.00)
        S              6.00    32.06500     S ( 1.00)
        H              1.00     1.00794     H ( 1.00)

     No symmetry found



   Cartesian axes

     site n.     atom                  positions (alat units)
         1           Mo  tau(   1) = (   0.6952221   0.1890506   0.2985846  )
         2           S   tau(   2) = (   0.8646417   0.0856217   0.4689279  )
         3           S   tau(   3) = (   0.8663890   0.0857843   0.1351291  )
         4           Mo  tau(   4) = (   0.8560186   0.4753274   0.2873942  )
         5           S   tau(   5) = (   0.6873294   0.3936244   0.4596353  )
         6           S   tau(   6) = (   0.6929804   0.3713468   0.1185692  )
         7           Mo  tau(   7) = (   0.6862796   0.7633098   0.2825370  )
         8           S   tau(   8) = (   0.8545980   0.6708292   0.4486168  )
         9           S   tau(   9) = (   0.8545123   0.6666874   0.1146125  )
        10           Mo  tau(  10) = (   0.8629403   1.0471007   0.3006803  )
        11           S   tau(  11) = (   0.6868280   0.9456650   0.4634891  )
        12           S   tau(  12) = (   0.6998113   0.9568511   0.1205389  )
        13           Mo  tau(  13) = (   0.3618216   0.1847309   0.2935964  )
        14           S   tau(  14) = (   0.5260962   0.0863870   0.4600448  )
        15           S   tau(  15) = (   0.5348379   0.0894875   0.1297123  )
        16           Mo  tau(  16) = (   0.5265817   0.4772436   0.2784130  )
        17           S   tau(  17) = (   0.3624753   0.3882513   0.4525556  )
        18           S   tau(  18) = (   0.3635411   0.3752055   0.1119148  )
        19           Mo  tau(  19) = (   0.3652268   0.7630864   0.2781795  )
        20           S   tau(  20) = (   0.5269494   0.6690381   0.1096838  )
        21           Mo  tau(  21) = (   0.5300192   1.0470394   0.2900995  )
        22           S   tau(  22) = (   0.3670346   0.9457522   0.4574073  )
        23           S   tau(  23) = (   0.3604225   0.9585725   0.1159032  )
        24           Mo  tau(  24) = (   0.0313099   0.1847895   0.3013130  )
        25           S   tau(  25) = (   0.1956761   0.0838230   0.4650863  )
        26           S   tau(  26) = (   0.1967693   0.0903508   0.1278874  )
        27           Mo  tau(  27) = (   0.1967578   0.4753919   0.2813011  )
        28           S   tau(  28) = (   0.0287851   0.3864324   0.4586755  )
        29           S   tau(  29) = (   0.0244514   0.3729871   0.1239344  )
        30           Mo  tau(  30) = (   0.0286728   0.7631204   0.2856894  )
        31           S   tau(  31) = (   0.2011512   0.6675435   0.4465001  )
        32           S   tau(  32) = (   0.1969214   0.6672839   0.1104564  )
        33           Mo  tau(  33) = (   0.1950294   1.0511147   0.2932237  )
        34           S   tau(  34) = (   0.0312912   0.9612169   0.4667423  )
        35           S   tau(  35) = (   0.0292670   0.9563028   0.1216485  )
        36           H   tau(  36) = (   1.0000000   0.2568157   0.5407634  )

     number of k points=     1  Gaussian smearing, width (Ry)=  0.0100
                       cart. coord. in units 2pi/alat
        k(    1) = (   0.0000000   0.0000000   0.0000000), wk =   2.0000000

     Dense  grid:  1177734 G-vectors     FFT dimensions: ( 120, 135, 320)

     Smooth grid:   842757 G-vectors     FFT dimensions: ( 108, 120, 270)

     Estimated max dynamical RAM per process >     146.59 MB

     Estimated total dynamical RAM >       6.87 GB

     Initial potential from superposition of free atoms

     starting charge     306.9873, renormalised to     307.0000

     negative rho (up, down):  1.418E-04 0.000E+00


---------------------------------------------------------------------------------
Carrying out rVV10 run using the following parameters:
Nqs =      20    Nr_points =    1024   r_max =   100.000
b_value =  6.30000    beta =  0.00901
     q_mesh =  0.00010000  0.00030000  0.00058939  0.00100810
               0.00161396  0.00249058  0.00375900  0.00559430
               0.00824984  0.01209221  0.01765183  0.02569619
               0.03733578  0.05417739  0.07854596  0.11380545
               0.16482331  0.23864234  0.34545298  0.50000000

Gradients computed in Reciprocal space

---------------------------------------------------------------------------------


     Starting wfcs are  213 randomized atomic wfcs

     total cpu time spent up to now is        2.8 secs

     Self-consistent Calculation

     iteration #  1     ecut=    80.00 Ry     beta= 0.70
     Davidson diagonalization with overlap
     ethr =  1.00E-02,  avg # of iterations =  2.0

     Threshold (ethr) on eigenvalues was too large:
     Diagonalizing with lowered threshold

     Davidson diagonalization with overlap
     ethr =  3.81E-04,  avg # of iterations =  4.0

     negative rho (up, down):  1.655E-08 0.000E+00

     total cpu time spent up to now is       17.8 secs

     total energy              =   -2205.60227164 Ry
     estimated scf accuracy    <       1.45607726 Ry

     iteration #  2     ecut=    80.00 Ry     beta= 0.70
     Davidson diagonalization with overlap
     ethr =  4.74E-04,  avg # of iterations =  2.0

     total cpu time spent up to now is       20.2 secs

     total energy              =   -2205.43823839 Ry
     estimated scf accuracy    <       0.59607187 Ry

     iteration #  3     ecut=    80.00 Ry     beta= 0.70
     Davidson diagonalization with overlap
     ethr =  1.94E-04,  avg # of iterations =  5.0

     total cpu time spent up to now is       22.8 secs

     total energy              =   -2205.52464986 Ry
     estimated scf accuracy    <       0.07288833 Ry

     iteration #  4     ecut=    80.00 Ry     beta= 0.70
     Davidson diagonalization with overlap
     ethr =  2.37E-05,  avg # of iterations = 12.0

     total cpu time spent up to now is       25.8 secs

     total energy              =   -2205.52940041 Ry
     estimated scf accuracy    <       0.03785241 Ry

     iteration #  5     ecut=    80.00 Ry     beta= 0.70
     Davidson diagonalization with overlap
     ethr =  1.23E-05,  avg # of iterations =  2.0

     total cpu time spent up to now is       28.1 secs

     total energy              =   -2205.52966342 Ry
     estimated scf accuracy    <       0.02387006 Ry

     iteration #  6     ecut=    80.00 Ry     beta= 0.70
     Davidson diagonalization with overlap
     ethr =  7.78E-06,  avg # of iterations =  1.0

     total cpu time spent up to now is       30.2 secs

     total energy              =   -2205.52926233 Ry
     estimated scf accuracy    <       0.01277827 Ry

     iteration #  7     ecut=    80.00 Ry     beta= 0.70
     Davidson diagonalization with overlap
     ethr =  4.16E-06,  avg # of iterations =  1.0

     total cpu time spent up to now is       32.3 secs

     total energy              =   -2205.52719800 Ry
     estimated scf accuracy    <       0.01006253 Ry

     iteration #  8     ecut=    80.00 Ry     beta= 0.70
     Davidson diagonalization with overlap
     ethr =  3.28E-06,  avg # of iterations =  2.0

     negative rho (up, down):  2.081E-03 0.000E+00

     total cpu time spent up to now is       36.3 secs

     total energy              =   -2205.52666911 Ry
     estimated scf accuracy    <       0.00450042 Ry

     iteration #  9     ecut=    80.00 Ry     beta= 0.70
     Davidson diagonalization with overlap
     ethr =  1.47E-06,  avg # of iterations = 11.0

     negative rho (up, down):  2.754E-02 0.000E+00

     total cpu time spent up to now is       40.4 secs

     total energy              =   -2205.52648873 Ry
     estimated scf accuracy    <       0.00270084 Ry

     iteration # 10     ecut=    80.00 Ry     beta= 0.70
     Davidson diagonalization with overlap
     ethr =  8.80E-07,  avg # of iterations =  2.0

     negative rho (up, down):  2.855E-02 0.000E+00

     total cpu time spent up to now is       44.9 secs

     total energy              =   -2205.52650800 Ry
     estimated scf accuracy    <       0.00126898 Ry

     iteration # 11     ecut=    80.00 Ry     beta= 0.70
     Davidson diagonalization with overlap
     ethr =  4.13E-07,  avg # of iterations =  2.0

     negative rho (up, down):  1.690E-02 0.000E+00

     total cpu time spent up to now is       50.6 secs

     total energy              =   -2205.52658056 Ry
     estimated scf accuracy    <       0.00025055 Ry

     iteration # 12     ecut=    80.00 Ry     beta= 0.70
     Davidson diagonalization with overlap
     ethr =  8.16E-08,  avg # of iterations = 11.0

     negative rho (up, down):  5.797E-03 0.000E+00

     total cpu time spent up to now is       56.6 secs

     total energy              =   -2205.52662950 Ry
     estimated scf accuracy    <       0.00009540 Ry

     iteration # 13     ecut=    80.00 Ry     beta= 0.70
     Davidson diagonalization with overlap
     ethr =  3.11E-08,  avg # of iterations =  2.0

     negative rho (up, down):  1.272E-03 0.000E+00

     total cpu time spent up to now is       65.3 secs

     total energy              =   -2205.52664940 Ry
     estimated scf accuracy    <       0.00001027 Ry

     iteration # 14     ecut=    80.00 Ry     beta= 0.70
     Davidson diagonalization with overlap
     ethr =  3.35E-09,  avg # of iterations =  5.0

     negative rho (up, down):  5.863E-04 0.000E+00

     total cpu time spent up to now is       75.1 secs

     total energy              =   -2205.52665288 Ry
     estimated scf accuracy    <       0.00000358 Ry

     iteration # 15     ecut=    80.00 Ry     beta= 0.70
     Davidson diagonalization with overlap
     ethr =  1.16E-09,  avg # of iterations =  2.0

     negative rho (up, down):  2.233E-04 0.000E+00

     total cpu time spent up to now is       86.7 secs

     total energy              =   -2205.52665548 Ry
     estimated scf accuracy    <       0.00000106 Ry

     iteration # 16     ecut=    80.00 Ry     beta= 0.70
     Davidson diagonalization with overlap
     ethr =  3.46E-10,  avg # of iterations =  4.0

     negative rho (up, down):  1.373E-04 0.000E+00

     total cpu time spent up to now is       88.9 secs

     End of self-consistent calculation

          k = 0.0000 0.0000 0.0000 (105382 PWs)   bands (ev):

   -62.8904 -62.8767 -62.8733 -62.8253 -62.8134 -62.8087 -62.8019 -62.7899
   -62.7685 -62.6267 -62.6088 -62.5996 -37.2113 -37.1574 -37.1467 -37.1101
   -37.1015 -37.0972 -37.0891 -37.0781 -37.0700 -37.0514 -37.0454 -37.0235
   -37.0134 -37.0071 -36.9971 -36.9896 -36.9852 -36.9821 -36.9772 -36.9675
   -36.9364 -36.9204 -36.9015 -36.8684 -36.8465 -36.8423 -36.8394 -36.8150
   -36.8101 -36.7870 -36.7778 -36.7694 -36.7602 -36.7493 -36.5944 -36.5784
   -16.2482 -15.6371 -15.1075 -15.0640 -14.9238 -14.7903 -14.7061 -14.4567
   -14.4444 -14.4350 -14.3594 -14.3316 -14.3105 -14.2428 -14.1779 -14.1142
   -14.0799 -14.0691 -13.9721 -13.9421 -13.7969 -13.7704 -13.7527  -9.0141
    -7.5716  -7.4365  -7.3077  -7.2597  -7.2300  -7.2146  -7.1145  -7.0489
    -6.8279  -6.7629  -6.7371  -6.6464  -6.6202  -6.5063  -6.4467  -6.3986
    -6.2486  -6.2160  -6.1246  -5.9756  -5.9246  -5.9000  -5.8242  -5.8000
    -5.7078  -5.6988  -5.6657  -5.6245  -5.5910  -5.5770  -5.5442  -5.4687
    -5.4132  -5.3396  -5.1721  -5.1234  -5.0582  -5.0255  -4.9530  -4.9292
    -4.9029  -4.7884  -4.6277  -4.4745  -4.3533  -4.3207  -4.2827  -4.2399
    -4.1775  -4.0836  -3.9847  -3.8813  -3.7783  -3.7685  -3.6932  -3.6855
    -3.6357  -3.5880  -3.5342  -3.5079  -3.4815  -3.4464  -3.4070  -3.3724
    -3.3237  -3.1884  -3.1021  -2.8881  -2.8639  -2.7774  -2.7634  -2.7314
    -2.6810  -2.6426  -2.6116  -2.5630  -2.5107  -2.2474  -1.9971  -1.9607
    -1.8393  -0.7378  -0.6191  -0.6040  -0.1704  -0.1297  -0.0713  -0.0432
     0.0243   0.1125   0.2320   0.2750   0.3108   0.3333   0.3889   0.4158
     0.4754   0.5696   0.5851   0.6103   0.6656   0.7057   0.7405   0.7700
     0.8021   0.8267   0.8708   0.9254   0.9543   1.0061   1.0414   1.2617
     1.4700

     the Fermi energy is    -0.7651 ev

!    total energy              =   -2205.52665525 Ry
     estimated scf accuracy    <       0.00000047 Ry
     smearing contrib. (-TS)   =      -0.00859311 Ry
     internal energy E=F+TS    =   -2205.51806213 Ry

     The total energy is F=E-TS. E is the sum of the following terms:
     one-electron contribution =  -18055.60766337 Ry
     hartree contribution      =    9014.84008325 Ry
     xc contribution           =    -385.34794897 Ry
     ewald contribution        =    7220.59746695 Ry

     convergence has been achieved in  16 iterations

     negative rho (up, down):  1.373E-04 0.000E+00

     Forces acting on atoms (cartesian axes, Ry/au):

     atom    1 type  1   force =     0.01125015   -0.02338353    0.00364523
     atom    2 type  2   force =    -0.02413093    0.01344837    0.00946874
     atom    3 type  2   force =    -0.01117809    0.00950028   -0.00373702
     atom    4 type  1   force =    -0.01034696   -0.00354335   -0.00129224
     atom    5 type  2   force =    -0.00372773   -0.00269143   -0.00887963
     atom    6 type  2   force =     0.00521464    0.00803257    0.00051257
     atom    7 type  1   force =    -0.00254964   -0.00254265   -0.00508366
     atom    8 type  2   force =     0.00158246   -0.00103482    0.01920118
     atom    9 type  2   force =     0.01405165    0.00457313    0.00876571
     atom   10 type  1   force =    -0.00712042    0.00787921   -0.02942682
     atom   11 type  2   force =     0.00325044   -0.00281541   -0.00593055
     atom   12 type  2   force =    -0.00018141    0.00100874    0.00590440
     atom   13 type  1   force =     0.00420786    0.00522200   -0.01116654
     atom   14 type  2   force =     0.00767357    0.00130005    0.01138762
     atom   15 type  2   force =    -0.01265975    0.00127944   -0.00885025
     atom   16 type  1   force =     0.00202713    0.00441584    0.00888535
     atom   17 type  2   force =     0.01154104    0.00536209   -0.00186370
     atom   18 type  2   force =    -0.00872150   -0.00957185    0.01405539
     atom   19 type  1   force =     0.01084854    0.00172258   -0.00267986
     atom   20 type  2   force =     0.00293904   -0.00520925    0.00124270
     atom   21 type  1   force =    -0.00428015    0.00682614   -0.00035774
     atom   22 type  2   force =    -0.00100721   -0.00289871   -0.00228015
     atom   23 type  2   force =    -0.00125493    0.00178471    0.00900956
     atom   24 type  1   force =     0.00235069   -0.03083943   -0.06455617
     atom   25 type  2   force =     0.02184027    0.01389245    0.00827169
     atom   26 type  2   force =    -0.01314850    0.00096052   -0.00324632
     atom   27 type  1   force =     0.02313224   -0.00586723   -0.00908229
     atom   28 type  2   force =    -0.02009118   -0.00020706    0.05408715
     atom   29 type  2   force =     0.00316534    0.00072503   -0.00206404
     atom   30 type  1   force =    -0.00480396    0.00579642   -0.00382970
     atom   31 type  2   force =     0.00057991    0.00188803    0.01947476
     atom   32 type  2   force =    -0.00859704    0.00173988    0.00668284
     atom   33 type  1   force =     0.01086836   -0.00442160   -0.00943567
     atom   34 type  2   force =     0.00310757   -0.04568994   -0.01013742
     atom   35 type  2   force =    -0.00842265    0.00844800    0.01626893
     atom   36 type  3   force =     0.00259114    0.03491077   -0.01296405
     The non-local contrib.  to forces
     atom    1 type  1   force =    -0.00518368    0.03018960   -0.01110795
     atom    2 type  2   force =     0.00983161    0.01618222   -0.23246155
     atom    3 type  2   force =    -0.01220509   -0.00392379    0.27324514
     atom    4 type  1   force =    -0.00647715    0.00655696    0.00057238
     atom    5 type  2   force =     0.00992459   -0.03461134   -0.25489679
     atom    6 type  2   force =    -0.00302012    0.01389349    0.26284790
     atom    7 type  1   force =    -0.03107718   -0.00812404   -0.01316053
     atom    8 type  2   force =     0.00722040   -0.00111255   -0.25171509
     atom    9 type  2   force =     0.01025813   -0.01383424    0.27765904
     atom   10 type  1   force =     0.00410597   -0.00700755   -0.00477206
     atom   11 type  2   force =     0.01461118    0.00572152   -0.26057566
     atom   12 type  2   force =    -0.01042811   -0.01493992    0.26123262
     atom   13 type  1   force =     0.00391710    0.01839441   -0.00642645
     atom   14 type  2   force =     0.01049155   -0.00813898   -0.26077271
     atom   15 type  2   force =    -0.01365982   -0.00248182    0.26270877
     atom   16 type  1   force =    -0.00125234    0.04671734   -0.01949030
     atom   17 type  2   force =     0.00397779   -0.02786898   -0.24951366
     atom   18 type  2   force =    -0.00552950    0.00022196    0.27399477
     atom   19 type  1   force =     0.02345759   -0.00997475   -0.01057496
     atom   20 type  2   force =    -0.00018497   -0.02141644    0.26373658
     atom   21 type  1   force =     0.00176917    0.01610242    0.00662523
     atom   22 type  2   force =    -0.00766771    0.00510153   -0.25925053
     atom   23 type  2   force =     0.00516600   -0.01266187    0.26681007
     atom   24 type  1   force =     0.00431912    0.01119106   -0.01677134
     atom   25 type  2   force =     0.00966162    0.00203359   -0.24494779
     atom   26 type  2   force =    -0.00549937   -0.01382163    0.26655681
     atom   27 type  1   force =     0.00901209    0.00889074    0.00167048
     atom   28 type  2   force =    -0.05683954   -0.27883774   -0.05424009
     atom   29 type  2   force =     0.00678940    0.00221707    0.26611030
     atom   30 type  1   force =    -0.00004926    0.02384704    0.01153266
     atom   31 type  2   force =    -0.00764723    0.00652195   -0.24713378
     atom   32 type  2   force =    -0.00678025   -0.01593456    0.27408639
     atom   33 type  1   force =    -0.00310841    0.00193366    0.00437424
     atom   34 type  2   force =     0.00021687   -0.03969337   -0.27326132
     atom   35 type  2   force =    -0.00432966   -0.01151874    0.27128194
     atom   36 type  3   force =     0.00708491    0.03438019   -0.02606837
     The ionic contribution  to forces
     atom    1 type  1   force =     0.07698486    0.13616509    5.46450029
     atom    2 type  2   force =    -1.06040421   -0.11027674   39.08967603
     atom    3 type  2   force =    -0.20024276   -0.03823395  -36.17494480
     atom    4 type  1   force =    -0.12418264    0.93348527    0.33784018
     atom    5 type  2   force =    -1.17792998    1.60953650   38.70597839
     atom    6 type  2   force =     0.30669892   -0.47774485  -38.07116238
     atom    7 type  1   force =    -2.66552687   -2.72514701    2.57950970
     atom    8 type  2   force =    -1.03232748    0.14993502   37.38101340
     atom    9 type  2   force =     0.32796417   -0.00106416  -38.01663750
     atom   10 type  1   force =    -1.19198860   -0.55618349    5.56603838
     atom   11 type  2   force =    -0.59859848   -1.65174087   39.15082107
     atom   12 type  2   force =     0.42860985    0.67408546  -37.84956286
     atom   13 type  1   force =     0.69132568    0.91414884    2.70500728
     atom   14 type  2   force =     0.03699634   -0.06735310   38.51552514
     atom   15 type  2   force =     0.14990060   -0.08733185  -36.82181515
     atom   16 type  1   force =    -0.04795511    4.05457654    0.43941310
     atom   17 type  2   force =     0.95645874    1.57734685   37.90670544
     atom   18 type  2   force =    -0.13254875   -0.62645550  -38.59736994
     atom   19 type  1   force =     2.75866701   -2.39749194    0.67088719
     atom   20 type  2   force =     0.22660464   -0.17709435  -38.47090860
     atom   21 type  1   force =     0.02322362   -0.04330378    1.17020290
     atom   22 type  2   force =     0.48569019   -1.75405209   38.44344372
     atom   23 type  2   force =    -0.07553575    0.64932925  -38.28253868
     atom   24 type  1   force =    -0.39061246    0.75633191    4.66149402
     atom   25 type  2   force =     0.98942343   -0.02751540   39.15854798
     atom   26 type  2   force =    -0.24693623    0.02083428  -37.40257327
     atom   27 type  1   force =     0.24771173    0.68339428   -2.50493709
     atom   28 type  2   force =     0.33055247    2.27353593   37.42912554
     atom   29 type  2   force =    -0.25717487   -0.38311937  -37.38917668
     atom   30 type  1   force =    -0.33119309   -0.81221678   -0.06065587
     atom   31 type  2   force =     1.28050117    0.04977662   37.32290761
     atom   32 type  2   force =    -0.46505133    0.02549865  -38.64394842
     atom   33 type  1   force =     0.90043077   -1.05796808    1.98826875
     atom   34 type  2   force =     0.24843901   -1.54908653   39.35323469
     atom   35 type  2   force =    -0.29779165    0.44976379  -37.82490889
     atom   36 type  3   force =    -0.17018295   -0.41436443    8.07099932
     The local contribution  to forces
     atom    1 type  1   force =    -0.06050734   -0.18975676   -5.44911989
     atom    2 type  2   force =     1.02765101    0.10898847  -38.86629720
     atom    3 type  2   force =     0.20079712    0.05163700   35.91958675
     atom    4 type  1   force =     0.12029556   -0.94362487   -0.33906638
     atom    5 type  2   force =     1.16531133   -1.57962180  -38.48034058
     atom    6 type  2   force =    -0.29869212    0.47308974   37.83020462
     atom    7 type  1   force =     2.69420216    2.73087083   -2.57085158
     atom    8 type  2   force =     1.02714335   -0.15035945  -37.13026139
     atom    9 type  2   force =    -0.32379766    0.01860521   37.76924691
     atom   10 type  1   force =     1.18089363    0.57113242   -5.58996673
     atom   11 type  2   force =     0.58795462    1.64389173  -38.91674133
     atom   12 type  2   force =    -0.41939914   -0.65939245   37.61546017
     atom   13 type  1   force =    -0.69113136   -0.92736077   -2.70908551
     atom   14 type  2   force =    -0.03924560    0.07688986  -38.26388504
     atom   15 type  2   force =    -0.14964871    0.09090639   36.57145534
     atom   16 type  1   force =     0.05119287   -4.09710981   -0.41043325
     atom   17 type  2   force =    -0.94902312   -1.54562056  -37.67924364
     atom   18 type  2   force =     0.12907687    0.61727474   38.35896241
     atom   19 type  1   force =    -2.77148858    2.40928294   -0.66239004
     atom   20 type  2   force =    -0.22364571    0.19248552   38.22992196
     atom   21 type  1   force =    -0.02928460    0.03395789   -1.17643633
     atom   22 type  2   force =    -0.47926138    1.74668004  -38.20693754
     atom   23 type  2   force =     0.06956651   -0.63601638   38.04606633
     atom   24 type  1   force =     0.38866612   -0.79842803   -4.70871533
     atom   25 type  2   force =    -0.97748111    0.03996758  -38.92510322
     atom   26 type  2   force =     0.23923397   -0.00673082   37.15436782
     atom   27 type  1   force =    -0.23354768   -0.69812292    2.49481054
     atom   28 type  2   force =    -0.29760244   -2.01328309  -37.32795870
     atom   29 type  2   force =     0.25415529    0.38218392   37.14236308
     atom   30 type  1   force =     0.32651355    0.79415448    0.04597425
     atom   31 type  2   force =    -1.27290202   -0.05437804  -37.07646634
     atom   32 type  2   force =     0.46312141   -0.00881302   38.39811189
     atom   33 type  1   force =    -0.88655059    1.05167984   -2.00134760
     atom   34 type  2   force =    -0.24590247    1.54189612  -39.11120690
     atom   35 type  2   force =     0.29369876   -0.43081875   37.59154831
     atom   36 type  3   force =     0.16568792    0.41487687   -8.05787827
     The core correction contribution to forces
     atom    1 type  1   force =     0.00000000    0.00000000    0.00000000
     atom    2 type  2   force =    -0.00118744   -0.00146888    0.01850194
     atom    3 type  2   force =     0.00053495    0.00006105   -0.02104736
     atom    4 type  1   force =     0.00000000    0.00000000    0.00000000
     atom    5 type  2   force =    -0.00098313    0.00199308    0.02035105
     atom    6 type  2   force =     0.00025820   -0.00118831   -0.02084673
     atom    7 type  1   force =     0.00000000    0.00000000    0.00000000
     atom    8 type  2   force =    -0.00039861    0.00049275    0.02021143
     atom    9 type  2   force =    -0.00034047    0.00083857   -0.02102383
     atom   10 type  1   force =     0.00000000    0.00000000    0.00000000
     atom   11 type  2   force =    -0.00073254   -0.00064303    0.02062576
     atom   12 type  2   force =     0.00101277    0.00124759   -0.02072261
     atom   13 type  1   force =     0.00000000    0.00000000    0.00000000
     atom   14 type  2   force =    -0.00056731   -0.00012529    0.02052807
     atom   15 type  2   force =     0.00074498    0.00018610   -0.02064618
     atom   16 type  1   force =     0.00000000    0.00000000    0.00000000
     atom   17 type  2   force =     0.00007685    0.00151101    0.02015042
     atom   18 type  2   force =     0.00022674   -0.00057740   -0.02100960
     atom   19 type  1   force =     0.00000000    0.00000000    0.00000000
     atom   20 type  2   force =     0.00012941    0.00082566   -0.02108691
     atom   21 type  1   force =     0.00000000    0.00000000    0.00000000
     atom   22 type  2   force =     0.00024575   -0.00061288    0.02050704
     atom   23 type  2   force =    -0.00044177    0.00109311   -0.02081505
     atom   24 type  1   force =     0.00000000    0.00000000    0.00000000
     atom   25 type  2   force =     0.00019871   -0.00059743    0.01971537
     atom   26 type  2   force =     0.00000508    0.00071628   -0.02101552
     atom   27 type  1   force =     0.00000000    0.00000000    0.00000000
     atom   28 type  2   force =     0.00379386    0.01834784    0.00708006
     atom   29 type  2   force =    -0.00057769   -0.00056669   -0.02080797
     atom   30 type  1   force =     0.00000000    0.00000000    0.00000000
     atom   31 type  2   force =     0.00060043   -0.00003371    0.02015920
     atom   32 type  2   force =     0.00011189    0.00095914   -0.02104640
     atom   33 type  1   force =     0.00000000    0.00000000    0.00000000
     atom   34 type  2   force =     0.00034347    0.00121375    0.02110057
     atom   35 type  2   force =     0.00000877    0.00099666   -0.02111128
     atom   36 type  3   force =     0.00000000    0.00000000    0.00000000
     The Hubbard contrib.    to forces
     atom    1 type  1   force =     0.00000000    0.00000000    0.00000000
     atom    2 type  2   force =     0.00000000    0.00000000    0.00000000
     atom    3 type  2   force =     0.00000000    0.00000000    0.00000000
     atom    4 type  1   force =     0.00000000    0.00000000    0.00000000
     atom    5 type  2   force =     0.00000000    0.00000000    0.00000000
     atom    6 type  2   force =     0.00000000    0.00000000    0.00000000
     atom    7 type  1   force =     0.00000000    0.00000000    0.00000000
     atom    8 type  2   force =     0.00000000    0.00000000    0.00000000
     atom    9 type  2   force =     0.00000000    0.00000000    0.00000000
     atom   10 type  1   force =     0.00000000    0.00000000    0.00000000
     atom   11 type  2   force =     0.00000000    0.00000000    0.00000000
     atom   12 type  2   force =     0.00000000    0.00000000    0.00000000
     atom   13 type  1   force =     0.00000000    0.00000000    0.00000000
     atom   14 type  2   force =     0.00000000    0.00000000    0.00000000
     atom   15 type  2   force =     0.00000000    0.00000000    0.00000000
     atom   16 type  1   force =     0.00000000    0.00000000    0.00000000
     atom   17 type  2   force =     0.00000000    0.00000000    0.00000000
     atom   18 type  2   force =     0.00000000    0.00000000    0.00000000
     atom   19 type  1   force =     0.00000000    0.00000000    0.00000000
     atom   20 type  2   force =     0.00000000    0.00000000    0.00000000
     atom   21 type  1   force =     0.00000000    0.00000000    0.00000000
     atom   22 type  2   force =     0.00000000    0.00000000    0.00000000
     atom   23 type  2   force =     0.00000000    0.00000000    0.00000000
     atom   24 type  1   force =     0.00000000    0.00000000    0.00000000
     atom   25 type  2   force =     0.00000000    0.00000000    0.00000000
     atom   26 type  2   force =     0.00000000    0.00000000    0.00000000
     atom   27 type  1   force =     0.00000000    0.00000000    0.00000000
     atom   28 type  2   force =     0.00000000    0.00000000    0.00000000
     atom   29 type  2   force =     0.00000000    0.00000000    0.00000000
     atom   30 type  1   force =     0.00000000    0.00000000    0.00000000
     atom   31 type  2   force =     0.00000000    0.00000000    0.00000000
     atom   32 type  2   force =     0.00000000    0.00000000    0.00000000
     atom   33 type  1   force =     0.00000000    0.00000000    0.00000000
     atom   34 type  2   force =     0.00000000    0.00000000    0.00000000
     atom   35 type  2   force =     0.00000000    0.00000000    0.00000000
     atom   36 type  3   force =     0.00000000    0.00000000    0.00000000
     The SCF correction term to forces
     atom    1 type  1   force =    -0.00004377    0.00001595   -0.00061025
     atom    2 type  2   force =    -0.00002199    0.00002070    0.00006649
     atom    3 type  2   force =    -0.00006240   -0.00004261   -0.00055978
     atom    4 type  1   force =     0.00001719    0.00003669   -0.00062145
     atom    5 type  2   force =    -0.00005062    0.00000955    0.00004527
     atom    6 type  2   force =    -0.00003033   -0.00002010   -0.00051387
     atom    7 type  1   force =    -0.00014785   -0.00014503   -0.00056428
     atom    8 type  2   force =    -0.00005529    0.00000681   -0.00003020
     atom    9 type  2   force =    -0.00003260    0.00002515   -0.00046194
     atom   10 type  1   force =    -0.00013151   -0.00006476   -0.00070944
     atom   11 type  2   force =     0.00001558   -0.00004736   -0.00004341
     atom   12 type  2   force =     0.00002312    0.00000547   -0.00048596
     atom   13 type  1   force =     0.00009634    0.00003692   -0.00064490
     atom   14 type  2   force =    -0.00000150    0.00002498    0.00000914
     atom   15 type  2   force =     0.00000312   -0.00000197   -0.00053606
     atom   16 type  1   force =     0.00004163    0.00022918   -0.00058724
     atom   17 type  2   force =     0.00005069   -0.00000881    0.00005471
     atom   18 type  2   force =     0.00005306   -0.00003824   -0.00050528
     atom   19 type  1   force =     0.00021243   -0.00009627   -0.00058507
     atom   20 type  2   force =     0.00003559   -0.00001223   -0.00040335
     atom   21 type  1   force =     0.00001157    0.00006701   -0.00073257
     atom   22 type  2   force =    -0.00001415   -0.00001791   -0.00002586
     atom   23 type  2   force =    -0.00001001    0.00003801   -0.00049614
     atom   24 type  1   force =    -0.00002218    0.00006304   -0.00054655
     atom   25 type  2   force =     0.00003753    0.00000151    0.00007632
     atom   26 type  2   force =     0.00004797   -0.00004018   -0.00056519
     atom   27 type  1   force =    -0.00004398   -0.00003193   -0.00060926
     atom   28 type  2   force =     0.00000439    0.00002740    0.00009730
     atom   29 type  2   force =    -0.00002687    0.00000751   -0.00053580
     atom   30 type  1   force =    -0.00007524    0.00000909   -0.00066376
     atom   31 type  2   force =     0.00002746   -0.00000139    0.00002504
     atom   32 type  2   force =     0.00000115    0.00002709   -0.00050366
     atom   33 type  1   force =     0.00009651   -0.00006962   -0.00071410
     atom   34 type  2   force =     0.00001061   -0.00002251    0.00001251
     atom   35 type  2   force =    -0.00000896    0.00002244   -0.00052419
     atom   36 type  3   force =     0.00000117    0.00001554    0.00000024

     Total force =     0.142361     Total SCF correction =     0.002871

     BFGS Geometry Optimization
     Energy error            =      0.0E+00 Ry
     Gradient error          =      6.5E-02 Ry/Bohr

     number of scf cycles    =   1
     number of bfgs steps    =   0

     energy             new  =   -2205.5266552472 Ry

     new trust radius        =       0.0715827881 bohr
     new conv_thr            =       0.0000010000 Ry


ATOMIC_POSITIONS (angstrom)
Mo            6.5805017300        1.7754322008        2.8255720062
S             8.1639398009        0.8168205950        4.4395489960
S             8.1873178948        0.8162690783        1.2759058796
Mo            8.0896871909        4.4931818828        2.7171345694
S             6.4979366267        3.7209872443        4.3419617486
S             6.5561092655        3.5159882081        1.1215514684
Mo            6.4886324850        7.2170917716        2.6691943263
S             8.0825651294        6.3433233906        4.2526223907
S             8.0883534617        6.3071223107        1.0885016101
Mo            8.1568510835        9.9063499113        2.8278897575
S             6.4968876523        8.9414369636        4.3799672213
S             6.6178512010        9.0492450147        1.1430317770
Mo            3.4238863676        1.7497192156        2.7705620834
S             4.9792261708        0.8176291682        4.3565591608
S             5.0511345015        0.8469391614        1.2219751102
Mo            4.9808293938        4.5155147671        2.6375864740
S             3.4339489148        3.6744371836        4.2787233526
S             3.4333053637        3.5431634932        1.0657894747
Mo            3.4596025379        7.2172360882        2.6292587435
S             4.9847894682        6.3241756710        1.0379113421
Mo            5.0099989643        9.9052122869        2.7432116515
S             3.4704251244        8.9422173376        4.3243847091
S             3.4077650842        9.0659344104        1.1008359542
Mo            0.2973344193        1.7311900074        2.8152830539
S             1.8620195882        0.8000455752        4.4025866263
S             1.8538421457        0.8549342039        1.2076829775
Mo            1.8729323659        4.4925619576        2.6553912379
S             0.2615820571        3.6542892528        4.3662057881
S             0.2329062358        3.5276328969        1.1709256418
Mo            0.2686100026        7.2197134286        2.6996698388
S             1.9025451246        6.3137979369        4.2327497203
S             1.8576888558        6.3112645166        1.0480956884
Mo            1.8500979511        9.9377993412        2.7679531077
S             0.2975573554        9.0658197530        4.4085049766
S             0.2723143259        9.0479962034        1.1590099247
H             9.4581311713        2.4471184264        5.1070091874



     Writing config-only to output data dir ./MoS2-V-O.save/
     NEW-OLD atomic charge density approx. for the potential

     negative rho (up, down):  1.456E-04 0.000E+00

     total cpu time spent up to now is       92.2 secs

     Self-consistent Calculation

     iteration #  1     ecut=    80.00 Ry     beta= 0.70
     Davidson diagonalization with overlap
     ethr =  1.00E-06,  avg # of iterations =  8.0

     negative rho (up, down):  1.516E-04 0.000E+00

     total cpu time spent up to now is      105.8 secs

     total energy              =   -2205.54229098 Ry
     estimated scf accuracy    <       0.00195891 Ry

     iteration #  2     ecut=    80.00 Ry     beta= 0.70
     Davidson diagonalization with overlap
     ethr =  6.38E-07,  avg # of iterations =  3.0

     negative rho (up, down):  1.644E-04 0.000E+00

     total cpu time spent up to now is      126.4 secs

     total energy              =   -2205.54233067 Ry
     estimated scf accuracy    <       0.00033098 Ry

     iteration #  3     ecut=    80.00 Ry     beta= 0.70
     Davidson diagonalization with overlap
     ethr =  1.08E-07,  avg # of iterations =  5.0

     negative rho (up, down):  1.648E-04 0.000E+00

     total cpu time spent up to now is      140.4 secs

     total energy              =   -2205.54237790 Ry
     estimated scf accuracy    <       0.00003728 Ry

     iteration #  4     ecut=    80.00 Ry     beta= 0.70
     Davidson diagonalization with overlap
     c_bands:  1 eigenvalues not converged
     ethr =  1.21E-08,  avg # of iterations = 20.0

     negative rho (up, down):  1.606E-04 0.000E+00

     total cpu time spent up to now is      158.4 secs

     total energy              =   -2205.54238852 Ry
     estimated scf accuracy    <       0.00001049 Ry

     iteration #  5     ecut=    80.00 Ry     beta= 0.70
     Davidson diagonalization with overlap
     ethr =  3.42E-09,  avg # of iterations =  2.0

     negative rho (up, down):  1.527E-04 0.000E+00

     total cpu time spent up to now is      174.7 secs

     total energy              =   -2205.54238906 Ry
     estimated scf accuracy    <       0.00000263 Ry

     iteration #  6     ecut=    80.00 Ry     beta= 0.70
     Davidson diagonalization with overlap
     ethr =  8.58E-10,  avg # of iterations =  5.0

     negative rho (up, down):  1.379E-04 0.000E+00

     total cpu time spent up to now is      176.9 secs

     End of self-consistent calculation

          k = 0.0000 0.0000 0.0000 (105382 PWs)   bands (ev):

   -62.8922 -62.8822 -62.8651 -62.8218 -62.8092 -62.8060 -62.7991 -62.7863
   -62.7703 -62.6354 -62.6172 -62.6062 -37.2025 -37.1534 -37.1421 -37.1133
   -37.1004 -37.0948 -37.0842 -37.0726 -37.0697 -37.0472 -37.0460 -37.0192
   -37.0175 -37.0014 -36.9936 -36.9873 -36.9821 -36.9794 -36.9743 -36.9649
   -36.9325 -36.9233 -36.9023 -36.8665 -36.8459 -36.8455 -36.8413 -36.8155
   -36.8145 -36.7908 -36.7813 -36.7745 -36.7691 -36.7568 -36.6029 -36.5857
   -16.2320 -15.6391 -15.0953 -15.0697 -14.9252 -14.8007 -14.6889 -14.4586
   -14.4407 -14.4216 -14.3664 -14.3233 -14.3127 -14.2520 -14.1796 -14.1148
   -14.0889 -14.0729 -13.9757 -13.9237 -13.8090 -13.7762 -13.7525  -8.9739
    -7.5548  -7.4357  -7.2889  -7.2430  -7.2261  -7.2105  -7.1191  -7.0619
    -6.8096  -6.7649  -6.7340  -6.6437  -6.6308  -6.5094  -6.4489  -6.3908
    -6.2515  -6.2119  -6.1164  -5.9639  -5.9137  -5.8931  -5.8107  -5.7976
    -5.7119  -5.7012  -5.6548  -5.6342  -5.6052  -5.5669  -5.5573  -5.4412
    -5.4104  -5.3183  -5.1456  -5.1193  -5.0566  -5.0173  -4.9500  -4.9360
    -4.9045  -4.7940  -4.6268  -4.4818  -4.3668  -4.3083  -4.2720  -4.2325
    -4.1905  -4.0962  -4.0086  -3.8689  -3.7791  -3.7724  -3.6921  -3.6855
    -3.6408  -3.5875  -3.5395  -3.4988  -3.4889  -3.4516  -3.4124  -3.3809
    -3.3169  -3.1871  -3.1089  -2.8816  -2.8572  -2.7701  -2.7579  -2.7266
    -2.6710  -2.6564  -2.6219  -2.5643  -2.5198  -2.2466  -2.0014  -1.9672
    -1.8577  -0.7524  -0.6166  -0.5991  -0.1769  -0.1285  -0.0704  -0.0372
     0.0252   0.1014   0.2351   0.2924   0.3122   0.3417   0.4058   0.4175
     0.4675   0.5776   0.5826   0.6074   0.6725   0.7131   0.7295   0.7729
     0.8108   0.8265   0.8934   0.9371   0.9405   1.0123   1.0426   1.2725
     1.4269

     the Fermi energy is    -0.7735 ev

!    total energy              =   -2205.54238901 Ry
     estimated scf accuracy    <       0.00000075 Ry
     smearing contrib. (-TS)   =      -0.00809349 Ry
     internal energy E=F+TS    =   -2205.53429552 Ry

     The total energy is F=E-TS. E is the sum of the following terms:
     one-electron contribution =  -18052.91154741 Ry
     hartree contribution      =    9013.47912448 Ry
     xc contribution           =    -385.34401890 Ry
     ewald contribution        =    7219.24214631 Ry

     convergence has been achieved in   6 iterations

     negative rho (up, down):  1.379E-04 0.000E+00

     Forces acting on atoms (cartesian axes, Ry/au):

     atom    1 type  1   force =     0.00281880   -0.01220069    0.00024044
     atom    2 type  2   force =    -0.01300941    0.00676703   -0.00040834
     atom    3 type  2   force =    -0.01252497    0.00532198   -0.01392819
     atom    4 type  1   force =    -0.00503100   -0.00010181    0.00310436
     atom    5 type  2   force =    -0.00272482   -0.00426578   -0.00728403
     atom    6 type  2   force =     0.00344680    0.00395235    0.00094159
     atom    7 type  1   force =     0.00020585   -0.00339179    0.00013504
     atom    8 type  2   force =     0.00041524   -0.00135973    0.01241584
     atom    9 type  2   force =     0.01086245    0.00333937    0.00639749
     atom   10 type  1   force =    -0.00366051    0.00698840   -0.00925902
     atom   11 type  2   force =     0.00298650   -0.00152894   -0.00836690
     atom   12 type  2   force =    -0.00247143    0.00079914    0.00146049
     atom   13 type  1   force =     0.00335575    0.00267295   -0.00381261
     atom   14 type  2   force =     0.00526749    0.00129152    0.00703379
     atom   15 type  2   force =    -0.00896291    0.00059246   -0.00807652
     atom   16 type  1   force =     0.00204376    0.00348402    0.00543505
     atom   17 type  2   force =     0.00978128    0.00427722   -0.00129517
     atom   18 type  2   force =    -0.00382905   -0.00768217    0.00833705
     atom   19 type  1   force =     0.00617707   -0.00021726    0.00142286
     atom   20 type  2   force =     0.00273311   -0.00447162   -0.00096045
     atom   21 type  1   force =    -0.00316347    0.00404089    0.00211840
     atom   22 type  2   force =     0.00031907   -0.00206274   -0.00275400
     atom   23 type  2   force =     0.00013563    0.00108971    0.00448762
     atom   24 type  1   force =    -0.00054775   -0.01534452   -0.02462011
     atom   25 type  2   force =     0.01357455    0.01109513   -0.00145976
     atom   26 type  2   force =    -0.00543616   -0.00277297   -0.01033308
     atom   27 type  1   force =     0.01128052   -0.00280063    0.00087017
     atom   28 type  2   force =    -0.01156792    0.00258447    0.03248284
     atom   29 type  2   force =     0.00336310    0.00197202   -0.00290974
     atom   30 type  1   force =    -0.00205134   -0.00196879    0.00362398
     atom   31 type  2   force =     0.00108110    0.00012919    0.01110359
     atom   32 type  2   force =    -0.00530811    0.00183588    0.00523625
     atom   33 type  1   force =     0.00613800   -0.00144699    0.00097131
     atom   34 type  2   force =     0.00025174   -0.03357247   -0.01488416
     atom   35 type  2   force =    -0.00606946    0.00752406    0.00861991
     atom   36 type  3   force =     0.00012050    0.02543110   -0.00608600
     The non-local contrib.  to forces
     atom    1 type  1   force =    -0.00305397    0.02686966   -0.01232940
     atom    2 type  2   force =     0.01139579    0.00707599   -0.23679500
     atom    3 type  2   force =    -0.01105571   -0.00796567    0.26577323
     atom    4 type  1   force =    -0.00752380    0.00600395   -0.00181185
     atom    5 type  2   force =     0.01032682   -0.03635363   -0.25365716
     atom    6 type  2   force =    -0.00555394    0.01035389    0.26433276
     atom    7 type  1   force =    -0.03065807   -0.00761475   -0.01447783
     atom    8 type  2   force =     0.00585204   -0.00047017   -0.25605593
     atom    9 type  2   force =     0.00661616   -0.01448286    0.27691255
     atom   10 type  1   force =     0.00339031   -0.00668424   -0.00642663
     atom   11 type  2   force =     0.01333210    0.00592953   -0.26218504
     atom   12 type  2   force =    -0.01165993   -0.01505374    0.25940722
     atom   13 type  1   force =     0.00356194    0.02007122   -0.00766490
     atom   14 type  2   force =     0.00877420   -0.00816241   -0.26291879
     atom   15 type  2   force =    -0.01088504   -0.00318884    0.26280519
     atom   16 type  1   force =    -0.00187653    0.04615770   -0.02186374
     atom   17 type  2   force =     0.00411974   -0.02806755   -0.24747759
     atom   18 type  2   force =    -0.00042878    0.00195940    0.27077821
     atom   19 type  1   force =     0.02371169   -0.00860325   -0.01202700
     atom   20 type  2   force =    -0.00045957   -0.02020271    0.26206000
     atom   21 type  1   force =     0.00093938    0.01680498    0.00533359
     atom   22 type  2   force =    -0.00630667    0.00547091   -0.25931316
     atom   23 type  2   force =     0.00623245   -0.01340906    0.26414658
     atom   24 type  1   force =     0.00429119    0.00718415   -0.01592102
     atom   25 type  2   force =     0.00508387   -0.00217905   -0.24927460
     atom   26 type  2   force =     0.00008142   -0.01607467    0.26215205
     atom   27 type  1   force =     0.01220604    0.00715825   -0.00004808
     atom   28 type  2   force =    -0.05509721   -0.28706736   -0.07788694
     atom   29 type  2   force =     0.00701331   -0.00015655    0.26781989
     atom   30 type  1   force =    -0.00054490    0.02510816    0.01018457
     atom   31 type  2   force =    -0.00613821    0.00738931   -0.25281974
     atom   32 type  2   force =    -0.00343351   -0.01554137    0.27436803
     atom   33 type  1   force =    -0.00219966    0.00094270    0.00190148
     atom   34 type  2   force =    -0.00176199   -0.03023455   -0.27699209
     atom   35 type  2   force =    -0.00307272   -0.01194788    0.26666660
     atom   36 type  3   force =     0.00779781    0.03913620   -0.02769049
     The ionic contribution  to forces
     atom    1 type  1   force =    -0.05296618    0.43385901    5.60758717
     atom    2 type  2   force =    -0.76399016   -0.13518112   39.17494163
     atom    3 type  2   force =    -0.30467252   -0.02086148  -36.31471939
     atom    4 type  1   force =     0.27229625    0.88051638    0.47686255
     atom    5 type  2   force =    -1.13180287    1.56064726   38.65894410
     atom    6 type  2   force =     0.25499630   -0.50417563  -38.01208682
     atom    7 type  1   force =    -2.53809315   -2.73902741    2.55467562
     atom    8 type  2   force =    -1.00174837    0.12222705   37.44226100
     atom    9 type  2   force =     0.33282317   -0.05334261  -37.94262007
     atom   10 type  1   force =    -1.00373830   -0.60867434    5.28020822
     atom   11 type  2   force =    -0.53559167   -1.63682170   39.12699624
     atom   12 type  2   force =     0.35528173    0.60566235  -37.84404091
     atom   13 type  1   force =     0.64206627    0.86671305    2.66888402
     atom   14 type  2   force =    -0.04395212   -0.04063176   38.60664548
     atom   15 type  2   force =     0.17777294   -0.04317428  -36.87560180
     atom   16 type  1   force =     0.01398647    3.98976724    0.65526946
     atom   17 type  2   force =     0.85236722    1.52410355   37.95606848
     atom   18 type  2   force =    -0.04340272   -0.56837861  -38.57666654
     atom   19 type  1   force =     2.55734815   -2.50109340    0.67707637
     atom   20 type  2   force =     0.21278643   -0.20933788  -38.50854223
     atom   21 type  1   force =     0.02630437   -0.07504493    1.31523930
     atom   22 type  2   force =     0.45931500   -1.73926555   38.48513152
     atom   23 type  2   force =    -0.06266881    0.59607596  -38.27869905
     atom   24 type  1   force =    -0.33169567    1.15866263    3.70396112
     atom   25 type  2   force =     0.78908964    0.01841984   39.16384785
     atom   26 type  2   force =    -0.08381229   -0.03333541  -37.45785640
     atom   27 type  1   force =    -0.28083282    0.72025573   -2.37621804
     atom   28 type  2   force =     0.42975082    2.18060256   37.42899176
     atom   29 type  2   force =    -0.27536855   -0.19962131  -37.25302305
     atom   30 type  1   force =    -0.23271940   -1.11177879   -0.03323428
     atom   31 type  2   force =     1.22860939   -0.01684889   37.33098929
     atom   32 type  2   force =    -0.47206518    0.02270122  -38.54369259
     atom   33 type  1   force =     0.76106323   -0.97139787    2.14115780
     atom   34 type  2   force =     0.19425867   -1.33874387   39.27703807
     atom   35 type  2   force =    -0.23344833    0.37842988  -37.75392556
     atom   36 type  3   force =    -0.16754694   -0.51190685    8.03814966
     The local contribution  to forces
     atom    1 type  1   force =     0.05901776   -0.47384518   -5.59584861
     atom    2 type  2   force =     0.74075817    0.13581902  -38.95757813
     atom    3 type  2   force =     0.30288038    0.03386811   36.05572913
     atom    4 type  1   force =    -0.26972600   -0.88703450   -0.47271241
     atom    5 type  2   force =     1.11972364   -1.53083549  -38.43309132
     atom    6 type  2   force =    -0.24635731    0.49852208   37.76920357
     atom    7 type  1   force =     2.56919833    2.74383654   -2.54076260
     atom    8 type  2   force =     0.99681549   -0.12343808  -37.19421590
     atom    9 type  2   force =    -0.32831537    0.07040551   37.69276899
     atom   10 type  1   force =     0.99670805    0.62300388   -5.28384724
     atom   11 type  2   force =     0.52594667    1.63030639  -38.89409442
     atom   12 type  2   force =    -0.34711119   -0.59064332   37.60647366
     atom   13 type  1   force =    -0.64240408   -0.88455734   -2.66588625
     atom   14 type  2   force =     0.04097348    0.05007811  -38.35766888
     atom   15 type  2   force =    -0.17649266    0.04659246   36.62510346
     atom   16 type  1   force =    -0.01025881   -4.03308509   -0.62872006
     atom   17 type  2   force =    -0.84689255   -1.49345775  -37.73028547
     atom   18 type  2   force =     0.03985609    0.55912339   38.33501007
     atom   19 type  1   force =    -2.57506864    2.50992711   -0.66434495
     atom   20 type  2   force =    -0.20967927    0.22429319   38.26606519
     atom   21 type  1   force =    -0.03034865    0.06309244   -1.31933949
     atom   22 type  2   force =    -0.45292519    1.73275796  -38.24926041
     atom   23 type  2   force =     0.05707905   -0.58224543   38.03942654
     atom   24 type  1   force =     0.32698129   -1.18208789   -3.71382024
     atom   25 type  2   force =    -0.78100958   -0.00483924  -38.93616282
     atom   26 type  2   force =     0.07830785    0.04585483   37.20612961
     atom   27 type  1   force =     0.28008493   -0.73077111    2.37629840
     atom   28 type  2   force =    -0.38983317   -1.90999395  -37.32639880
     atom   29 type  2   force =     0.27244656    0.20172232   37.00289699
     atom   30 type  1   force =     0.23116466    1.08518421    0.02619749
     atom   31 type  2   force =    -1.22210708    0.00959260  -37.08744368
     atom   32 type  2   force =     0.47010919   -0.00637939   38.29528617
     atom   33 type  1   force =    -0.75282697    0.96969793   -2.14278320
     atom   34 type  2   force =    -0.19263306    1.33470468  -39.03636003
     atom   35 type  2   force =     0.23043580   -0.35969683   37.51663795
     atom   36 type  3   force =     0.15988557    0.49816440   -8.01658827
     The core correction contribution to forces
     atom    1 type  1   force =     0.00000000    0.00000000    0.00000000
     atom    2 type  2   force =    -0.00105601   -0.00105146    0.01869912
     atom    3 type  2   force =     0.00035117    0.00023852   -0.02088311
     atom    4 type  1   force =     0.00000000    0.00000000    0.00000000
     atom    5 type  2   force =    -0.00099471    0.00200989    0.02030429
     atom    6 type  2   force =     0.00031309   -0.00106885   -0.02087357
     atom    7 type  1   force =     0.00000000    0.00000000    0.00000000
     atom    8 type  2   force =    -0.00032383    0.00045583    0.02033917
     atom    9 type  2   force =    -0.00016574    0.00083669   -0.02103096
     atom   10 type  1   force =     0.00000000    0.00000000    0.00000000
     atom   11 type  2   force =    -0.00060860   -0.00063239    0.02067554
     atom   12 type  2   force =     0.00099507    0.00122718   -0.02067976
     atom   13 type  1   force =     0.00000000    0.00000000    0.00000000
     atom   14 type  2   force =    -0.00055265   -0.00009928    0.02061394
     atom   15 type  2   force =     0.00065328    0.00024497   -0.02065283
     atom   16 type  1   force =     0.00000000    0.00000000    0.00000000
     atom   17 type  2   force =     0.00003118    0.00147233    0.02011489
     atom   18 type  2   force =     0.00007659   -0.00063281   -0.02097043
     atom   19 type  1   force =     0.00000000    0.00000000    0.00000000
     atom   20 type  2   force =     0.00013435    0.00073408   -0.02105272
     atom   21 type  1   force =     0.00000000    0.00000000    0.00000000
     atom   22 type  2   force =     0.00016623   -0.00063753    0.02053996
     atom   23 type  2   force =    -0.00046249    0.00111574   -0.02076912
     atom   24 type  1   force =     0.00000000    0.00000000    0.00000000
     atom   25 type  2   force =     0.00030553   -0.00035194    0.01982173
     atom   26 type  2   force =    -0.00008224    0.00075384   -0.02090863
     atom   27 type  1   force =     0.00000000    0.00000000    0.00000000
     atom   28 type  2   force =     0.00378330    0.01881569    0.00774798
     atom   29 type  2   force =    -0.00060583   -0.00030357   -0.02085389
     atom   30 type  1   force =     0.00000000    0.00000000    0.00000000
     atom   31 type  2   force =     0.00049869   -0.00009615    0.02028232
     atom   32 type  2   force =    -0.00005832    0.00095157   -0.02104448
     atom   33 type  1   force =     0.00000000    0.00000000    0.00000000
     atom   34 type  2   force =     0.00037214    0.00091906    0.02121779
     atom   35 type  2   force =    -0.00000577    0.00100511   -0.02097492
     atom   36 type  3   force =     0.00000000    0.00000000    0.00000000
     The Hubbard contrib.    to forces
     atom    1 type  1   force =     0.00000000    0.00000000    0.00000000
     atom    2 type  2   force =     0.00000000    0.00000000    0.00000000
     atom    3 type  2   force =     0.00000000    0.00000000    0.00000000
     atom    4 type  1   force =     0.00000000    0.00000000    0.00000000
     atom    5 type  2   force =     0.00000000    0.00000000    0.00000000
     atom    6 type  2   force =     0.00000000    0.00000000    0.00000000
     atom    7 type  1   force =     0.00000000    0.00000000    0.00000000
     atom    8 type  2   force =     0.00000000    0.00000000    0.00000000
     atom    9 type  2   force =     0.00000000    0.00000000    0.00000000
     atom   10 type  1   force =     0.00000000    0.00000000    0.00000000
     atom   11 type  2   force =     0.00000000    0.00000000    0.00000000
     atom   12 type  2   force =     0.00000000    0.00000000    0.00000000
     atom   13 type  1   force =     0.00000000    0.00000000    0.00000000
     atom   14 type  2   force =     0.00000000    0.00000000    0.00000000
     atom   15 type  2   force =     0.00000000    0.00000000    0.00000000
     atom   16 type  1   force =     0.00000000    0.00000000    0.00000000
     atom   17 type  2   force =     0.00000000    0.00000000    0.00000000
     atom   18 type  2   force =     0.00000000    0.00000000    0.00000000
     atom   19 type  1   force =     0.00000000    0.00000000    0.00000000
     atom   20 type  2   force =     0.00000000    0.00000000    0.00000000
     atom   21 type  1   force =     0.00000000    0.00000000    0.00000000
     atom   22 type  2   force =     0.00000000    0.00000000    0.00000000
     atom   23 type  2   force =     0.00000000    0.00000000    0.00000000
     atom   24 type  1   force =     0.00000000    0.00000000    0.00000000
     atom   25 type  2   force =     0.00000000    0.00000000    0.00000000
     atom   26 type  2   force =     0.00000000    0.00000000    0.00000000
     atom   27 type  1   force =     0.00000000    0.00000000    0.00000000
     atom   28 type  2   force =     0.00000000    0.00000000    0.00000000
     atom   29 type  2   force =     0.00000000    0.00000000    0.00000000
     atom   30 type  1   force =     0.00000000    0.00000000    0.00000000
     atom   31 type  2   force =     0.00000000    0.00000000    0.00000000
     atom   32 type  2   force =     0.00000000    0.00000000    0.00000000
     atom   33 type  1   force =     0.00000000    0.00000000    0.00000000
     atom   34 type  2   force =     0.00000000    0.00000000    0.00000000
     atom   35 type  2   force =     0.00000000    0.00000000    0.00000000
     atom   36 type  3   force =     0.00000000    0.00000000    0.00000000
     The SCF correction term to forces
     atom    1 type  1   force =    -0.00017778    0.00091038    0.00081948
     atom    2 type  2   force =    -0.00011618    0.00009917    0.00031223
     atom    3 type  2   force =    -0.00002727    0.00003706    0.00016015
     atom    4 type  1   force =    -0.00007643    0.00040693    0.00075427
     atom    5 type  2   force =     0.00002332    0.00026076    0.00020425
     atom    6 type  2   force =     0.00004968    0.00031543    0.00035383
     atom    7 type  1   force =    -0.00024025   -0.00059160    0.00068803
     atom    8 type  2   force =    -0.00017906   -0.00013980    0.00007569
     atom    9 type  2   force =    -0.00009473   -0.00008279    0.00035518
     atom   10 type  1   force =    -0.00001954   -0.00066234    0.00079482
     atom   11 type  2   force =    -0.00009098   -0.00031619    0.00022898
     atom   12 type  2   force =     0.00002391   -0.00039875    0.00028847
     atom   13 type  1   force =     0.00013265    0.00044058    0.00084271
     atom   14 type  2   force =     0.00002561    0.00010143    0.00035023
     atom   15 type  2   force =    -0.00001039    0.00011271    0.00025764
     atom   16 type  1   force =     0.00019365    0.00063874    0.00073759
     atom   17 type  2   force =     0.00015672    0.00022121    0.00027271
     atom   18 type  2   force =     0.00007080    0.00024103    0.00017392
     atom   19 type  1   force =     0.00018690   -0.00045315    0.00070662
     atom   20 type  2   force =    -0.00004780    0.00003627    0.00049751
     atom   21 type  1   force =    -0.00005754   -0.00081703    0.00087319
     atom   22 type  2   force =     0.00007074   -0.00039396    0.00013629
     atom   23 type  2   force =    -0.00004355   -0.00045293    0.00037086
     atom   24 type  1   force =    -0.00012354    0.00089116    0.00114822
     atom   25 type  2   force =     0.00010612    0.00004008    0.00029627
     atom   26 type  2   force =     0.00007013    0.00002302    0.00013849
     atom   27 type  1   force =    -0.00017660    0.00055106    0.00082609
     atom   28 type  2   force =    -0.00017063    0.00022210    0.00001703
     atom   29 type  2   force =    -0.00012137    0.00032569    0.00023852
     atom   30 type  1   force =     0.00004932   -0.00048780    0.00046440
     atom   31 type  2   force =     0.00021934    0.00008689    0.00008358
     atom   32 type  2   force =     0.00014074    0.00009841    0.00030731
     atom   33 type  1   force =     0.00010242   -0.00069518    0.00068342
     atom   34 type  2   force =     0.00001699   -0.00022323    0.00020030
     atom   35 type  2   force =     0.00002259   -0.00027166    0.00020403
     atom   36 type  3   force =    -0.00001492    0.00003192    0.00003129

     Total force =     0.085209     Total SCF correction =     0.003996
     Energy error            =      1.6E-02 Ry
     Gradient error          =      3.4E-02 Ry/Bohr

     number of scf cycles    =   2
     number of bfgs steps    =   1

     energy             old  =   -2205.5266552472 Ry
     energy             new  =   -2205.5423890090 Ry

     CASE: energy            _new < energy            _old

     new trust radius        =       0.0787410669 bohr
     new conv_thr            =       0.0000000336 Ry


ATOMIC_POSITIONS (angstrom)
Mo            6.5846173050        1.7606274716        2.8262423092
S             8.1482491486        0.8250888659        4.4402721294
S             8.1736444709        0.8226437768        1.2617340025
Mo            8.0834986328        4.4926603229        2.7200406195
S             6.4948079078        3.7164629429        4.3337270361
S             6.5601263212        3.5208385204        1.1225404328
Mo            6.4885322783        7.2134465638        2.6687230979
S             8.0831625096        6.3418602266        4.2671419977
S             8.1007298984        6.3109572271        1.0958490079
Mo            8.1523968435        9.9141743232        2.8152659493
S             6.5002175461        8.9395953563        4.3710157999
S             6.6153937937        9.0501525613        1.1451731246
Mo            3.4276940083        1.7529744417        2.7654769493
S             4.9853300144        0.8190566364        4.3648453757
S             5.0407957238        0.8476751836        1.2129628084
Mo            4.9830847010        4.5194735559        2.6439995157
S             3.4449613001        3.6792902356        4.2772252868
S             3.4284946792        3.5344540803        1.0756773117
Mo            3.4669802858        7.2172267283        2.6303425463
S             4.9878326084        6.3191491875        1.0371124480
Mo            5.0063722441        9.9100064541        2.7452570232
S             3.4706198721        8.9398397098        4.3213993104
S             3.4077495815        9.0672205918        1.1063299697
Mo            0.2970739942        1.7124003926        2.7833433281
S             1.8779949389        0.8126324112        4.4021311819
S             1.8469212321        0.8523153468        1.1971127727
Mo            1.8868003071        4.4891041866        2.6551692258
S             0.2477923602        3.6568118962        4.4046505215
S             0.2365971885        3.5296627057        1.1678124378
Mo            0.2660171257        7.2184620373        2.7027863853
S             1.9036795912        6.3141497105        4.2460084893
S             1.8514352062        6.3132807913        1.0540509618
Mo            1.8574395423        9.9358475692        2.7677887663
S             0.2981748791        9.0272992953        4.3926300465
S             0.2653310173        9.0564161825        1.1694396862
H             9.4585579545        2.4763333657        5.0994697216



     Writing config-only to output data dir ./MoS2-V-O.save/
     NEW-OLD atomic charge density approx. for the potential

     negative rho (up, down):  1.554E-04 0.000E+00

     total cpu time spent up to now is      180.2 secs

     Self-consistent Calculation

     iteration #  1     ecut=    80.00 Ry     beta= 0.70
     Davidson diagonalization with overlap
     ethr =  1.00E-06,  avg # of iterations = 15.0

     negative rho (up, down):  1.316E-04 0.000E+00

     total cpu time spent up to now is      192.6 secs

     total energy              =   -2205.55271317 Ry
     estimated scf accuracy    <       0.00244755 Ry

     iteration #  2     ecut=    80.00 Ry     beta= 0.70
     Davidson diagonalization with overlap
     ethr =  7.97E-07,  avg # of iterations =  2.0

     negative rho (up, down):  1.302E-04 0.000E+00

     total cpu time spent up to now is      211.7 secs

     total energy              =   -2205.55278361 Ry
     estimated scf accuracy    <       0.00044054 Ry

     iteration #  3     ecut=    80.00 Ry     beta= 0.70
     Davidson diagonalization with overlap
     ethr =  1.43E-07,  avg # of iterations =  6.0

     negative rho (up, down):  1.230E-04 0.000E+00

     total cpu time spent up to now is      225.6 secs

     total energy              =   -2205.55282696 Ry
     estimated scf accuracy    <       0.00015560 Ry

     iteration #  4     ecut=    80.00 Ry     beta= 0.70
     Davidson diagonalization with overlap
     ethr =  5.07E-08,  avg # of iterations =  2.0

     negative rho (up, down):  1.185E-04 0.000E+00

     total cpu time spent up to now is      237.6 secs

     total energy              =   -2205.55284193 Ry
     estimated scf accuracy    <       0.00001372 Ry

     iteration #  5     ecut=    80.00 Ry     beta= 0.70
     Davidson diagonalization with overlap
     ethr =  4.47E-09,  avg # of iterations =  5.0

     negative rho (up, down):  1.148E-04 0.000E+00

     total cpu time spent up to now is      257.6 secs

     total energy              =   -2205.55284637 Ry
     estimated scf accuracy    <       0.00000264 Ry

     iteration #  6     ecut=    80.00 Ry     beta= 0.70
     Davidson diagonalization with overlap
     ethr =  8.61E-10,  avg # of iterations =  6.0

     negative rho (up, down):  1.134E-04 0.000E+00

     total cpu time spent up to now is      276.8 secs

     total energy              =   -2205.55284670 Ry
     estimated scf accuracy    <       0.00000045 Ry

     iteration #  7     ecut=    80.00 Ry     beta= 0.70
     Davidson diagonalization with overlap
     ethr =  1.48E-10,  avg # of iterations =  6.0

     negative rho (up, down):  1.149E-04 0.000E+00

     total cpu time spent up to now is      293.3 secs

     total energy              =   -2205.55284678 Ry
     estimated scf accuracy    <       0.00000010 Ry

     iteration #  8     ecut=    80.00 Ry     beta= 0.70
     Davidson diagonalization with overlap
     ethr =  3.14E-11,  avg # of iterations =  2.0

     negative rho (up, down):  1.384E-04 0.000E+00

     total cpu time spent up to now is      295.3 secs

     End of self-consistent calculation

          k = 0.0000 0.0000 0.0000 (105382 PWs)   bands (ev):

   -62.9011 -62.8837 -62.8564 -62.8189 -62.8060 -62.8016 -62.7965 -62.7821
   -62.7696 -62.6484 -62.6302 -62.6122 -37.1976 -37.1483 -37.1390 -37.1178
   -37.1051 -37.0905 -37.0837 -37.0729 -37.0590 -37.0477 -37.0406 -37.0233
   -37.0140 -36.9960 -36.9909 -36.9863 -36.9796 -36.9753 -36.9701 -36.9620
   -36.9331 -36.9211 -36.9031 -36.8650 -36.8538 -36.8463 -36.8402 -36.8211
   -36.8172 -36.7974 -36.7867 -36.7821 -36.7773 -36.7653 -36.6123 -36.5960
   -16.2262 -15.6538 -15.0918 -15.0752 -14.9275 -14.8063 -14.6788 -14.4665
   -14.4383 -14.4037 -14.3769 -14.3257 -14.3050 -14.2553 -14.1785 -14.1141
   -14.1007 -14.0714 -13.9803 -13.9161 -13.8179 -13.7831 -13.7494  -8.9419
    -7.5415  -7.4372  -7.2735  -7.2484  -7.2051  -7.1987  -7.1193  -7.0712
    -6.7952  -6.7693  -6.7292  -6.6497  -6.6317  -6.5111  -6.4540  -6.3778
    -6.2636  -6.2134  -6.1112  -5.9529  -5.9097  -5.8870  -5.8020  -5.7924
    -5.7267  -5.7001  -5.6463  -5.6366  -5.6057  -5.5692  -5.5563  -5.4129
    -5.4041  -5.3043  -5.1315  -5.1133  -5.0562  -5.0055  -4.9502  -4.9368
    -4.9071  -4.8015  -4.6185  -4.4885  -4.3822  -4.2990  -4.2676  -4.2246
    -4.2069  -4.1077  -4.0253  -3.8493  -3.7959  -3.7668  -3.7032  -3.6811
    -3.6405  -3.5781  -3.5404  -3.5017  -3.4935  -3.4597  -3.4186  -3.3825
    -3.3110  -3.1903  -3.1101  -2.8755  -2.8531  -2.7671  -2.7526  -2.7189
    -2.6710  -2.6549  -2.6355  -2.5617  -2.5301  -2.2500  -2.0055  -1.9707
    -1.8744  -0.7687  -0.6190  -0.5901  -0.2153  -0.1123  -0.0746  -0.0297
     0.0258   0.0876   0.2329   0.3014   0.3153   0.3488   0.4040   0.4249
     0.4660   0.5767   0.5844   0.6015   0.6790   0.7173   0.7201   0.7782
     0.8199   0.8227   0.9117   0.9341   0.9522   1.0118   1.0374   1.2864
     1.4367

     the Fermi energy is    -0.7844 ev

!    total energy              =   -2205.55284665 Ry
     estimated scf accuracy    <       0.00000003 Ry
     smearing contrib. (-TS)   =      -0.00758994 Ry
     internal energy E=F+TS    =   -2205.54525671 Ry

     The total energy is F=E-TS. E is the sum of the following terms:
     one-electron contribution =  -18049.21380068 Ry
     hartree contribution      =    9011.64282014 Ry
     xc contribution           =    -385.34613538 Ry
     ewald contribution        =    7217.37185920 Ry

     convergence has been achieved in   8 iterations

     negative rho (up, down):  1.384E-04 0.000E+00

     Forces acting on atoms (cartesian axes, Ry/au):

     atom    1 type  1   force =    -0.00505839    0.00036395   -0.00638995
     atom    2 type  2   force =    -0.00173675   -0.00080952   -0.00687873
     atom    3 type  2   force =    -0.01039032    0.00079402   -0.01762688
     atom    4 type  1   force =     0.00222866    0.00196037    0.00454002
     atom    5 type  2   force =    -0.00144283   -0.00542753   -0.00300554
     atom    6 type  2   force =     0.00142374    0.00040124    0.00170516
     atom    7 type  1   force =     0.00314458   -0.00363943    0.00209360
     atom    8 type  2   force =    -0.00143487   -0.00212746    0.00655906
     atom    9 type  2   force =     0.00577566    0.00133502    0.00413574
     atom   10 type  1   force =    -0.00190099    0.00461935    0.00338226
     atom   11 type  2   force =     0.00234076    0.00003710   -0.00732723
     atom   12 type  2   force =    -0.00416613    0.00023412   -0.00061061
     atom   13 type  1   force =     0.00136914   -0.00098877    0.00028440
     atom   14 type  2   force =     0.00190887    0.00085927    0.00289958
     atom   15 type  2   force =    -0.00457928   -0.00072053   -0.00494328
     atom   16 type  1   force =     0.00177990    0.00146538   -0.00106758
     atom   17 type  2   force =     0.00690458    0.00257219    0.00130603
     atom   18 type  2   force =     0.00144842   -0.00351910    0.00248048
     atom   19 type  1   force =     0.00093364   -0.00254061    0.00269755
     atom   20 type  2   force =     0.00217182   -0.00253164   -0.00162965
     atom   21 type  1   force =    -0.00126808    0.00099521    0.00083282
     atom   22 type  2   force =     0.00157330   -0.00097933   -0.00044556
     atom   23 type  2   force =     0.00114217   -0.00021410    0.00142374
     atom   24 type  1   force =    -0.00467397    0.00055032    0.00584394
     atom   25 type  2   force =     0.00396455    0.00648061   -0.00724836
     atom   26 type  2   force =     0.00278527   -0.00578282   -0.01145336
     atom   27 type  1   force =    -0.00182435    0.00049553    0.00784005
     atom   28 type  2   force =    -0.00057591    0.01759447    0.00646006
     atom   29 type  2   force =     0.00295729    0.00249210    0.00016296
     atom   30 type  1   force =     0.00089873   -0.00780415    0.00500261
     atom   31 type  2   force =     0.00240439   -0.00203862    0.00391035
     atom   32 type  2   force =    -0.00082776    0.00114108    0.00476556
     atom   33 type  1   force =     0.00087313    0.00093589    0.00411089
     atom   34 type  2   force =    -0.00200930   -0.01568728   -0.01246175
     atom   35 type  2   force =    -0.00221851    0.00402607    0.00301619
     atom   36 type  3   force =    -0.00392116    0.00545758    0.00563541
     The non-local contrib.  to forces
     atom    1 type  1   force =    -0.00137088    0.02299504   -0.01272066
     atom    2 type  2   force =     0.01242154   -0.00359432   -0.23954523
     atom    3 type  2   force =    -0.00735762   -0.01194714    0.26113279
     atom    4 type  1   force =    -0.00855212    0.00565444   -0.00386453
     atom    5 type  2   force =     0.01106496   -0.03746767   -0.25068917
     atom    6 type  2   force =    -0.00850055    0.00691048    0.26592243
     atom    7 type  1   force =    -0.02969465   -0.00636509   -0.01555222
     atom    8 type  2   force =     0.00453899    0.00033509   -0.25944319
     atom    9 type  2   force =     0.00078500   -0.01548520    0.27577782
     atom   10 type  1   force =     0.00249395   -0.00573547   -0.00629137
     atom   11 type  2   force =     0.01183817    0.00588825   -0.26191776
     atom   12 type  2   force =    -0.01237886   -0.01548932    0.25934935
     atom   13 type  1   force =     0.00346573    0.02216380   -0.00814071
     atom   14 type  2   force =     0.00597177   -0.00863310   -0.26459704
     atom   15 type  2   force =    -0.00729891   -0.00432580    0.26351341
     atom   16 type  1   force =    -0.00240494    0.04571824   -0.02383794
     atom   17 type  2   force =     0.00311899   -0.02871341   -0.24381107
     atom   18 type  2   force =     0.00533866    0.00520643    0.26698985
     atom   19 type  1   force =     0.02376372   -0.00639684   -0.01310236
     atom   20 type  2   force =    -0.00100947   -0.01758604    0.26079315
     atom   21 type  1   force =    -0.00012149    0.01784964    0.00466151
     atom   22 type  2   force =    -0.00517801    0.00562371   -0.25771949
     atom   23 type  2   force =     0.00705393   -0.01463714    0.26218929
     atom   24 type  1   force =     0.00400971    0.00258377   -0.01457872
     atom   25 type  2   force =    -0.00075084   -0.00802623   -0.25135987
     atom   26 type  2   force =     0.00647997   -0.01741180    0.26057024
     atom   27 type  1   force =     0.01519836    0.00493232   -0.00111003
     atom   28 type  2   force =    -0.05135614   -0.28684459   -0.10860324
     atom   29 type  2   force =     0.00640871   -0.00351991    0.27199758
     atom   30 type  1   force =    -0.00120201    0.02582987    0.00955449
     atom   31 type  2   force =    -0.00426515    0.00826638   -0.25743669
     atom   32 type  2   force =     0.00160925   -0.01561658    0.27514495
     atom   33 type  1   force =    -0.00098471   -0.00012672    0.00057849
     atom   34 type  2   force =    -0.00320307   -0.01619827   -0.27674140
     atom   35 type  2   force =    -0.00053697   -0.01484281    0.26365290
     atom   36 type  3   force =     0.00894801    0.04604741   -0.03023967
     The ionic contribution  to forces
     atom    1 type  1   force =    -0.12632627    0.75857053    5.59612992
     atom    2 type  2   force =    -0.42967455   -0.15559592   39.23921013
     atom    3 type  2   force =    -0.34374927    0.00653462  -36.57753978
     atom    4 type  1   force =     0.75001876    0.71786813    0.67853338
     atom    5 type  2   force =    -1.07273144    1.48120953   38.57461271
     atom    6 type  2   force =     0.22182231   -0.51575218  -37.94914202
     atom    7 type  1   force =    -2.42168087   -2.67544997    2.50711950
     atom    8 type  2   force =    -0.99465565    0.10393525   37.56204773
     atom    9 type  2   force =     0.33278272   -0.09863301  -37.86811844
     atom   10 type  1   force =    -0.76228325   -0.67495265    5.03064871
     atom   11 type  2   force =    -0.47419353   -1.61520983   39.04695321
     atom   12 type  2   force =     0.29600397    0.50824563  -37.82503036
     atom   13 type  1   force =     0.49068266    0.80178927    2.59954110
     atom   14 type  2   force =    -0.13516844   -0.01952476   38.73446767
     atom   15 type  2   force =     0.20050136   -0.01429658  -36.99056942
     atom   16 type  1   force =     0.04990880    3.92329942    0.83290360
[...]
     atom   27 type  1   force =     0.01573510    0.00308317   -0.00597185
     atom   28 type  2   force =    -0.04684200   -0.32444765   -0.14586776
     atom   29 type  2   force =     0.00070530   -0.01056734    0.27225989
     atom   30 type  1   force =    -0.00064664    0.02378731    0.00753391
     atom   31 type  2   force =    -0.00822872    0.00882341   -0.25877727
     atom   32 type  2   force =     0.00742632   -0.01314103    0.27269259
     atom   33 type  1   force =    -0.00011812    0.00014433   -0.00004869
     atom   34 type  2   force =     0.00092624   -0.00876223   -0.27264747
     atom   35 type  2   force =    -0.00098035   -0.01486229    0.26600330
     atom   36 type  3   force =     0.01142522    0.04931118   -0.02939498
     The ionic contribution  to forces
     atom    1 type  1   force =    -0.03051542    0.53655582    2.21155164
     atom    2 type  2   force =    -0.28033252   -0.17772257   38.60777947
     atom    3 type  2   force =    -0.00278085   -0.03056256  -37.56657312
     atom    4 type  1   force =     0.74239861    0.09194052    1.76747514
     atom    5 type  2   force =    -1.01383378    1.08538893   38.38094323
     atom    6 type  2   force =     0.33818657   -0.28513288  -38.19321016
     atom    7 type  1   force =    -2.55254260   -2.11735174    2.39256859
     atom    8 type  2   force =    -1.23310782    0.35893923   38.21391424
     atom    9 type  2   force =     0.41035334   -0.03144027  -37.76881576
     atom   10 type  1   force =    -0.31699560   -0.55146945    2.83957988
     atom   11 type  2   force =    -0.45722740   -1.34961465   38.61164130
     atom   12 type  2   force =     0.26342096    0.29894017  -37.98417585
     atom   13 type  1   force =     0.02300629    0.54150358    2.02074463
     atom   14 type  2   force =    -0.05791021   -0.08104153   38.47832529
     atom   15 type  2   force =     0.03695951   -0.09205934  -37.50398353
     atom   16 type  1   force =    -0.08879902    3.81494309    0.61930752
     atom   17 type  2   force =     0.78935295    1.08918125   38.26863955
     atom   18 type  2   force =    -0.22387267   -0.26984119  -38.33393609
     atom   19 type  1   force =     2.43389174   -2.19023298    2.10404743
     atom   20 type  2   force =     0.01178189   -0.08982151  -38.60383114
     atom   21 type  1   force =    -0.00293204   -0.17378060    1.10827725
     atom   22 type  2   force =     0.41331856   -1.38137298   38.60078928
     atom   23 type  2   force =    -0.26483518    0.29853493  -38.01218687
     atom   24 type  1   force =     0.00266421    1.63207109    1.92818433
     atom   25 type  2   force =     0.30687435    0.00872821   38.70837883
     atom   26 type  2   force =    -0.02575043   -0.07409086  -37.64341578
     atom   27 type  1   force =    -0.84784658    0.09004715    0.84446490
     atom   28 type  2   force =     0.58638928    1.23446809   38.18773998
     atom   29 type  2   force =    -0.09050658    0.11486015  -36.68671655
     atom   30 type  1   force =     0.11653175   -0.72836952    1.91215383
     atom   31 type  2   force =     1.29034406    0.24022022   38.05158888
     atom   32 type  2   force =    -0.44266546    0.04162785  -37.85434164
     atom   33 type  1   force =     0.35686971   -0.57698265    2.98707950
     atom   34 type  2   force =     0.03417689   -0.46173810   38.73845348
     atom   35 type  2   force =    -0.00471267    0.02284824  -37.34815486
     atom   36 type  3   force =    -0.21935383   -0.83817315    7.91571317
     The local contribution  to forces
     atom    1 type  1   force =     0.03494883   -0.55655989   -2.20587168
     atom    2 type  2   force =     0.27342891    0.18230661  -38.38982121
     atom    3 type  2   force =     0.00246906    0.04292285   37.31720661
     atom    4 type  1   force =    -0.73372710   -0.09926423   -1.75911256
     atom    5 type  2   force =     1.00273882   -1.05960969  -38.15235925
     atom    6 type  2   force =    -0.32847409    0.28401977   37.94901852
     atom    7 type  1   force =     2.57920625    2.11903633   -2.37648374
     atom    8 type  2   force =     1.22133518   -0.36257480  -37.97265020
     atom    9 type  2   force =    -0.40233580    0.04421897   37.51782254
     atom   10 type  1   force =     0.31518612    0.55356330   -2.83877176
     atom   11 type  2   force =     0.44958686    1.35019864  -38.37348512
     atom   12 type  2   force =    -0.25676316   -0.28703073   37.74317791
     atom   13 type  1   force =    -0.02652725   -0.56350388   -2.01566638
     atom   14 type  2   force =     0.05744921    0.09132587  -38.23362629
     atom   15 type  2   force =    -0.03678727    0.09628283   37.25994053
     atom   16 type  1   force =     0.08890341   -3.86129806   -0.59696941
     atom   17 type  2   force =    -0.78319575   -1.06385282  -38.04339651
     atom   18 type  2   force =     0.21701374    0.26549134   38.08993146
     atom   19 type  1   force =    -2.45985837    2.19294121   -2.08656124
     atom   20 type  2   force =    -0.01108575    0.10330859   38.36365309
     atom   21 type  1   force =     0.00362715    0.15541545   -1.11398175
     atom   22 type  2   force =    -0.40576144    1.38041872  -38.36296019
     atom   23 type  2   force =     0.25826829   -0.28711448   37.77120231
     atom   24 type  1   force =    -0.00262840   -1.63246014   -1.91525665
     atom   25 type  2   force =    -0.30591865    0.00459993  -38.48062417
     atom   26 type  2   force =     0.02481344    0.08601959   37.39593955
     atom   27 type  1   force =     0.83095381   -0.09344779   -0.83743365
     atom   28 type  2   force =    -0.54341328   -0.93222132  -38.05270057
     atom   29 type  2   force =     0.09025817   -0.10584884   36.43706620
     atom   30 type  1   force =    -0.11571114    0.70447633   -1.91975551
     atom   31 type  2   force =    -1.28234095   -0.24952522  -37.81268483
     atom   32 type  2   force =     0.43654762   -0.02877185   37.60303971
     atom   33 type  1   force =    -0.35676016    0.57737364   -2.98731320
     atom   34 type  2   force =    -0.03471729    0.47090039  -38.48741321
     atom   35 type  2   force =     0.00537532   -0.00769750   37.10416646
     atom   36 type  3   force =     0.20777497    0.78862324   -7.88665471
     The core correction contribution to forces
     atom    1 type  1   force =     0.00000000    0.00000000    0.00000000
     atom    2 type  2   force =    -0.00079042   -0.00032818    0.01906457
     atom    3 type  2   force =    -0.00007081    0.00046183   -0.02109437
     atom    4 type  1   force =     0.00000000    0.00000000    0.00000000
     atom    5 type  2   force =    -0.00112528    0.00113008    0.02014339
     atom    6 type  2   force =     0.00064880   -0.00039387   -0.02087233
     atom    7 type  1   force =     0.00000000    0.00000000    0.00000000
     atom    8 type  2   force =    -0.00071118    0.00029465    0.02056725
     atom    9 type  2   force =     0.00063274    0.00073695   -0.02103726
     atom   10 type  1   force =     0.00000000    0.00000000    0.00000000
     atom   11 type  2   force =    -0.00021377   -0.00025361    0.02057429
     atom   12 type  2   force =     0.00057398    0.00090166   -0.02072241
     atom   13 type  1   force =     0.00000000    0.00000000    0.00000000
     atom   14 type  2   force =    -0.00009595    0.00019783    0.02074880
     atom   15 type  2   force =     0.00001150    0.00015564   -0.02070894
     atom   16 type  1   force =     0.00000000    0.00000000    0.00000000
     atom   17 type  2   force =     0.00075181    0.00110318    0.02005488
     atom   18 type  2   force =    -0.00032794   -0.00052672   -0.02089938
     atom   19 type  1   force =     0.00000000    0.00000000    0.00000000
     atom   20 type  2   force =     0.00006990    0.00057630   -0.02104537
     atom   21 type  1   force =     0.00000000    0.00000000    0.00000000
     atom   22 type  2   force =     0.00018399   -0.00037756    0.02055299
     atom   23 type  2   force =    -0.00058244    0.00093632   -0.02071092
     atom   24 type  1   force =     0.00000000    0.00000000    0.00000000
     atom   25 type  2   force =     0.00039225    0.00033594    0.01981977
     atom   26 type  2   force =    -0.00002449    0.00040945   -0.02105611
     atom   27 type  1   force =     0.00000000    0.00000000    0.00000000
     atom   28 type  2   force =     0.00363770    0.02049955    0.01026055
     atom   29 type  2   force =    -0.00017359    0.00057980   -0.02101793
     atom   30 type  1   force =     0.00000000    0.00000000    0.00000000
     atom   31 type  2   force =     0.00061069   -0.00002019    0.02041219
     atom   32 type  2   force =    -0.00059683    0.00084404   -0.02106986
     atom   33 type  1   force =     0.00000000    0.00000000    0.00000000
     atom   34 type  2   force =    -0.00004719    0.00024399    0.02109339
     atom   35 type  2   force =     0.00004504    0.00078262   -0.02086993
     atom   36 type  3   force =     0.00000000    0.00000000    0.00000000
     The Hubbard contrib.    to forces
     atom    1 type  1   force =     0.00000000    0.00000000    0.00000000
     atom    2 type  2   force =     0.00000000    0.00000000    0.00000000
     atom    3 type  2   force =     0.00000000    0.00000000    0.00000000
     atom    4 type  1   force =     0.00000000    0.00000000    0.00000000
     atom    5 type  2   force =     0.00000000    0.00000000    0.00000000
     atom    6 type  2   force =     0.00000000    0.00000000    0.00000000
     atom    7 type  1   force =     0.00000000    0.00000000    0.00000000
     atom    8 type  2   force =     0.00000000    0.00000000    0.00000000
     atom    9 type  2   force =     0.00000000    0.00000000    0.00000000
     atom   10 type  1   force =     0.00000000    0.00000000    0.00000000
     atom   11 type  2   force =     0.00000000    0.00000000    0.00000000
     atom   12 type  2   force =     0.00000000    0.00000000    0.00000000
     atom   13 type  1   force =     0.00000000    0.00000000    0.00000000
     atom   14 type  2   force =     0.00000000    0.00000000    0.00000000
     atom   15 type  2   force =     0.00000000    0.00000000    0.00000000
     atom   16 type  1   force =     0.00000000    0.00000000    0.00000000
     atom   17 type  2   force =     0.00000000    0.00000000    0.00000000
     atom   18 type  2   force =     0.00000000    0.00000000    0.00000000
     atom   19 type  1   force =     0.00000000    0.00000000    0.00000000
     atom   20 type  2   force =     0.00000000    0.00000000    0.00000000
     atom   21 type  1   force =     0.00000000    0.00000000    0.00000000
     atom   22 type  2   force =     0.00000000    0.00000000    0.00000000
     atom   23 type  2   force =     0.00000000    0.00000000    0.00000000
     atom   24 type  1   force =     0.00000000    0.00000000    0.00000000
     atom   25 type  2   force =     0.00000000    0.00000000    0.00000000
     atom   26 type  2   force =     0.00000000    0.00000000    0.00000000
     atom   27 type  1   force =     0.00000000    0.00000000    0.00000000
     atom   28 type  2   force =     0.00000000    0.00000000    0.00000000
     atom   29 type  2   force =     0.00000000    0.00000000    0.00000000
     atom   30 type  1   force =     0.00000000    0.00000000    0.00000000
     atom   31 type  2   force =     0.00000000    0.00000000    0.00000000
     atom   32 type  2   force =     0.00000000    0.00000000    0.00000000
     atom   33 type  1   force =     0.00000000    0.00000000    0.00000000
     atom   34 type  2   force =     0.00000000    0.00000000    0.00000000
     atom   35 type  2   force =     0.00000000    0.00000000    0.00000000
     atom   36 type  3   force =     0.00000000    0.00000000    0.00000000
     The SCF correction term to forces
     atom    1 type  1   force =    -0.00000688   -0.00000074    0.00006808
     atom    2 type  2   force =    -0.00001516    0.00000556    0.00002759
     atom    3 type  2   force =    -0.00000265    0.00000608    0.00000907
     atom    4 type  1   force =    -0.00005553    0.00001494    0.00002624
     atom    5 type  2   force =    -0.00000224   -0.00000511    0.00001309
     atom    6 type  2   force =    -0.00000517    0.00001571    0.00001544
     atom    7 type  1   force =    -0.00000128   -0.00004566    0.00003380
     atom    8 type  2   force =    -0.00002231   -0.00000765    0.00001083
     atom    9 type  2   force =    -0.00001539   -0.00000689    0.00000735
     atom   10 type  1   force =    -0.00001023    0.00000804    0.00004794
     atom   11 type  2   force =     0.00000158    0.00000565    0.00002655
     atom   12 type  2   force =     0.00000043   -0.00000783    0.00001195
     atom   13 type  1   force =     0.00001620    0.00000453    0.00004200
     atom   14 type  2   force =     0.00001141    0.00001049    0.00002635
     atom   15 type  2   force =     0.00000029    0.00001167    0.00001667
     atom   16 type  1   force =     0.00002356    0.00000033    0.00003338
     atom   17 type  2   force =     0.00001876   -0.00001101    0.00000663
     atom   18 type  2   force =     0.00000023    0.00001377    0.00000728
     atom   19 type  1   force =     0.00002873   -0.00001677    0.00000539
     atom   20 type  2   force =     0.00000425   -0.00001025    0.00001288
     atom   21 type  1   force =     0.00001059    0.00000745    0.00004667
     atom   22 type  2   force =     0.00001012    0.00001692    0.00002383
     atom   23 type  2   force =    -0.00000111   -0.00000503   -0.00000174
     atom   24 type  1   force =    -0.00001788   -0.00000262    0.00003556
     atom   25 type  2   force =     0.00000268    0.00000234    0.00002863
     atom   26 type  2   force =     0.00000242    0.00000546   -0.00000278
     atom   27 type  1   force =     0.00004616   -0.00000016   -0.00001490
     atom   28 type  2   force =    -0.00001418   -0.00001783    0.00004703
     atom   29 type  2   force =    -0.00000033   -0.00000032   -0.00000992
     atom   30 type  1   force =    -0.00001850    0.00000463    0.00002990
     atom   31 type  2   force =     0.00000023   -0.00000446    0.00001384
     atom   32 type  2   force =     0.00001022   -0.00001280   -0.00001690
     atom   33 type  1   force =    -0.00000270    0.00001211    0.00003093
     atom   34 type  2   force =    -0.00000951    0.00001062    0.00002441
     atom   35 type  2   force =    -0.00000157   -0.00000209   -0.00000208
     atom   36 type  3   force =    -0.00000130    0.00000067    0.00000409

     Total force =     0.006175     Total SCF correction =     0.000201
     Energy error            =      8.6E-05 Ry
     Gradient error          =      1.7E-03 Ry/Bohr

     bfgs converged in  14 scf cycles and  13 bfgs steps
     (criteria: energy <  1.0E-04 Ry, force <  1.0E-02 Ry/Bohr)

     End of BFGS Geometry Optimization

     Final energy             =   -2205.5636407444 Ry

     File ./MoS2-V-O.bfgs deleted, as requested
Begin final coordinates

ATOMIC_POSITIONS (angstrom)
Mo            6.5689284559        1.7487248098        2.7580010368
S             8.1228278030        0.8333711508        4.3735443089
S             8.1551378058        0.8309593407        1.1729287285
Mo            8.0891575350        4.4992075148        2.7460129414
S             6.4977807906        3.6585500181        4.3155664227
S             6.5782873766        3.5419995749        1.1062987878
Mo            6.5105037973        7.1966543049        2.6710240617
S             8.0626619389        6.3322592519        4.3169101051
S             8.1386329137        6.3050003095        1.1229847560
Mo            8.1431238272        9.9266723885        2.7703620299
S             6.5197983197        8.9513164564        4.3296611279
S             6.5947092662        9.0324755179        1.1259624624
Mo            3.4191110486        1.7496626268        2.7500585030
S             4.9897524836        0.8194756365        4.3390806769
S             4.9957075593        0.8323415125        1.1691921568
Mo            5.0013969951        4.5141722535        2.6452095128
S             3.4966923940        3.6631203642        4.3007313004
S             3.4280822121        3.5376540302        1.0955954931
Mo            3.4852753331        7.1979782999        2.6639582418
S             5.0016258638        6.3098358004        1.0427123320
Mo            4.9968065054        9.9061340777        2.7309787505
S             3.4750134037        8.9466738540        4.3273679608
S             3.3995371973        9.0364422624        1.1228838074
Mo            0.2708948123        1.7234958182        2.7569366722
S             1.8588995763        0.8426135089        4.3694414610
S             1.8330812629        0.8323559079        1.1689601887
Mo            1.9075029663        4.4856310057        2.7191491944
S             0.2393073096        3.7649817647        4.4879058976
S             0.2623984390        3.5653986231        1.1944504508
Mo            0.2727089467        7.1873099248        2.7444464898
S             1.9369226543        6.3119765387        4.3060201283
S             1.8633946768        6.2967027931        1.1124930462
Mo            1.8527308117        9.9294086148        2.7710908884
S             0.2704972655        9.0026654298        4.3609570559
S             0.2707147010        9.0257560643        1.1799929981
H             9.4195027637        2.5706135044        5.1218776007
End final coordinates



     Writing all to output data dir ./MoS2-V-O.save/
 
     init_run     :      2.47s CPU      2.67s WALL (       1 calls)
     electrons    :   1183.53s CPU   1297.39s WALL (      14 calls)
     update_pot   :     18.57s CPU     19.36s WALL (      13 calls)
     forces       :     19.61s CPU     21.01s WALL (      14 calls)

     Called by init_run:
     wfcinit      :      0.39s CPU      0.44s WALL (       1 calls)
     potinit      :      1.36s CPU      1.45s WALL (       1 calls)
     hinit0       :      0.16s CPU      0.18s WALL (       1 calls)

     Called by electrons:
     c_bands      :    155.27s CPU    157.05s WALL (     124 calls)
     sum_band     :     41.13s CPU     44.75s WALL (     124 calls)
     v_of_rho     :     52.30s CPU     60.15s WALL (     128 calls)
     newd         :     21.49s CPU     24.01s WALL (     128 calls)
     mix_rho      :    920.01s CPU   1017.49s WALL (     124 calls)

     Called by c_bands:
     init_us_2    :      2.75s CPU      2.84s WALL (     249 calls)
     init_us_2:cp :      2.75s CPU      2.84s WALL (     249 calls)
     regterg      :    146.13s CPU    147.79s WALL (     124 calls)

     Called by *egterg:
     rdiaghg      :     12.42s CPU     12.53s WALL (     687 calls)
     h_psi        :     83.50s CPU     84.23s WALL (     711 calls)
     s_psi        :     11.09s CPU     11.13s WALL (     711 calls)
     g_psi        :      0.55s CPU      0.55s WALL (     586 calls)

     Called by h_psi:
     h_psi:calbec :     12.12s CPU     12.17s WALL (     711 calls)
     vloc_psi     :     58.97s CPU     59.58s WALL (     711 calls)
     add_vuspsi   :     11.09s CPU     11.16s WALL (     711 calls)

     General routines
     calbec       :     17.43s CPU     17.49s WALL (     891 calls)
     fft          :     36.60s CPU     42.31s WALL (    8629 calls)
     ffts         :    407.25s CPU    501.53s WALL (  224570 calls)
     fftw         :     49.53s CPU     50.03s WALL (   75236 calls)
     interpolate  :      0.96s CPU      1.11s WALL (     128 calls)
 
     Parallel routines
 
     PWSCF        :  20m27.09s CPU  22m24.88s WALL

 
   This run was terminated on:   0: 8:51   4Nov2023            

=------------------------------------------------------------------------------=
   JOB DONE.
=------------------------------------------------------------------------------=
