
     Program PWSCF v.7.2 starts on  3Nov2023 at 22: 5: 5 

     This program is part of the open-source Quantum ESPRESSO suite
     for quantum simulation of materials; please cite
         "P. Giannozzi et al., J. Phys.:Condens. Matter 21 395502 (2009);
         "P. Giannozzi et al., J. Phys.:Condens. Matter 29 465901 (2017);
         "P. Giannozzi et al., J. Chem. Phys. 152 154105 (2020);
          URL http://www.quantum-espresso.org", 
     in publications or presentations arising from this work. More details at
     http://www.quantum-espresso.org/quote

     Parallel version (MPI & OpenMP), running on      48 processor cores
     Number of MPI processes:                48
     Threads/MPI process:                     1

     MPI processes distributed on     1 nodes
     92405 MiB available memory on the printing compute node when the environment starts
 
     Waiting for input...
     Reading input from standard input
Warning: card &CELL ignored
Warning: card CELL_DYNAMICS = 'BFGS', ignored
Warning: card CELL_DOFREE = '2DXY' ignored
Warning: card / ignored

     Current dimensions of program PWSCF are:
     Max number of different atomic species (ntypx) = 10
     Max number of k-points (npk) =  40000
     Max angular momentum in pseudopotentials (lmaxx) =  4

     IMPORTANT: XC functional enforced from input :
     Exchange-correlation= RVV10
                           (   1   4  13   4  26   0   0)
     Any further DFT definition will be discarded
     Please, verify this is what you really want


     gamma-point specific algorithms are used
     signal trapping enabled: kill the code with -SIGUSR1 to stop cleanly the simulation 
 
     R & G space division:  proc/nbgrp/npool/nimage =      48
     Subspace diagonalization in iterative solution of the eigenvalue problem:
     one sub-group per band group will be used
     scalapack distributed-memory algorithm (size of sub-group:  2*  2 procs)

 
     Parallelization info
     --------------------
     sticks:   dense  smooth     PW     G-vecs:    dense   smooth      PW
     Min         243     194     47                49060    35090    4376
     Max         246     196     50                49086    35128    4410
     Sum       11735    9389   2349              2355467  1685513  210763
 
     Using Slab Decomposition
 


     bravais-lattice index     =            0
     lattice parameter (alat)  =      17.8707  a.u.
     unit-cell volume          =   17436.2743 (a.u.)^3
     number of atoms/cell      =           36
     number of atomic types    =            3
     number of electrons       =       307.00
     number of Kohn-Sham states=          185
     kinetic-energy cutoff     =      80.0000  Ry
     charge density cutoff     =     400.0000  Ry
     scf convergence threshold =      1.0E-06
     mixing beta               =       0.7000
     number of iterations used =            8  local-TF  mixing
     energy convergence thresh.=      1.0E-04
     force convergence thresh. =      1.0E-02
     Exchange-correlation= RVV10
                           (   1   4  13   4  26   0   0)
     nstep                     =          200


     celldm(1)=  17.870686  celldm(2)=   0.000000  celldm(3)=   0.000000
     celldm(4)=   0.000000  celldm(5)=   0.000000  celldm(6)=   0.000000

     crystal axes: (cart. coord. in units of alat)
               a(1) = (   1.000000   0.000000   0.000000 )  
               a(2) = (   0.000000   1.155671   0.000000 )  
               a(3) = (   0.000000   0.000000   2.643601 )  

     reciprocal axes: (cart. coord. in units 2 pi/alat)
               b(1) = (  1.000000  0.000000  0.000000 )  
               b(2) = (  0.000000  0.865298  0.000000 )  
               b(3) = (  0.000000  0.000000  0.378272 )  


     PseudoPot. # 1 for Mo read from file:
     ../pseudo/Mo_ONCV_PBE-1.0.oncvpsp.upf
     MD5 check sum: 1b5d28e075c9ccadda658a603575cd1f
     Pseudo is Norm-conserving, Zval = 14.0
     Generated using ONCVPSP code by D. R. Hamann
     Using radial grid of 1526 points,  6 beta functions with: 
                l(1) =   0
                l(2) =   0
                l(3) =   1
                l(4) =   1
                l(5) =   2
                l(6) =   2

     PseudoPot. # 2 for S  read from file:
     ../pseudo/s_pbe_v1.4.uspp.F.UPF
     MD5 check sum: 88d86576ff6df21479756cfb9bdac1df
     Pseudo is Ultrasoft + core correction, Zval =  6.0
     Generated by new atomic code, or converted to UPF format
     Using radial grid of  907 points,  6 beta functions with: 
                l(1) =   0
                l(2) =   0
                l(3) =   1
                l(4) =   1
                l(5) =   2
                l(6) =   2
     Q(r) pseudized with  8 coefficients,  rinner =    1.300   1.300   1.300
                                                       1.300   1.300

     PseudoPot. # 3 for H  read from file:
     ../pseudo/H_ONCV_PBE-1.0.oncvpsp.upf
     MD5 check sum: 1790becc920ee074925cf490c71280fe
     Pseudo is Norm-conserving, Zval =  1.0
     Generated using ONCVPSP code by D. R. Hamann
     Using radial grid of 1166 points,  2 beta functions with: 
                l(1) =   0
                l(2) =   0

     atomic species   valence    mass     pseudopotential
        Mo            14.00    95.94000     Mo( 1.00)
        S              6.00    32.06500     S ( 1.00)
        H              1.00     1.00794     H ( 1.00)

     No symmetry found



   Cartesian axes

     site n.     atom                  positions (alat units)
         1           Mo  tau(   1) = (   0.6952221   0.1890506   0.2985846  )
         2           S   tau(   2) = (   0.8646417   0.0856217   0.4689279  )
         3           S   tau(   3) = (   0.8663890   0.0857843   0.1351291  )
         4           Mo  tau(   4) = (   0.8560186   0.4753274   0.2873942  )
         5           S   tau(   5) = (   0.6873294   0.3936244   0.4596353  )
         6           S   tau(   6) = (   0.6929804   0.3713468   0.1185692  )
         7           Mo  tau(   7) = (   0.6862796   0.7633098   0.2825370  )
         8           S   tau(   8) = (   0.8545980   0.6708292   0.4486168  )
         9           S   tau(   9) = (   0.8545123   0.6666874   0.1146125  )
        10           Mo  tau(  10) = (   0.8629403   1.0471007   0.3006803  )
        11           S   tau(  11) = (   0.6868280   0.9456650   0.4634891  )
        12           S   tau(  12) = (   0.6998113   0.9568511   0.1205389  )
        13           Mo  tau(  13) = (   0.3618216   0.1847309   0.2935964  )
        14           S   tau(  14) = (   0.5260962   0.0863870   0.4600448  )
        15           S   tau(  15) = (   0.5348379   0.0894875   0.1297123  )
        16           Mo  tau(  16) = (   0.5265817   0.4772436   0.2784130  )
        17           S   tau(  17) = (   0.3624753   0.3882513   0.4525556  )
        18           S   tau(  18) = (   0.3635411   0.3752055   0.1119148  )
        19           Mo  tau(  19) = (   0.3652268   0.7630864   0.2781795  )
        20           S   tau(  20) = (   0.5269494   0.6690381   0.1096838  )
        21           Mo  tau(  21) = (   0.5300192   1.0470394   0.2900995  )
        22           S   tau(  22) = (   0.3670346   0.9457522   0.4574073  )
        23           S   tau(  23) = (   0.3604225   0.9585725   0.1159032  )
        24           Mo  tau(  24) = (   0.0313099   0.1847895   0.3013130  )
        25           S   tau(  25) = (   0.1956761   0.0838230   0.4650863  )
        26           S   tau(  26) = (   0.1967693   0.0903508   0.1278874  )
        27           Mo  tau(  27) = (   0.1967578   0.4753919   0.2813011  )
        28           S   tau(  28) = (   0.0287851   0.3864324   0.4586755  )
        29           S   tau(  29) = (   0.0244514   0.3729871   0.1239344  )
        30           Mo  tau(  30) = (   0.0286728   0.7631204   0.2856894  )
        31           S   tau(  31) = (   0.2011512   0.6675435   0.4465001  )
        32           S   tau(  32) = (   0.1969214   0.6672839   0.1104564  )
        33           Mo  tau(  33) = (   0.1950294   1.0511147   0.2932237  )
        34           S   tau(  34) = (   0.0312912   0.9612169   0.4667423  )
        35           S   tau(  35) = (   0.0292670   0.9563028   0.1216485  )
        36           H   tau(  36) = (   0.8888889   0.1284079   0.5407634  )

     number of k points=     1  Gaussian smearing, width (Ry)=  0.0100
                       cart. coord. in units 2pi/alat
        k(    1) = (   0.0000000   0.0000000   0.0000000), wk =   2.0000000

     Dense  grid:  1177734 G-vectors     FFT dimensions: ( 120, 135, 320)

     Smooth grid:   842757 G-vectors     FFT dimensions: ( 108, 120, 270)

     Estimated max dynamical RAM per process >     146.59 MB

     Estimated total dynamical RAM >       6.87 GB

     Initial potential from superposition of free atoms

     starting charge     306.9873, renormalised to     307.0000

     negative rho (up, down):  1.418E-04 0.000E+00


---------------------------------------------------------------------------------
Carrying out rVV10 run using the following parameters:
Nqs =      20    Nr_points =    1024   r_max =   100.000
b_value =  6.30000    beta =  0.00901
     q_mesh =  0.00010000  0.00030000  0.00058939  0.00100810
               0.00161396  0.00249058  0.00375900  0.00559430
               0.00824984  0.01209221  0.01765183  0.02569619
               0.03733578  0.05417739  0.07854596  0.11380545
               0.16482331  0.23864234  0.34545298  0.50000000

Gradients computed in Reciprocal space

---------------------------------------------------------------------------------


     Starting wfcs are  213 randomized atomic wfcs

     total cpu time spent up to now is        3.7 secs

     Self-consistent Calculation

     iteration #  1     ecut=    80.00 Ry     beta= 0.70
     Davidson diagonalization with overlap
     ethr =  1.00E-02,  avg # of iterations =  3.0

     Threshold (ethr) on eigenvalues was too large:
     Diagonalizing with lowered threshold

     Davidson diagonalization with overlap
     ethr =  4.22E-04,  avg # of iterations =  4.0

     negative rho (up, down):  1.634E-08 0.000E+00

     total cpu time spent up to now is       16.6 secs

     total energy              =   -2204.88661807 Ry
     estimated scf accuracy    <       1.58482531 Ry

     iteration #  2     ecut=    80.00 Ry     beta= 0.70
     Davidson diagonalization with overlap
     ethr =  5.16E-04,  avg # of iterations =  2.0

     total cpu time spent up to now is       18.9 secs

     total energy              =   -2204.71222823 Ry
     estimated scf accuracy    <       0.61967051 Ry

     iteration #  3     ecut=    80.00 Ry     beta= 0.70
     Davidson diagonalization with overlap
     ethr =  2.02E-04,  avg # of iterations =  2.0

     total cpu time spent up to now is       21.4 secs

     total energy              =   -2204.79959378 Ry
     estimated scf accuracy    <       0.08169386 Ry

     iteration #  4     ecut=    80.00 Ry     beta= 0.70
     Davidson diagonalization with overlap
     ethr =  2.66E-05,  avg # of iterations = 16.0

     total cpu time spent up to now is       24.5 secs

     total energy              =   -2204.80408845 Ry
     estimated scf accuracy    <       0.03878912 Ry

     iteration #  5     ecut=    80.00 Ry     beta= 0.70
     Davidson diagonalization with overlap
     ethr =  1.26E-05,  avg # of iterations =  2.0

     total cpu time spent up to now is       26.7 secs

     total energy              =   -2204.80291296 Ry
     estimated scf accuracy    <       0.02132418 Ry

     iteration #  6     ecut=    80.00 Ry     beta= 0.70
     Davidson diagonalization with overlap
     ethr =  6.95E-06,  avg # of iterations =  2.0

     total cpu time spent up to now is       28.9 secs

     total energy              =   -2204.80233771 Ry
     estimated scf accuracy    <       0.01368025 Ry

     iteration #  7     ecut=    80.00 Ry     beta= 0.70
     Davidson diagonalization with overlap
     ethr =  4.46E-06,  avg # of iterations =  1.0

     total cpu time spent up to now is       31.0 secs

     total energy              =   -2204.80093367 Ry
     estimated scf accuracy    <       0.00890116 Ry

     iteration #  8     ecut=    80.00 Ry     beta= 0.70
     Davidson diagonalization with overlap
     ethr =  2.90E-06,  avg # of iterations =  2.0

     negative rho (up, down):  5.136E-03 0.000E+00

     total cpu time spent up to now is       35.1 secs

     total energy              =   -2204.79975179 Ry
     estimated scf accuracy    <       0.00546186 Ry

     iteration #  9     ecut=    80.00 Ry     beta= 0.70
     Davidson diagonalization with overlap
     ethr =  1.78E-06,  avg # of iterations =  2.0

     negative rho (up, down):  2.474E-02 0.000E+00

     total cpu time spent up to now is       39.2 secs

     total energy              =   -2204.79935823 Ry
     estimated scf accuracy    <       0.00316291 Ry

     iteration # 10     ecut=    80.00 Ry     beta= 0.70
     Davidson diagonalization with overlap
     ethr =  1.03E-06,  avg # of iterations =  2.0

     negative rho (up, down):  3.156E-02 0.000E+00

     total cpu time spent up to now is       44.4 secs

     total energy              =   -2204.79942182 Ry
     estimated scf accuracy    <       0.00142184 Ry

     iteration # 11     ecut=    80.00 Ry     beta= 0.70
     Davidson diagonalization with overlap
     ethr =  4.63E-07,  avg # of iterations =  2.0

     negative rho (up, down):  2.239E-02 0.000E+00

     total cpu time spent up to now is       49.3 secs

     total energy              =   -2204.79944267 Ry
     estimated scf accuracy    <       0.00048317 Ry

     iteration # 12     ecut=    80.00 Ry     beta= 0.70
     Davidson diagonalization with overlap
     ethr =  1.57E-07,  avg # of iterations =  6.0

     negative rho (up, down):  7.747E-03 0.000E+00

     total cpu time spent up to now is       55.2 secs

     total energy              =   -2204.79949263 Ry
     estimated scf accuracy    <       0.00010456 Ry

     iteration # 13     ecut=    80.00 Ry     beta= 0.70
     Davidson diagonalization with overlap
     c_bands:  1 eigenvalues not converged
     ethr =  3.41E-08,  avg # of iterations = 20.0

     negative rho (up, down):  1.781E-03 0.000E+00

     total cpu time spent up to now is       63.6 secs

     total energy              =   -2204.79952578 Ry
     estimated scf accuracy    <       0.00002387 Ry

     iteration # 14     ecut=    80.00 Ry     beta= 0.70
     Davidson diagonalization with overlap
     ethr =  7.77E-09,  avg # of iterations =  5.0

     negative rho (up, down):  7.393E-04 0.000E+00

     total cpu time spent up to now is       73.5 secs

     total energy              =   -2204.79952601 Ry
     estimated scf accuracy    <       0.00000738 Ry

     iteration # 15     ecut=    80.00 Ry     beta= 0.70
     Davidson diagonalization with overlap
     ethr =  2.40E-09,  avg # of iterations =  2.0

     negative rho (up, down):  4.727E-04 0.000E+00

     total cpu time spent up to now is       85.2 secs

     total energy              =   -2204.79953107 Ry
     estimated scf accuracy    <       0.00000286 Ry

     iteration # 16     ecut=    80.00 Ry     beta= 0.70
     Davidson diagonalization with overlap
     ethr =  9.32E-10,  avg # of iterations =  2.0

     negative rho (up, down):  1.846E-04 0.000E+00

     total cpu time spent up to now is       96.2 secs

     total energy              =   -2204.79953488 Ry
     estimated scf accuracy    <       0.00000129 Ry

     iteration # 17     ecut=    80.00 Ry     beta= 0.70
     Davidson diagonalization with overlap
     ethr =  4.20E-10,  avg # of iterations =  4.0

     negative rho (up, down):  1.387E-04 0.000E+00

     total cpu time spent up to now is       98.3 secs

     End of self-consistent calculation

          k = 0.0000 0.0000 0.0000 (105382 PWs)   bands (ev):

   -62.9366 -62.8647 -62.8383 -62.8149 -62.7858 -62.7707 -62.7674 -62.7569
   -62.7310 -62.5241 -62.4990 -62.4515 -37.2439 -37.1599 -37.1445 -37.1201
   -37.0999 -37.0791 -37.0690 -37.0588 -37.0330 -37.0085 -36.9998 -36.9981
   -36.9876 -36.9686 -36.9579 -36.9528 -36.9488 -36.9452 -36.9323 -36.9216
   -36.9004 -36.8898 -36.8593 -36.8522 -36.8371 -36.8162 -36.7922 -36.7592
   -36.7121 -36.6897 -36.6801 -36.6573 -36.6361 -36.5977 -36.4870 -36.4756
   -18.9635 -15.8284 -15.1054 -15.0181 -14.8923 -14.7976 -14.6734 -14.4212
   -14.3930 -14.3685 -14.3353 -14.2966 -14.2729 -14.2051 -14.1065 -14.0807
   -14.0291 -14.0105 -13.9534 -13.8946 -13.7479 -13.7413 -13.7037 -10.4229
    -7.6577  -7.4342  -7.3934  -7.2257  -7.2045  -7.1420  -7.1101  -7.0307
    -6.7856  -6.7408  -6.6821  -6.6358  -6.5642  -6.5082  -6.4445  -6.3980
    -6.3537  -6.2730  -6.2071  -5.9002  -5.8754  -5.8235  -5.7737  -5.7611
    -5.7121  -5.6675  -5.5848  -5.5755  -5.5375  -5.4868  -5.4701  -5.4565
    -5.3667  -5.2802  -5.1967  -5.1225  -5.0462  -5.0026  -4.9078  -4.8812
    -4.8640  -4.7377  -4.6235  -4.4972  -4.4300  -4.3169  -4.2193  -4.1825
    -4.1635  -3.9983  -3.9503  -3.8555  -3.8022  -3.7207  -3.6708  -3.6620
    -3.6095  -3.5498  -3.4976  -3.4599  -3.4413  -3.4165  -3.3574  -3.3115
    -3.3021  -3.1446  -3.1067  -2.8511  -2.8296  -2.7689  -2.7072  -2.6771
    -2.6458  -2.6315  -2.6008  -2.5175  -2.4301  -2.1707  -1.9440  -1.9261
    -1.8164  -0.6148  -0.5743  -0.3355  -0.1606  -0.0921  -0.0645   0.0426
     0.0487   0.1984   0.2306   0.2593   0.2932   0.3526   0.4002   0.5245
     0.5646   0.6054   0.6486   0.6577   0.6838   0.7343   0.7578   0.7991
     0.8466   0.8817   0.8958   0.9785   1.0203   1.0588   1.0917   1.3937
     1.4307

     the Fermi energy is    -0.6609 ev

!    total energy              =   -2204.79953391 Ry
     estimated scf accuracy    <       0.00000046 Ry
     smearing contrib. (-TS)   =      -0.00880887 Ry
     internal energy E=F+TS    =   -2204.79072504 Ry

     The total energy is F=E-TS. E is the sum of the following terms:
     one-electron contribution =  -18059.44251769 Ry
     hartree contribution      =    9017.06436562 Ry
     xc contribution           =    -385.79790201 Ry
     ewald contribution        =    7223.38532904 Ry

     convergence has been achieved in  17 iterations

     negative rho (up, down):  1.387E-04 0.000E+00

     Forces acting on atoms (cartesian axes, Ry/au):

     atom    1 type  1   force =     0.00184713   -0.00512646    0.00423318
     atom    2 type  2   force =    -0.70184698   -1.15550717   -2.04279756
     atom    3 type  2   force =    -0.01238201    0.00856521   -0.00193676
     atom    4 type  1   force =     0.00930868   -0.00798212   -0.00171765
     atom    5 type  2   force =    -0.00183543   -0.00239291   -0.00385411
     atom    6 type  2   force =     0.00386028    0.00832314    0.00214359
     atom    7 type  1   force =     0.00142371    0.00133659   -0.00661763
     atom    8 type  2   force =     0.00176005   -0.00557121    0.01863356
     atom    9 type  2   force =     0.01485844    0.00408738    0.01024301
     atom   10 type  1   force =    -0.00415945   -0.01987171   -0.02804244
     atom   11 type  2   force =    -0.00006981   -0.00978553   -0.00547113
     atom   12 type  2   force =     0.00206468    0.00278712    0.00677402
     atom   13 type  1   force =     0.00558022    0.00807723   -0.00528537
     atom   14 type  2   force =     0.00298776   -0.00053556    0.00825449
     atom   15 type  2   force =    -0.01230934    0.00138726   -0.00974157
     atom   16 type  1   force =     0.00133527   -0.00047000    0.00083300
     atom   17 type  2   force =     0.00559331    0.00183145    0.00218135
     atom   18 type  2   force =    -0.00598192   -0.00557816    0.01486995
     atom   19 type  1   force =     0.00615717   -0.00149395   -0.00443831
     atom   20 type  2   force =     0.00343325   -0.00546819   -0.00004307
     atom   21 type  1   force =     0.00019688    0.00730110   -0.00093490
     atom   22 type  2   force =    -0.00209388   -0.00255974   -0.00007478
     atom   23 type  2   force =    -0.00065242    0.00227679    0.00903510
     atom   24 type  1   force =     0.00609789    0.00755952   -0.03772556
     atom   25 type  2   force =     0.01719436    0.01750993    0.00779986
     atom   26 type  2   force =    -0.01175683   -0.00006380   -0.00322820
     atom   27 type  1   force =    -0.00642079   -0.00843219    0.00916044
     atom   28 type  2   force =     0.00019917    0.00119274   -0.00624899
     atom   29 type  2   force =     0.00288151    0.00000467   -0.00332958
     atom   30 type  1   force =    -0.00722870    0.01291818   -0.00364721
     atom   31 type  2   force =     0.00326420   -0.00082738    0.01662921
     atom   32 type  2   force =    -0.01116745    0.00450463    0.00681466
     atom   33 type  1   force =     0.01006267   -0.00490752   -0.01148611
     atom   34 type  2   force =     0.00842601   -0.05138545   -0.01138201
     atom   35 type  2   force =    -0.01023018    0.00844802    0.01573296
     atom   36 type  3   force =     0.67960256    1.18984810    2.05466456
     The non-local contrib.  to forces
     atom    1 type  1   force =    -0.01223932    0.03182272   -0.01811365
     atom    2 type  2   force =    -0.38138445   -0.66963247   -1.20962115
     atom    3 type  2   force =    -0.01512032   -0.00371301    0.27948976
     atom    4 type  1   force =    -0.00566164    0.01656431    0.00460738
     atom    5 type  2   force =     0.01008982   -0.03803548   -0.24954326
     atom    6 type  2   force =    -0.00252845    0.00418931    0.26365512
     atom    7 type  1   force =    -0.03923004   -0.01810463   -0.01559859
     atom    8 type  2   force =     0.00541928   -0.00556976   -0.25185876
     atom    9 type  2   force =     0.01184114   -0.01328764    0.27601660
     atom   10 type  1   force =    -0.00081208   -0.01271429   -0.02957478
     atom   11 type  2   force =     0.01147468    0.00623966   -0.25585245
     atom   12 type  2   force =    -0.00450238   -0.01432769    0.26496645
     atom   13 type  1   force =     0.00005769    0.02813317   -0.00479318
     atom   14 type  2   force =     0.01244880   -0.00390512   -0.25480634
     atom   15 type  2   force =    -0.01311775   -0.00134309    0.26083762
     atom   16 type  1   force =    -0.00430897    0.05435838   -0.01788478
     atom   17 type  2   force =     0.00101383   -0.03054304   -0.25197620
     atom   18 type  2   force =    -0.00571482   -0.00597612    0.27280240
     atom   19 type  1   force =     0.02913820   -0.01276483   -0.00761449
     atom   20 type  2   force =     0.00084892   -0.02082314    0.26268378
     atom   21 type  1   force =    -0.00287398    0.00966337    0.00584671
     atom   22 type  2   force =    -0.00811090    0.00744704   -0.25715768
     atom   23 type  2   force =     0.00563718   -0.01001228    0.26760214
     atom   24 type  1   force =     0.01543663    0.02541717   -0.01539448
     atom   25 type  2   force =     0.00288722    0.01401767   -0.24663479
     atom   26 type  2   force =    -0.00268758   -0.01156766    0.26477018
     atom   27 type  1   force =     0.00709172    0.01791070    0.00818270
     atom   28 type  2   force =    -0.00472733   -0.03349563   -0.26165275
     atom   29 type  2   force =     0.00800385   -0.00100796    0.26513914
     atom   30 type  1   force =     0.00768064    0.00892882    0.00490172
     atom   31 type  2   force =    -0.00931990    0.00055435   -0.25215097
     atom   32 type  2   force =    -0.00865164   -0.01262402    0.27079463
     atom   33 type  1   force =     0.00105983    0.00206785    0.00603306
     atom   34 type  2   force =    -0.00221912   -0.03875499   -0.26950806
     atom   35 type  2   force =    -0.01084426   -0.01039552    0.27589334
     atom   36 type  3   force =    -0.05976139   -0.10792992   -0.16883461
     The ionic contribution  to forces
     atom    1 type  1   force =    -0.07848727    0.38380791    5.15059269
     atom    2 type  2   force =    -2.03994629   -2.02870351   35.22213361
     atom    3 type  2   force =    -0.17340166   -0.00506840  -36.23893615
     atom    4 type  1   force =     0.06372105    0.87367943    0.51383208
     atom    5 type  2   force =    -1.12501625    1.71867930   38.70304609
     atom    6 type  2   force =     0.31460323   -0.45447348  -38.07195547
     atom    7 type  1   force =    -2.66795016   -2.82500774    2.56407890
     atom    8 type  2   force =    -0.99240423    0.05807306   37.39299211
     atom    9 type  2   force =     0.33906553   -0.02549304  -38.00611073
     atom   10 type  1   force =    -1.15013586   -0.79540138    5.25352533
     atom   11 type  2   force =    -0.65449504   -1.76520338   39.12493555
     atom   12 type  2   force =     0.42002366    0.65025519  -37.87943932
     atom   13 type  1   force =     0.52208328    1.02156401    2.77136526
     atom   14 type  2   force =    -0.12009876   -0.03784103   38.48685018
     atom   15 type  2   force =     0.12086120   -0.07221719  -36.84658197
     atom   16 type  1   force =    -0.09620853    4.06939245    0.45976526
     atom   17 type  2   force =     0.82756255    1.56637441   37.93489545
     atom   18 type  2   force =    -0.15670334   -0.62067724  -38.57380784
     atom   19 type  1   force =     2.72662542   -2.46834213    0.68004481
     atom   20 type  2   force =     0.22027597   -0.19066860  -38.46753227
     atom   21 type  1   force =    -0.09005576   -0.09311586    1.09343595
     atom   22 type  2   force =     0.46698919   -1.77467597   38.43964080
     atom   23 type  2   force =    -0.08271537    0.64159546  -38.28946322
     atom   24 type  1   force =    -0.05938168    1.34029316    5.05529394
     atom   25 type  2   force =     0.94814941    0.23131189   39.21006299
     atom   26 type  2   force =    -0.24373409    0.05532883  -37.38691507
     atom   27 type  1   force =     0.12143265    0.55036120   -2.29526354
     atom   28 type  2   force =     0.21643776    1.32197092   38.12965678
     atom   29 type  2   force =    -0.23913085   -0.37376848  -37.32473106
     atom   30 type  1   force =    -0.29846556   -0.95553043   -0.04674997
     atom   31 type  2   force =     1.25429547   -0.03701250   37.33906390
     atom   32 type  2   force =    -0.46978878    0.00142081  -38.62661900
     atom   33 type  1   force =     0.96949605   -1.03489351    1.95418174
     atom   34 type  2   force =     0.33461185   -1.66240036   39.32517627
     atom   35 type  2   force =    -0.28134324    0.43108394  -37.84639043
     atom   36 type  3   force =     1.15322844    2.30530224   11.09592632
     The local contribution  to forces
     atom    1 type  1   force =     0.09280837   -0.42097460   -5.12737221
     atom    2 type  2   force =     1.69947847    1.50751075  -36.12606514
     atom    3 type  2   force =     0.17546277    0.01721746   35.97918179
     atom    4 type  1   force =    -0.04876723   -0.89826524   -0.51947161
     atom    5 type  2   force =     1.11407356   -1.68543153  -38.47685548
     atom    6 type  2   force =    -0.30841643    0.45921652   37.83141827
     atom    7 type  1   force =     2.70859306    2.84439447   -2.55437238
     atom    8 type  2   force =     0.98897483   -0.05860743  -37.14223771
     atom    9 type  2   force =    -0.33562039    0.04211193   37.76134735
     atom   10 type  1   force =     1.14672771    0.78850114   -5.25113705
     atom   11 type  2   force =     0.64370630    1.75007582  -38.89438597
     atom   12 type  2   force =    -0.41409244   -0.63422357   37.64225796
     atom   13 type  1   force =    -0.51657348   -1.04165159   -2.77117176
     atom   14 type  2   force =     0.11156633    0.04145836  -38.24346659
     atom   15 type  2   force =    -0.12070188    0.07478412   36.59667758
     atom   16 type  1   force =     0.10192952   -4.12412050   -0.44031664
     atom   17 type  2   force =    -0.82307018   -1.53569464  -37.70049497
     atom   18 type  2   force =     0.15619462    0.62131090   38.33689780
     atom   19 type  1   force =    -2.74950521    2.47952588   -0.67616186
     atom   20 type  2   force =    -0.21767951    0.20522610   38.22590927
     atom   21 type  1   force =     0.09329979    0.09086206   -1.09953083
     atom   22 type  2   force =    -0.46122352    1.76550221  -38.20236299
     atom   23 type  2   force =     0.07689907   -0.63010890   38.05174755
     atom   24 type  1   force =     0.04983027   -1.35833278   -5.07682847
     atom   25 type  2   force =    -0.93449498   -0.22698812  -38.97496342
     atom   26 type  2   force =     0.23473769   -0.04446501   37.13995077
     atom   27 type  1   force =    -0.13499419   -0.57676107    2.29689465
     atom   28 type  2   force =    -0.21202992   -1.28991750  -37.89387035
     atom   29 type  2   force =     0.23462857    0.37507583   37.07703471
     atom   30 type  1   force =     0.28344694    0.95954178    0.03886815
     atom   31 type  2   force =    -1.24237238    0.03553406  -37.09015384
     atom   32 type  2   force =     0.46696552    0.01492479   38.38353378
     atom   33 type  1   force =    -0.96061594    1.02803566   -1.97099880
     atom   34 type  2   force =    -0.32463663    1.64886749  -39.08737103
     atom   35 type  2   force =     0.28152360   -0.41309347   37.60762788
     atom   36 type  3   force =    -0.41387439   -1.00754916   -8.87236817
     The core correction contribution to forces
     atom    1 type  1   force =     0.00000000    0.00000000    0.00000000
     atom    2 type  2   force =     0.01994822    0.03519115    0.07107510
     atom    3 type  2   force =     0.00067465    0.00009295   -0.02148541
     atom    4 type  1   force =     0.00000000    0.00000000    0.00000000
     atom    5 type  2   force =    -0.00098319    0.00235194    0.01998470
     atom    6 type  2   force =     0.00020987   -0.00063995   -0.02087934
     atom    7 type  1   force =     0.00000000    0.00000000    0.00000000
     atom    8 type  2   force =    -0.00025502    0.00056118    0.02023474
     atom    9 type  2   force =    -0.00043236    0.00077714   -0.02092572
     atom   10 type  1   force =     0.00000000    0.00000000    0.00000000
     atom   11 type  2   force =    -0.00069877   -0.00084359    0.02031049
     atom   12 type  2   force =     0.00067454    0.00112196   -0.02089732
     atom   13 type  1   force =     0.00000000    0.00000000    0.00000000
     atom   14 type  2   force =    -0.00083615   -0.00027999    0.02017918
     atom   15 type  2   force =     0.00069457    0.00012588   -0.02058682
     atom   16 type  1   force =     0.00000000    0.00000000    0.00000000
     atom   17 type  2   force =     0.00010468    0.00170018    0.02026203
     atom   18 type  2   force =     0.00024519   -0.00025325   -0.02094605
     atom   19 type  1   force =     0.00000000    0.00000000    0.00000000
     atom   20 type  2   force =     0.00006156    0.00076152   -0.02102415
     atom   21 type  1   force =     0.00000000    0.00000000    0.00000000
     atom   22 type  2   force =     0.00026571   -0.00077981    0.02036340
     atom   23 type  2   force =    -0.00046898    0.00088814   -0.02083761
     atom   24 type  1   force =     0.00000000    0.00000000    0.00000000
     atom   25 type  2   force =     0.00058272   -0.00084200    0.01984384
     atom   26 type  2   force =    -0.00011457    0.00062375   -0.02095754
     atom   27 type  1   force =     0.00000000    0.00000000    0.00000000
     atom   28 type  2   force =     0.00050397    0.00258266    0.02011769
     atom   29 type  2   force =    -0.00063445   -0.00034280   -0.02067992
     atom   30 type  1   force =     0.00000000    0.00000000    0.00000000
     atom   31 type  2   force =     0.00061488    0.00007313    0.02042026
     atom   32 type  2   force =     0.00024122    0.00076031   -0.02087304
     atom   33 type  1   force =     0.00000000    0.00000000    0.00000000
     atom   34 type  2   force =     0.00060120    0.00095985    0.02082555
     atom   35 type  2   force =     0.00038756    0.00088851   -0.02132043
     atom   36 type  3   force =     0.00000000    0.00000000    0.00000000
     The Hubbard contrib.    to forces
     atom    1 type  1   force =     0.00000000    0.00000000    0.00000000
     atom    2 type  2   force =     0.00000000    0.00000000    0.00000000
     atom    3 type  2   force =     0.00000000    0.00000000    0.00000000
     atom    4 type  1   force =     0.00000000    0.00000000    0.00000000
     atom    5 type  2   force =     0.00000000    0.00000000    0.00000000
     atom    6 type  2   force =     0.00000000    0.00000000    0.00000000
     atom    7 type  1   force =     0.00000000    0.00000000    0.00000000
     atom    8 type  2   force =     0.00000000    0.00000000    0.00000000
     atom    9 type  2   force =     0.00000000    0.00000000    0.00000000
     atom   10 type  1   force =     0.00000000    0.00000000    0.00000000
     atom   11 type  2   force =     0.00000000    0.00000000    0.00000000
     atom   12 type  2   force =     0.00000000    0.00000000    0.00000000
     atom   13 type  1   force =     0.00000000    0.00000000    0.00000000
     atom   14 type  2   force =     0.00000000    0.00000000    0.00000000
     atom   15 type  2   force =     0.00000000    0.00000000    0.00000000
     atom   16 type  1   force =     0.00000000    0.00000000    0.00000000
     atom   17 type  2   force =     0.00000000    0.00000000    0.00000000
     atom   18 type  2   force =     0.00000000    0.00000000    0.00000000
     atom   19 type  1   force =     0.00000000    0.00000000    0.00000000
     atom   20 type  2   force =     0.00000000    0.00000000    0.00000000
     atom   21 type  1   force =     0.00000000    0.00000000    0.00000000
     atom   22 type  2   force =     0.00000000    0.00000000    0.00000000
     atom   23 type  2   force =     0.00000000    0.00000000    0.00000000
     atom   24 type  1   force =     0.00000000    0.00000000    0.00000000
     atom   25 type  2   force =     0.00000000    0.00000000    0.00000000
     atom   26 type  2   force =     0.00000000    0.00000000    0.00000000
     atom   27 type  1   force =     0.00000000    0.00000000    0.00000000
     atom   28 type  2   force =     0.00000000    0.00000000    0.00000000
     atom   29 type  2   force =     0.00000000    0.00000000    0.00000000
     atom   30 type  1   force =     0.00000000    0.00000000    0.00000000
     atom   31 type  2   force =     0.00000000    0.00000000    0.00000000
     atom   32 type  2   force =     0.00000000    0.00000000    0.00000000
     atom   33 type  1   force =     0.00000000    0.00000000    0.00000000
     atom   34 type  2   force =     0.00000000    0.00000000    0.00000000
     atom   35 type  2   force =     0.00000000    0.00000000    0.00000000
     atom   36 type  3   force =     0.00000000    0.00000000    0.00000000
     The SCF correction term to forces
     atom    1 type  1   force =    -0.00023456    0.00021384   -0.00084482
     atom    2 type  2   force =     0.00005716    0.00012324   -0.00029114
     atom    3 type  2   force =     0.00000263    0.00003254   -0.00015792
     atom    4 type  1   force =     0.00001658    0.00003570   -0.00065667
     atom    5 type  2   force =     0.00000071    0.00003919   -0.00045732
     atom    6 type  2   force =    -0.00000787    0.00002708   -0.00006616
     atom    7 type  1   force =     0.00001094    0.00005081   -0.00069673
     atom    8 type  2   force =     0.00002527   -0.00003193   -0.00046799
     atom    9 type  2   force =     0.00000461   -0.00002468   -0.00005565
     atom   10 type  1   force =     0.00006087   -0.00026085   -0.00082710
     atom   11 type  2   force =    -0.00005689   -0.00005770   -0.00044991
     atom   12 type  2   force =    -0.00003862   -0.00004245   -0.00008491
     atom   13 type  1   force =     0.00001282    0.00002797   -0.00065685
     atom   14 type  2   force =    -0.00009238    0.00002856   -0.00047310
     atom   15 type  2   force =    -0.00004540    0.00003388   -0.00005913
     atom   16 type  1   force =    -0.00007667   -0.00010401   -0.00070199
     atom   17 type  2   force =    -0.00001748   -0.00000913   -0.00047613
     atom   18 type  2   force =    -0.00000347    0.00001389   -0.00004752
     atom   19 type  1   force =    -0.00010114    0.00008346   -0.00067794
     atom   20 type  2   force =    -0.00007360    0.00003226   -0.00005087
     atom   21 type  1   force =    -0.00017308   -0.00011215   -0.00065789
     atom   22 type  2   force =    -0.00001428   -0.00005688   -0.00052946
     atom   23 type  2   force =    -0.00000423   -0.00008931    0.00001507
     atom   24 type  1   force =     0.00021277    0.00017831   -0.00076771
     atom   25 type  2   force =     0.00007008    0.00000681   -0.00047992
     atom   26 type  2   force =     0.00004180    0.00001261   -0.00004770
     atom   27 type  1   force =     0.00004912    0.00005331   -0.00062453
     atom   28 type  2   force =     0.00001478    0.00004861   -0.00047152
     atom   29 type  2   force =     0.00001448    0.00004442   -0.00006361
     atom   30 type  1   force =     0.00010936   -0.00002566   -0.00063828
     atom   31 type  2   force =     0.00004623    0.00001991   -0.00052130
     atom   32 type  2   force =     0.00006632    0.00001906    0.00000712
     atom   33 type  1   force =     0.00012282   -0.00012119   -0.00067327
     atom   34 type  2   force =     0.00006880   -0.00006112   -0.00047591
     atom   35 type  2   force =     0.00004624   -0.00003911   -0.00004856
     atom   36 type  3   force =     0.00000999    0.00002128   -0.00003014

     Total force =     3.480029     Total SCF correction =     0.002984

     BFGS Geometry Optimization
     Energy error            =      0.0E+00 Ry
     Gradient error          =      2.1E+00 Ry/Bohr

     number of scf cycles    =   1
     number of bfgs steps    =   0

     energy             new  =   -2204.7995339077 Ry

     new trust radius        =       0.5000000000 bohr
     new conv_thr            =       0.0000010000 Ry


ATOMIC_POSITIONS (angstrom)
Mo            6.5747463018        1.7872570043        2.8240965559
S             8.1015166618        0.6859082686        4.2156823602
S             8.1919065339        0.8121593818        1.2776759304
Mo            8.0961598540        4.4942017762        2.7176343722
S             6.4997126169        3.7221551221        4.3462477372
S             6.5537633707        3.5126292591        1.1215098821
Mo            6.4901342261        7.2185804799        2.6711755021
S             8.0819162914        6.3432741184        4.2444578781
S             8.0825095123        6.3051402199        1.0849603874
Mo            8.1601734242        9.9000514494        2.8404574222
S             6.4951601164        8.9418784377        4.3825193816
S             6.6181683996        9.0490098118        1.1406330397
Mo            3.4222575025        1.7478212087        2.7759049125
S             4.9754855855        0.8168838316        4.3514174413
S             5.0565149879        0.8464107338        1.2256147940
Mo            4.9798997357        4.5131276493        2.6329737927
S             3.4284409033        3.6717958992        4.2799432790
S             3.4372797057        3.5476310798        1.0599447808
Mo            3.4545213913        7.2161644830        2.6302013612
S             4.9836020153        6.3263464488        1.0372491170
Mo            5.0122850133        9.9023822573        2.7433007995
S             3.4707337881        8.9434770296        4.3255833005
S             3.4083592687        9.0652339089        1.0970362783
Mo            0.2967437875        1.7483194236        2.8454029646
S             1.8523043375        0.7945699402        4.3990450803
S             1.8595404611        0.8544190828        1.2090549996
Mo            1.8600034152        4.4947633747        2.6611787875
S             0.2722351879        3.6545266104        4.3369146115
S             0.2315399191        3.5272497270        1.1716611676
Mo            0.2703777013        7.2180300889        2.7013056821
S             1.9025879594        6.3127101934        4.2242256990
S             1.8610417853        6.3108264176        1.0452893746
Mo            1.8454247312        9.9396133842        2.7717156825
S             0.2968156235        9.0844926250        4.4126500496
S             0.2756753848        9.0444307971        1.1520863373
H             8.4788184004        1.3417971087        5.3339968346



     Writing config-only to output data dir ./MoS2-V-O.save/
     NEW-OLD atomic charge density approx. for the potential

     negative rho (up, down):  1.512E-04 0.000E+00

     total cpu time spent up to now is      101.6 secs

     Self-consistent Calculation

     iteration #  1     ecut=    80.00 Ry     beta= 0.70
     Davidson diagonalization with overlap
     c_bands:  2 eigenvalues not converged
     ethr =  1.00E-06,  avg # of iterations = 20.0

     negative rho (up, down):  3.224E-04 0.000E+00

     total cpu time spent up to now is      121.9 secs

     total energy              =   -2205.51354154 Ry
     estimated scf accuracy    <       0.16977850 Ry

     iteration #  2     ecut=    80.00 Ry     beta= 0.70
     Davidson diagonalization with overlap
     ethr =  5.53E-05,  avg # of iterations =  3.0

     negative rho (up, down):  5.169E-04 0.000E+00

     total cpu time spent up to now is      133.2 secs

     total energy              =   -2205.51421105 Ry
     estimated scf accuracy    <       0.02965609 Ry

     iteration #  3     ecut=    80.00 Ry     beta= 0.70
     Davidson diagonalization with overlap
     ethr =  9.66E-06,  avg # of iterations =  3.0

     negative rho (up, down):  6.435E-04 0.000E+00

     total cpu time spent up to now is      149.3 secs

     total energy              =   -2205.51764107 Ry
     estimated scf accuracy    <       0.00238342 Ry

     iteration #  4     ecut=    80.00 Ry     beta= 0.70
     Davidson diagonalization with overlap
     ethr =  7.76E-07,  avg # of iterations =  6.0

     negative rho (up, down):  7.003E-04 0.000E+00

     total cpu time spent up to now is      172.5 secs

     total energy              =   -2205.51807399 Ry
     estimated scf accuracy    <       0.00060252 Ry

     iteration #  5     ecut=    80.00 Ry     beta= 0.70
     Davidson diagonalization with overlap
     ethr =  1.96E-07,  avg # of iterations =  2.0

     negative rho (up, down):  7.633E-04 0.000E+00

     total cpu time spent up to now is      186.1 secs

     total energy              =   -2205.51810440 Ry
     estimated scf accuracy    <       0.00006768 Ry

     iteration #  6     ecut=    80.00 Ry     beta= 0.70
     Davidson diagonalization with overlap
     ethr =  2.20E-08,  avg # of iterations =  5.0

     negative rho (up, down):  7.377E-04 0.000E+00

     total cpu time spent up to now is      196.5 secs

     total energy              =   -2205.51811361 Ry
     estimated scf accuracy    <       0.00000779 Ry

     iteration #  7     ecut=    80.00 Ry     beta= 0.70
     Davidson diagonalization with overlap
     ethr =  2.54E-09,  avg # of iterations =  5.0

     negative rho (up, down):  6.493E-04 0.000E+00

     total cpu time spent up to now is      206.4 secs

     total energy              =   -2205.51811543 Ry
     estimated scf accuracy    <       0.00000188 Ry

     iteration #  8     ecut=    80.00 Ry     beta= 0.70
     Davidson diagonalization with overlap
     ethr =  6.13E-10,  avg # of iterations =  2.0

     negative rho (up, down):  1.363E-04 0.000E+00

     total cpu time spent up to now is      208.3 secs

     End of self-consistent calculation

          k = 0.0000 0.0000 0.0000 (105382 PWs)   bands (ev):

   -62.8958 -62.8242 -62.8207 -62.8018 -62.7744 -62.7655 -62.7652 -62.7534
   -62.7490 -62.5371 -62.4905 -62.4526 -37.3000 -37.1505 -37.1265 -37.0993
   -37.0802 -37.0769 -37.0593 -37.0331 -37.0165 -37.0048 -36.9980 -36.9918
   -36.9789 -36.9615 -36.9513 -36.9483 -36.9458 -36.9378 -36.9261 -36.9191
   -36.9084 -36.8877 -36.8602 -36.8480 -36.8410 -36.8078 -36.7899 -36.7673
   -36.7151 -36.6947 -36.6794 -36.6546 -36.6383 -36.5996 -36.4919 -36.4718
   -16.8484 -15.7275 -15.1080 -15.0083 -14.8893 -14.8052 -14.6478 -14.4209
   -14.3967 -14.3733 -14.3264 -14.2988 -14.2758 -14.2083 -14.0995 -14.0827
   -14.0394 -14.0096 -13.9488 -13.8896 -13.7439 -13.7411 -13.7081  -9.5950
    -7.7893  -7.6498  -7.4403  -7.2758  -7.2129  -7.1668  -7.1071  -6.9806
    -6.8316  -6.7468  -6.7110  -6.6475  -6.5518  -6.5262  -6.4156  -6.3924
    -6.3247  -6.2811  -6.2136  -5.9465  -5.9087  -5.8249  -5.8040  -5.7836
    -5.7117  -5.6734  -5.6026  -5.5901  -5.5460  -5.5050  -5.4670  -5.4604
    -5.3725  -5.2973  -5.2228  -5.1272  -5.0257  -4.9804  -4.9018  -4.8887
    -4.8673  -4.7410  -4.6167  -4.4381  -4.3982  -4.3589  -4.2209  -4.1819
    -4.1647  -3.9986  -3.9462  -3.8464  -3.7716  -3.7119  -3.6897  -3.6596
    -3.6034  -3.5691  -3.5075  -3.4584  -3.4360  -3.4125  -3.3634  -3.3150
    -3.3091  -3.1567  -3.0988  -2.8571  -2.8245  -2.7894  -2.6968  -2.6785
    -2.6497  -2.6360  -2.5938  -2.5220  -2.4384  -2.1614  -1.9483  -1.9295
    -1.8350  -0.6066  -0.5607  -0.3060  -0.1600  -0.1041  -0.0541   0.0150
     0.0654   0.1761   0.2172   0.2713   0.3273   0.3691   0.4610   0.5227
     0.5738   0.6095   0.6349   0.6760   0.7199   0.7365   0.7772   0.8035
     0.8653   0.8741   0.8998   0.9889   1.0043   1.0590   1.0843   1.4078
     1.4640

     the Fermi energy is    -0.6505 ev

!    total energy              =   -2205.51811638 Ry
     estimated scf accuracy    <       0.00000087 Ry
     smearing contrib. (-TS)   =      -0.00874692 Ry
     internal energy E=F+TS    =   -2205.50936946 Ry

     The total energy is F=E-TS. E is the sum of the following terms:
     one-electron contribution =  -18082.18468033 Ry
     hartree contribution      =    9028.41537049 Ry
     xc contribution           =    -385.53679349 Ry
     ewald contribution        =    7233.79673387 Ry

     convergence has been achieved in   8 iterations

     negative rho (up, down):  1.363E-04 0.000E+00

     Forces acting on atoms (cartesian axes, Ry/au):

     atom    1 type  1   force =    -0.02463477   -0.00153832   -0.02546600
     atom    2 type  2   force =    -0.00185622    0.13213877    0.08376945
     atom    3 type  2   force =    -0.01041919    0.01057931   -0.01830179
     atom    4 type  1   force =     0.00930306   -0.00547412   -0.00207240
     atom    5 type  2   force =     0.00086103   -0.00605355   -0.00168683
     atom    6 type  2   force =     0.00444070    0.01113133    0.00031356
     atom    7 type  1   force =     0.00123318    0.00032675   -0.00458466
     atom    8 type  2   force =     0.00203316   -0.00507978    0.01778154
     atom    9 type  2   force =     0.01465403    0.00329661    0.00935383
     atom   10 type  1   force =    -0.00030301   -0.09594026   -0.07965796
     atom   11 type  2   force =    -0.00294809   -0.01252298   -0.00316282
     atom   12 type  2   force =    -0.00260697    0.00146728    0.00258871
     atom   13 type  1   force =     0.00508689    0.00739355   -0.00812669
     atom   14 type  2   force =     0.00303955   -0.00042390    0.01244733
     atom   15 type  2   force =    -0.01311146    0.00103379   -0.00906256
     atom   16 type  1   force =     0.00350990   -0.00161697    0.00079649
     atom   17 type  2   force =     0.00556596    0.00189133    0.00227219
     atom   18 type  2   force =    -0.00599669   -0.00542869    0.01418616
     atom   19 type  1   force =     0.00635774    0.00153888   -0.00440862
     atom   20 type  2   force =     0.00292693   -0.00537824   -0.00020613
     atom   21 type  1   force =    -0.00570712    0.00664481   -0.00259124
     atom   22 type  2   force =    -0.00137279   -0.00246408   -0.00018687
     atom   23 type  2   force =    -0.00066752    0.00207101    0.00847143
     atom   24 type  1   force =     0.00833508    0.00220181   -0.04903686
     atom   25 type  2   force =     0.01357705    0.01774128    0.00932297
     atom   26 type  2   force =    -0.01017491    0.00037049   -0.00244884
     atom   27 type  1   force =    -0.00565011   -0.00779937    0.00792178
     atom   28 type  2   force =    -0.00231005   -0.00298336   -0.00163844
     atom   29 type  2   force =     0.00296956    0.00199522   -0.00365180
     atom   30 type  1   force =    -0.00619083    0.01094067   -0.00197708
     atom   31 type  2   force =     0.00281029   -0.00084065    0.01584770
     atom   32 type  2   force =    -0.01087567    0.00399252    0.00664805
     atom   33 type  1   force =     0.01382065   -0.00295216   -0.01194659
     atom   34 type  2   force =     0.00828717   -0.04900202   -0.00907464
     atom   35 type  2   force =    -0.00583020    0.00730398    0.01101372
     atom   36 type  3   force =     0.00184366   -0.01856095    0.03655386
     The non-local contrib.  to forces
     atom    1 type  1   force =    -0.00678538    0.03367544   -0.01139016
     atom    2 type  2   force =     0.09781504    0.14617956    0.22948691
     atom    3 type  2   force =    -0.01491025   -0.00460522    0.27373440
     atom    4 type  1   force =    -0.00618704    0.01561366    0.00399335
     atom    5 type  2   force =     0.01036101   -0.04088336   -0.24551525
     atom    6 type  2   force =    -0.00049337    0.00812745    0.26067556
     atom    7 type  1   force =    -0.04131694   -0.01962518   -0.01810105
     atom    8 type  2   force =     0.00538985   -0.00478903   -0.25320177
     atom    9 type  2   force =     0.01119075   -0.01330749    0.27684937
     atom   10 type  1   force =     0.00032061    0.00172349   -0.01655481
     atom   11 type  2   force =     0.01358316    0.00532494   -0.25771242
     atom   12 type  2   force =    -0.00890944   -0.01465616    0.26192741
     atom   13 type  1   force =    -0.00074290    0.02637181   -0.00646166
     atom   14 type  2   force =     0.01552323   -0.00454853   -0.25771703
     atom   15 type  2   force =    -0.01260829   -0.00282288    0.26076801
     atom   16 type  1   force =    -0.00498484    0.05547267   -0.01813467
     atom   17 type  2   force =     0.00078141   -0.03001555   -0.25105804
     atom   18 type  2   force =    -0.00571832   -0.00506989    0.27212919
     atom   19 type  1   force =     0.02842502   -0.01362964   -0.00547457
     atom   20 type  2   force =     0.00105227   -0.02084699    0.26229033
     atom   21 type  1   force =    -0.00464485    0.01080518    0.00672161
     atom   22 type  2   force =    -0.00686457    0.00698595   -0.25768738
     atom   23 type  2   force =     0.00566119   -0.00992291    0.26832933
     atom   24 type  1   force =     0.01200916    0.02461624   -0.00600224
     atom   25 type  2   force =     0.00367563    0.01075551   -0.24917508
     atom   26 type  2   force =    -0.00320210   -0.01238584    0.26502600
     atom   27 type  1   force =     0.00534600    0.01746335    0.00789113
     atom   28 type  2   force =    -0.00770056   -0.03611785   -0.25870908
     atom   29 type  2   force =     0.00618351    0.00015782    0.26362278
     atom   30 type  1   force =     0.00847868    0.00726155    0.00435559
     atom   31 type  2   force =    -0.00963836    0.00188918   -0.25280502
     atom   32 type  2   force =    -0.00848380   -0.01311730    0.27119034
     atom   33 type  1   force =     0.00203640    0.00308688    0.00580870
     atom   34 type  2   force =    -0.00897712   -0.03281867   -0.27181398
     atom   35 type  2   force =    -0.00587359   -0.01015553    0.27190260
     atom   36 type  3   force =    -0.01845978   -0.03466728   -0.05196222
     The ionic contribution  to forces
     atom    1 type  1   force =    -0.63043098    1.29711695    5.19674225
     atom    2 type  2   force =    -0.75694341    0.36079153   36.23018657
     atom    3 type  2   force =    -0.12729723    0.08090997  -36.49961129
     atom    4 type  1   force =     0.07393089    0.85947408    0.71379727
     atom    5 type  2   force =    -1.04152470    1.65671388   38.80855918
     atom    6 type  2   force =     0.29861611   -0.40807100  -38.05436769
     atom    7 type  1   force =    -2.71522782   -3.00847883    2.60647089
     atom    8 type  2   force =    -0.99087142   -0.00566917   37.46477199
     atom    9 type  2   force =     0.33496992   -0.06591712  -37.98489893
     atom   10 type  1   force =    -0.82352248   -2.22307775    4.41924124
     atom   11 type  2   force =    -0.73010828   -1.88776388   39.27951210
     atom   12 type  2   force =     0.35534290    0.57034807  -37.94763493
     atom   13 type  1   force =     0.43060009    1.05716822    2.90169463
     atom   14 type  2   force =    -0.20030662    0.03325335   38.65378181
     atom   15 type  2   force =     0.05306289   -0.03937764  -36.88853889
     atom   16 type  1   force =    -0.10187539    4.08605710    0.56831984
     atom   17 type  2   force =     0.80951684    1.55831298   37.99651586
     atom   18 type  2   force =    -0.16225357   -0.59173919  -38.54251944
     atom   19 type  1   force =     2.69011971   -2.53873910    0.73539819
     atom   20 type  2   force =     0.20736001   -0.21117662  -38.45938026
     atom   21 type  1   force =    -0.37896799   -0.19782336    1.15337435
     atom   22 type  2   force =     0.44068325   -1.77292872   38.50050983
     atom   23 type  2   force =    -0.08730840    0.61869064  -38.28175813
     atom   24 type  1   force =     0.27518990    1.73003292    5.54944654
     atom   25 type  2   force =     0.78185512    0.27677062   39.33828614
     atom   26 type  2   force =    -0.19179427    0.07010088  -37.37457543
     atom   27 type  1   force =     0.11915704    0.57079231   -2.11638104
     atom   28 type  2   force =     0.13723537    1.15324088   38.23520286
     atom   29 type  2   force =    -0.22000294   -0.32276573  -37.31345306
     atom   30 type  1   force =    -0.20825360   -1.13667970    0.03092403
     atom   31 type  2   force =     1.25296567   -0.06011619   37.38634331
     atom   32 type  2   force =    -0.45643609   -0.02227611  -38.59313723
     atom   33 type  1   force =     1.06817493   -0.98164142    2.09600014
     atom   34 type  2   force =     0.42073830   -1.61873035   39.48262659
     atom   35 type  2   force =    -0.20817743    0.37806983  -37.88031175
     atom   36 type  3   force =     0.28178369    0.73512768    8.58886247
     The local contribution  to forces
     atom    1 type  1   force =     0.61256451   -1.33223935   -5.21120012
     atom    2 type  2   force =     0.66366320   -0.36544516  -36.36851968
     atom    3 type  2   force =     0.13108895   -0.06591856   36.22822766
     atom    4 type  1   force =    -0.05856414   -0.88034872   -0.72016063
     atom    5 type  2   force =     1.03299309   -1.62427288  -38.58429235
     atom    6 type  2   force =    -0.29381902    0.41201094   37.81425804
     atom    7 type  1   force =     2.75784206    3.02824932   -2.59331892
     atom    8 type  2   force =     0.98767171    0.00483700  -37.21385832
     atom    9 type  2   force =    -0.33120828    0.08173903   37.73788519
     atom   10 type  1   force =     0.82279453    2.12531753   -4.48272988
     atom   11 type  2   force =     0.71441805    1.87065984  -39.04515263
     atom   12 type  2   force =    -0.34985507   -0.55542468   37.70862706
     atom   13 type  1   force =    -0.42471838   -1.07589836   -2.90363106
     atom   14 type  2   force =     0.18886184   -0.02888957  -38.40359476
     atom   15 type  2   force =    -0.05418717    0.04303625   36.63874002
     atom   16 type  1   force =     0.11040553   -4.14298959   -0.54974994
     atom   17 type  2   force =    -0.80482298   -1.52797073  -37.76316406
     atom   18 type  2   force =     0.16175921    0.59177196   38.30499569
     atom   19 type  1   force =    -2.71201997    2.55364398   -0.73466824
     atom   20 type  2   force =    -0.20542914    0.22581220   38.21739289
     atom   21 type  1   force =     0.37816384    0.19353412   -1.16296924
     atom   22 type  2   force =    -0.43539400    1.76424080  -38.26305063
     atom   23 type  2   force =     0.08145999   -0.60756226   38.04218316
     atom   24 type  1   force =    -0.27891711   -1.75236077   -5.59269925
     atom   25 type  2   force =    -0.77248327   -0.26912090  -39.09939709
     atom   26 type  2   force =     0.18489970   -0.05803569   37.12750419
     atom   27 type  1   force =    -0.13007152   -0.59599803    2.11612152
     atom   28 type  2   force =    -0.13247843   -1.12269569  -37.99782329
     atom   29 type  2   force =     0.21731978    0.32509571   37.06628379
     atom   30 type  1   force =     0.19339693    1.14023330   -0.03758839
     atom   31 type  2   force =    -1.24114755    0.05726108  -37.13779433
     atom   32 type  2   force =     0.45378996    0.03849743   38.34888090
     atom   33 type  1   force =    -1.05653872    0.97556006   -2.11395993
     atom   34 type  2   force =    -0.40446887    1.60189400  -39.24055638
     atom   35 type  2   force =     0.20797915   -0.36147079   37.64007076
     atom   36 type  3   force =    -0.26148467   -0.71902398   -8.50031784
     The core correction contribution to forces
     atom    1 type  1   force =     0.00000000    0.00000000    0.00000000
     atom    2 type  2   force =    -0.00637327   -0.00938543   -0.00710914
     atom    3 type  2   force =     0.00065762    0.00013058   -0.02113759
     atom    4 type  1   force =     0.00000000    0.00000000    0.00000000
     atom    5 type  2   force =    -0.00099550    0.00249671    0.01980042
     atom    6 type  2   force =     0.00011160   -0.00084058   -0.02074015
     atom    7 type  1   force =     0.00000000    0.00000000    0.00000000
     atom    8 type  2   force =    -0.00025865    0.00049390    0.02028432
     atom    9 type  2   force =    -0.00040396    0.00075437   -0.02097703
     atom   10 type  1   force =     0.00000000    0.00000000    0.00000000
     atom   11 type  2   force =    -0.00080897   -0.00082702    0.02037664
     atom   12 type  2   force =     0.00087168    0.00113297   -0.02078247
     atom   13 type  1   force =     0.00000000    0.00000000    0.00000000
     atom   14 type  2   force =    -0.00103552   -0.00022105    0.02029793
     atom   15 type  2   force =     0.00067353    0.00022141   -0.02057704
     atom   16 type  1   force =     0.00000000    0.00000000    0.00000000
     atom   17 type  2   force =     0.00010839    0.00166339    0.02023068
     atom   18 type  2   force =     0.00024460   -0.00029225   -0.02092287
     atom   19 type  1   force =     0.00000000    0.00000000    0.00000000
     atom   20 type  2   force =     0.00005076    0.00075233   -0.02101393
     atom   21 type  1   force =     0.00000000    0.00000000    0.00000000
     atom   22 type  2   force =     0.00020109   -0.00075876    0.02038426
     atom   23 type  2   force =    -0.00046615    0.00087967   -0.02088380
     atom   24 type  1   force =     0.00000000    0.00000000    0.00000000
     atom   25 type  2   force =     0.00052991   -0.00067883    0.01994366
     atom   26 type  2   force =    -0.00008381    0.00067349   -0.02096274
     atom   27 type  1   force =     0.00000000    0.00000000    0.00000000
     atom   28 type  2   force =     0.00064592    0.00268401    0.01996515
     atom   29 type  2   force =    -0.00054043   -0.00039480   -0.02062884
     atom   30 type  1   force =     0.00000000    0.00000000    0.00000000
     atom   31 type  2   force =     0.00063481   -0.00000060    0.02042485
     atom   32 type  2   force =     0.00024383    0.00077127   -0.02088430
     atom   33 type  1   force =     0.00000000    0.00000000    0.00000000
     atom   34 type  2   force =     0.00096403    0.00066114    0.02092636
     atom   35 type  2   force =     0.00016092    0.00088425   -0.02116497
     atom   36 type  3   force =     0.00000000    0.00000000    0.00000000
     The Hubbard contrib.    to forces
     atom    1 type  1   force =     0.00000000    0.00000000    0.00000000
     atom    2 type  2   force =     0.00000000    0.00000000    0.00000000
     atom    3 type  2   force =     0.00000000    0.00000000    0.00000000
     atom    4 type  1   force =     0.00000000    0.00000000    0.00000000
     atom    5 type  2   force =     0.00000000    0.00000000    0.00000000
     atom    6 type  2   force =     0.00000000    0.00000000    0.00000000
     atom    7 type  1   force =     0.00000000    0.00000000    0.00000000
     atom    8 type  2   force =     0.00000000    0.00000000    0.00000000
     atom    9 type  2   force =     0.00000000    0.00000000    0.00000000
     atom   10 type  1   force =     0.00000000    0.00000000    0.00000000
     atom   11 type  2   force =     0.00000000    0.00000000    0.00000000
     atom   12 type  2   force =     0.00000000    0.00000000    0.00000000
     atom   13 type  1   force =     0.00000000    0.00000000    0.00000000
     atom   14 type  2   force =     0.00000000    0.00000000    0.00000000
     atom   15 type  2   force =     0.00000000    0.00000000    0.00000000
     atom   16 type  1   force =     0.00000000    0.00000000    0.00000000
     atom   17 type  2   force =     0.00000000    0.00000000    0.00000000
     atom   18 type  2   force =     0.00000000    0.00000000    0.00000000
     atom   19 type  1   force =     0.00000000    0.00000000    0.00000000
     atom   20 type  2   force =     0.00000000    0.00000000    0.00000000
     atom   21 type  1   force =     0.00000000    0.00000000    0.00000000
     atom   22 type  2   force =     0.00000000    0.00000000    0.00000000
     atom   23 type  2   force =     0.00000000    0.00000000    0.00000000
     atom   24 type  1   force =     0.00000000    0.00000000    0.00000000
     atom   25 type  2   force =     0.00000000    0.00000000    0.00000000
     atom   26 type  2   force =     0.00000000    0.00000000    0.00000000
     atom   27 type  1   force =     0.00000000    0.00000000    0.00000000
     atom   28 type  2   force =     0.00000000    0.00000000    0.00000000
     atom   29 type  2   force =     0.00000000    0.00000000    0.00000000
     atom   30 type  1   force =     0.00000000    0.00000000    0.00000000
     atom   31 type  2   force =     0.00000000    0.00000000    0.00000000
     atom   32 type  2   force =     0.00000000    0.00000000    0.00000000
     atom   33 type  1   force =     0.00000000    0.00000000    0.00000000
     atom   34 type  2   force =     0.00000000    0.00000000    0.00000000
     atom   35 type  2   force =     0.00000000    0.00000000    0.00000000
     atom   36 type  3   force =     0.00000000    0.00000000    0.00000000
     The SCF correction term to forces
     atom    1 type  1   force =     0.00001669   -0.00009356    0.00037012
     atom    2 type  2   force =    -0.00001817   -0.00000393   -0.00028712
     atom    3 type  2   force =     0.00004134    0.00006035    0.00047312
     atom    4 type  1   force =     0.00012296   -0.00021534    0.00028571
     atom    5 type  2   force =     0.00002674   -0.00011011   -0.00025075
     atom    6 type  2   force =     0.00002499   -0.00009767    0.00047590
     atom    7 type  1   force =    -0.00006451    0.00017925    0.00035251
     atom    8 type  2   force =     0.00010130    0.00004532   -0.00022659
     atom    9 type  2   force =     0.00010522    0.00002560    0.00048333
     atom   10 type  1   force =     0.00010394    0.00009426    0.00037358
     atom   11 type  2   force =    -0.00003243    0.00008093   -0.00019841
     atom   12 type  2   force =    -0.00005742    0.00006487    0.00043974
     atom   13 type  1   force =    -0.00005230   -0.00025033    0.00025949
     atom   14 type  2   force =    -0.00000377   -0.00002031   -0.00033253
     atom   15 type  2   force =    -0.00005281   -0.00002555    0.00053344
     atom   16 type  1   force =    -0.00003578   -0.00015936    0.00034934
     atom   17 type  2   force =    -0.00001809   -0.00010096   -0.00026415
     atom   18 type  2   force =    -0.00002899   -0.00010151    0.00049168
     atom   19 type  1   force =    -0.00016740    0.00026142    0.00032409
     atom   20 type  2   force =    -0.00010734    0.00007864    0.00049293
     atom   21 type  1   force =    -0.00025851    0.00012667    0.00027013
     atom   22 type  2   force =     0.00000106   -0.00000555   -0.00035486
     atom   23 type  2   force =    -0.00001455   -0.00001633    0.00058898
     atom   24 type  1   force =     0.00005274   -0.00008878    0.00020618
     atom   25 type  2   force =    -0.00000074    0.00001269   -0.00034656
     atom   26 type  2   force =     0.00000519    0.00001544    0.00054725
     atom   27 type  1   force =    -0.00008202   -0.00005919    0.00027826
     atom   28 type  2   force =    -0.00001274   -0.00009691   -0.00028598
     atom   29 type  2   force =     0.00000926   -0.00009998    0.00051161
     atom   30 type  1   force =     0.00018678    0.00012332    0.00031977
     atom   31 type  2   force =    -0.00000467    0.00012368   -0.00033302
     atom   32 type  2   force =     0.00001004    0.00011503    0.00058644
     atom   33 type  1   force =     0.00014765    0.00004012    0.00019259
     atom   34 type  2   force =     0.00003045   -0.00001034   -0.00026913
     atom   35 type  2   force =     0.00008037   -0.00002599    0.00050518
     atom   36 type  3   force =     0.00000403    0.00000042   -0.00004046

     Total force =     0.230084     Total SCF correction =     0.002419
     Energy error            =      7.2E-01 Ry
     Gradient error          =      1.3E-01 Ry/Bohr

     number of scf cycles    =   2
     number of bfgs steps    =   1

     energy             old  =   -2204.7995339077 Ry
     energy             new  =   -2205.5181163797 Ry

     CASE: energy            _new < energy            _old

     new trust radius        =       0.1227997396 bohr
     new conv_thr            =       0.0000001321 Ry


ATOMIC_POSITIONS (angstrom)
Mo            6.5619987249        1.7864049115        2.8109437063
S             8.0930471198        0.7420309053        4.2372456961
S             8.1863741836        0.8177338887        1.2681700409
Mo            8.1010808785        4.4912793481        2.7165419480
S             6.5001392228        3.7189921808        4.3453322837
S             6.5561061213        3.5184872682        1.1216953205
Mo            6.4907885691        7.2187641219        2.6687286489
S             8.0829888355        6.3405818519        4.2538727442
S             8.0902631164        6.3068924564        1.0899177177
Mo            8.1599718904        9.8501164209        2.7988735348
S             6.4936314789        8.9352835424        4.3808216780
S             6.6168393821        9.0498000646        1.1420471397
Mo            3.4249535498        1.7517394242        2.7716365985
S             4.9770928376        0.8166584094        4.3579567541
S             5.0495881108        0.8469613478        1.2208137864
Mo            4.9817330788        4.5122846020        2.6333954966
S             3.4313853755        3.6727956985        4.2811442076
S             3.4341078469        3.5447579140        1.0674560297
Mo            3.4578822492        7.2169460492        2.6278690502
S             4.9851556671        6.3235006052        1.0371418278
Mo            5.0093293191        9.9059041268        2.7419478484
S             3.4699999206        8.9421726040        4.3254856530
S             3.4080063371        9.0663315972        1.1015233720
Mo            0.3011287940        1.7495414088        2.8195853424
S             1.8595247676        0.8039519235        4.4039602814
S             1.8541414037        0.8546104115        1.2077513216
Mo            1.8570064790        4.4906310402        2.6653823537
S             0.2710401001        3.6529931969        4.3359986230
S             0.2331097597        3.5282838305        1.1697329537
Mo            0.2670918901        7.2238384374        2.7002420177
S             1.9040793508        6.3122656657        4.2326168865
S             1.8552858537        6.3129437867        1.0488077212
Mo            1.8526951257        9.9380308902        2.7654013220
S             0.3012007059        9.0585469399        4.4078252331
S             0.2725443682        9.0483065600        1.1579626559
H             8.4870434864        1.3449052023        5.3749197814



     Writing config-only to output data dir ./MoS2-V-O.save/
     NEW-OLD atomic charge density approx. for the potential

     negative rho (up, down):  1.468E-04 0.000E+00

     total cpu time spent up to now is      211.7 secs

     Self-consistent Calculation

     iteration #  1     ecut=    80.00 Ry     beta= 0.70
     Davidson diagonalization with overlap
     c_bands:  1 eigenvalues not converged
     ethr =  1.00E-06,  avg # of iterations = 20.0

     negative rho (up, down):  1.005E-04 0.000E+00

     total cpu time spent up to now is      233.8 secs

     total energy              =   -2205.55010104 Ry
     estimated scf accuracy    <       0.00673316 Ry

     iteration #  2     ecut=    80.00 Ry     beta= 0.70
     Davidson diagonalization with overlap
     ethr =  2.19E-06,  avg # of iterations = 11.0

     negative rho (up, down):  8.580E-05 0.000E+00

     total cpu time spent up to now is      255.8 secs

     total energy              =   -2205.55041924 Ry
     estimated scf accuracy    <       0.00107511 Ry

     iteration #  3     ecut=    80.00 Ry     beta= 0.70
     Davidson diagonalization with overlap
     ethr =  3.50E-07,  avg # of iterations =  3.0

     negative rho (up, down):  7.357E-05 0.000E+00

     total cpu time spent up to now is      271.1 secs

     total energy              =   -2205.55047584 Ry
     estimated scf accuracy    <       0.00023427 Ry

     iteration #  4     ecut=    80.00 Ry     beta= 0.70
     Davidson diagonalization with overlap
     ethr =  7.63E-08,  avg # of iterations =  6.0

     negative rho (up, down):  7.217E-05 0.000E+00

     total cpu time spent up to now is      289.4 secs

     total energy              =   -2205.55051651 Ry
     estimated scf accuracy    <       0.00003202 Ry

     iteration #  5     ecut=    80.00 Ry     beta= 0.70
     Davidson diagonalization with overlap
     ethr =  1.04E-08,  avg # of iterations = 15.0

     negative rho (up, down):  7.223E-05 0.000E+00

     total cpu time spent up to now is      308.8 secs

     total energy              =   -2205.55052337 Ry
     estimated scf accuracy    <       0.00000838 Ry

     iteration #  6     ecut=    80.00 Ry     beta= 0.70
     Davidson diagonalization with overlap
     ethr =  2.73E-09,  avg # of iterations =  3.0

     negative rho (up, down):  7.476E-05 0.000E+00

     total cpu time spent up to now is      320.8 secs

     total energy              =   -2205.55052397 Ry
     estimated scf accuracy    <       0.00000136 Ry

     iteration #  7     ecut=    80.00 Ry     beta= 0.70
     Davidson diagonalization with overlap
     ethr =  4.42E-10,  avg # of iterations =  5.0

     negative rho (up, down):  7.831E-05 0.000E+00

     total cpu time spent up to now is      332.1 secs

     total energy              =   -2205.55052418 Ry
     estimated scf accuracy    <       0.00000049 Ry

     iteration #  8     ecut=    80.00 Ry     beta= 0.70
     Davidson diagonalization with overlap
     ethr =  1.60E-10,  avg # of iterations =  2.0

     negative rho (up, down):  8.810E-05 0.000E+00

     total cpu time spent up to now is      345.2 secs

     total energy              =   -2205.55052413 Ry
     estimated scf accuracy    <       0.00000028 Ry

     iteration #  9     ecut=    80.00 Ry     beta= 0.70
     Davidson diagonalization with overlap
     ethr =  9.06E-11,  avg # of iterations =  2.0

     negative rho (up, down):  1.365E-04 0.000E+00

     total cpu time spent up to now is      347.0 secs

     End of self-consistent calculation

          k = 0.0000 0.0000 0.0000 (105382 PWs)   bands (ev):

   -62.9042 -62.8352 -62.8197 -62.8109 -62.7771 -62.7685 -62.7667 -62.7553
   -62.7322 -62.5421 -62.4977 -62.4658 -37.2425 -37.1534 -37.1335 -37.1016
   -37.0901 -37.0822 -37.0650 -37.0416 -37.0224 -37.0031 -37.0002 -36.9955
   -36.9844 -36.9606 -36.9519 -36.9513 -36.9464 -36.9411 -36.9301 -36.9236
   -36.8962 -36.8938 -36.8576 -36.8469 -36.8329 -36.8084 -36.7925 -36.7647
   -36.7241 -36.6992 -36.6860 -36.6605 -36.6492 -36.6130 -36.5006 -36.4817
   -16.7268 -15.7258 -15.1255 -15.0069 -14.8857 -14.8102 -14.6345 -14.4261
   -14.3910 -14.3733 -14.3367 -14.3158 -14.2862 -14.2117 -14.1003 -14.0933
   -14.0417 -14.0211 -13.9594 -13.8786 -13.7574 -13.7362 -13.7140  -9.4781
    -7.6976  -7.5335  -7.4223  -7.2653  -7.2226  -7.1718  -7.1231  -6.9916
    -6.7976  -6.7705  -6.7044  -6.6419  -6.5407  -6.5357  -6.4258  -6.3910
    -6.3172  -6.2932  -6.2187  -5.9323  -5.8784  -5.8283  -5.8027  -5.7794
    -5.7240  -5.6758  -5.6149  -5.5959  -5.5537  -5.5032  -5.4732  -5.4559
    -5.3632  -5.2767  -5.2083  -5.1182  -5.0248  -4.9985  -4.9096  -4.9010
    -4.8586  -4.7460  -4.6107  -4.4477  -4.4011  -4.3414  -4.2510  -4.2005
    -4.1675  -4.0251  -3.9621  -3.8645  -3.7875  -3.7235  -3.6835  -3.6720
    -3.6144  -3.5854  -3.4944  -3.4726  -3.4327  -3.4257  -3.3657  -3.3241
    -3.3093  -3.1475  -3.1089  -2.8609  -2.8079  -2.7574  -2.7011  -2.6778
    -2.6541  -2.6398  -2.6122  -2.5359  -2.4439  -2.1648  -1.9509  -1.9315
    -1.8415  -0.6350  -0.5835  -0.3239  -0.1743  -0.0913  -0.0441   0.0175
     0.0565   0.1956   0.2365   0.2660   0.3327   0.3646   0.4671   0.5249
     0.5868   0.6133   0.6540   0.6854   0.7164   0.7176   0.7553   0.8023
     0.8472   0.8804   0.9057   0.9955   1.0059   1.0630   1.0922   1.4393
     1.4513

     the Fermi energy is    -0.6765 ev

!    total energy              =   -2205.55052395 Ry
     estimated scf accuracy    <       0.00000007 Ry
     smearing contrib. (-TS)   =      -0.00868299 Ry
     internal energy E=F+TS    =   -2205.54184097 Ry

     The total energy is F=E-TS. E is the sum of the following terms:
     one-electron contribution =  -18077.64562302 Ry
     hartree contribution      =    9026.21434519 Ry
     xc contribution           =    -385.50489512 Ry
     ewald contribution        =    7231.39433199 Ry

     convergence has been achieved in   9 iterations

     negative rho (up, down):  1.365E-04 0.000E+00

     Forces acting on atoms (cartesian axes, Ry/au):

     atom    1 type  1   force =    -0.02069185    0.00570892   -0.01494468
     atom    2 type  2   force =     0.00997511    0.06061256    0.03598012
     atom    3 type  2   force =    -0.01169355    0.00052865   -0.01573061
     atom    4 type  1   force =     0.00653569   -0.00286068    0.00170900
     atom    5 type  2   force =     0.00067716   -0.00589901   -0.00413608
     atom    6 type  2   force =     0.00282923    0.00975476   -0.00278604
     atom    7 type  1   force =    -0.00122452   -0.00666026   -0.00120894
     atom    8 type  2   force =     0.00075123   -0.00491798    0.01084841
     atom    9 type  2   force =     0.01197570    0.00291720    0.00654939
     atom   10 type  1   force =    -0.00190973   -0.01166202   -0.01160386
     atom   11 type  2   force =    -0.00024242   -0.00954372   -0.00755750
     atom   12 type  2   force =    -0.00787749   -0.00481318   -0.00863338
     atom   13 type  1   force =     0.00288577    0.00170711   -0.00150736
     atom   14 type  2   force =     0.00157065    0.00037923    0.00589977
     atom   15 type  2   force =    -0.01366020    0.00009900   -0.01288843
     atom   16 type  1   force =     0.00305591    0.00150781    0.00154569
     atom   17 type  2   force =     0.00492537    0.00132379    0.00163921
     atom   18 type  2   force =    -0.00485020   -0.00292914    0.01053406
     atom   19 type  1   force =     0.00408614   -0.00053079   -0.00086225
     atom   20 type  2   force =     0.00267685   -0.00489553   -0.00136075
     atom   21 type  1   force =    -0.00090469    0.00519891    0.00354619
     atom   22 type  2   force =    -0.00001962   -0.00179827   -0.00170933
     atom   23 type  2   force =     0.00076949    0.00065225    0.00330778
     atom   24 type  1   force =     0.00423922    0.00364543   -0.02132866
     atom   25 type  2   force =     0.00752444    0.01447099   -0.00112081
     atom   26 type  2   force =    -0.00375926   -0.00042837   -0.00791968
     atom   27 type  1   force =    -0.00348633   -0.00344638    0.00797148
     atom   28 type  2   force =    -0.00123614   -0.00636502   -0.00491995
     atom   29 type  2   force =     0.00350799    0.00360989   -0.00840986
     atom   30 type  1   force =     0.00134818   -0.00002795    0.00322359
     atom   31 type  2   force =     0.00190525   -0.00033827    0.00938139
     atom   32 type  2   force =    -0.00897700    0.00248807    0.00690248
     atom   33 type  1   force =     0.00356617   -0.00018867    0.00139000
     atom   34 type  2   force =     0.00426027   -0.03724653   -0.01490552
     atom   35 type  2   force =     0.00101527    0.00089356   -0.00215516
     atom   36 type  3   force =     0.00045192   -0.01094637    0.03526029
     The non-local contrib.  to forces
     atom    1 type  1   force =    -0.00765729    0.03276421   -0.01389431
     atom    2 type  2   force =     0.10258703    0.10973684    0.19657262
     atom    3 type  2   force =    -0.01449626   -0.01516384    0.27864645
     atom    4 type  1   force =    -0.00500294    0.01563247    0.00310756
     atom    5 type  2   force =     0.01046941   -0.03969766   -0.24722042
     atom    6 type  2   force =    -0.00159140    0.00580375    0.25962146
     atom    7 type  1   force =    -0.03792041   -0.01662467   -0.01717945
     atom    8 type  2   force =     0.00441584   -0.00546941   -0.25663300
     atom    9 type  2   force =     0.00861183   -0.01402673    0.27498205
     atom   10 type  1   force =     0.00176139   -0.01635895   -0.02334865
     atom   11 type  2   force =     0.00982946    0.00582959   -0.25788087
     atom   12 type  2   force =    -0.01311759   -0.01844408    0.25470126
     atom   13 type  1   force =    -0.00026091    0.02773581   -0.00837265
     atom   14 type  2   force =     0.01214787   -0.00359977   -0.25921999
     atom   15 type  2   force =    -0.01320816   -0.00452664    0.25699437
     atom   16 type  1   force =    -0.00543031    0.05422892   -0.02009458
     atom   17 type  2   force =     0.00011931   -0.02989909   -0.25049196
     atom   18 type  2   force =    -0.00444597   -0.00383622    0.27045362
     atom   19 type  1   force =     0.02819931   -0.01203724   -0.00661021
     atom   20 type  2   force =     0.00062280   -0.02005755    0.26224578
     atom   21 type  1   force =    -0.00345423    0.01127081    0.00419220
     atom   22 type  2   force =    -0.00511711    0.00775065   -0.25761808
     atom   23 type  2   force =     0.00679682   -0.01080305    0.26449192
     atom   24 type  1   force =     0.01392603    0.02730729   -0.00730035
     atom   25 type  2   force =     0.00067378    0.00827079   -0.25448547
     atom   26 type  2   force =     0.00175423   -0.01321934    0.26145119
     atom   27 type  1   force =     0.00421731    0.01656103    0.00646654
     atom   28 type  2   force =    -0.00577422   -0.03512943   -0.25980539
     atom   29 type  2   force =     0.00603875   -0.00079663    0.26154639
     atom   30 type  1   force =     0.00483932    0.01046039    0.00391407
     atom   31 type  2   force =    -0.00985749    0.00102903   -0.25747739
     atom   32 type  2   force =    -0.00613166   -0.01383532    0.27260614
[...]
     atom   27 type  1   force =     0.00349179    0.01699937    0.00412579
     atom   28 type  2   force =    -0.00294645   -0.02497496   -0.26045593
     atom   29 type  2   force =     0.00165365   -0.01142221    0.26676639
     atom   30 type  1   force =     0.00683116    0.01161417    0.00381987
     atom   31 type  2   force =    -0.01298904   -0.00077089   -0.26335433
     atom   32 type  2   force =     0.00423530   -0.01294949    0.26832987
     atom   33 type  1   force =     0.00277080    0.00125751    0.00250546
     atom   34 type  2   force =    -0.00876244   -0.00108799   -0.26439483
     atom   35 type  2   force =    -0.00010685   -0.01415182    0.26723022
     atom   36 type  3   force =    -0.00185578   -0.00860124   -0.06159667
     The ionic contribution  to forces
     atom    1 type  1   force =     0.31704499   -0.07549908    2.09408136
     atom    2 type  2   force =    -0.20443322   -0.30929515   35.92934870
     atom    3 type  2   force =     0.05847918   -0.32992779  -36.59560393
     atom    4 type  1   force =    -0.11072973    0.61934555    0.52499911
     atom    5 type  2   force =    -0.91459942    1.33391908   38.58545502
     atom    6 type  2   force =     0.36176647   -0.32656650  -38.46681273
     atom    7 type  1   force =    -2.63063670   -1.78957675    3.90150942
     atom    8 type  2   force =    -1.09277183    0.21045790   38.27108711
     atom    9 type  2   force =     0.23342229    0.22567210  -37.60830952
     atom   10 type  1   force =    -0.57996775    0.08416179    4.47043453
     atom   11 type  2   force =    -0.56359043   -1.37056905   38.80897845
     atom   12 type  2   force =     0.26448948    0.34098207  -37.54872396
     atom   13 type  1   force =     0.10088099    0.66266950    1.69137991
     atom   14 type  2   force =     0.00391334   -0.15945653   38.55390477
     atom   15 type  2   force =     0.21704864   -0.32622089  -37.72862186
     atom   16 type  1   force =    -0.77663558    3.96304816    0.61133263
     atom   17 type  2   force =     0.84771890    1.38320390   38.06485268
     atom   18 type  2   force =    -0.16105403   -0.18038696  -38.13038540
     atom   19 type  1   force =     2.69196590   -2.53949492    1.50929988
     atom   20 type  2   force =    -0.02685404    0.07441741  -38.57050472
     atom   21 type  1   force =     0.50046642   -0.32430160    1.25446725
     atom   22 type  2   force =     0.44217950   -1.48066232   38.66516512
     atom   23 type  2   force =    -0.16205097    0.36635490  -38.09987162
     atom   24 type  1   force =    -0.51262808   -0.23384276    1.98251468
     atom   25 type  2   force =     0.22762124   -0.03329449   38.88275740
     atom   26 type  2   force =    -0.23393257   -0.24782237  -37.73686393
     atom   27 type  1   force =     0.69310574    0.90521600    0.40994704
     atom   28 type  2   force =     0.07582517    0.63650675   38.36352079
     atom   29 type  2   force =    -0.11153761   -0.11203417  -37.94810047
     atom   30 type  1   force =    -0.16374805   -0.71228233    2.39500312
     atom   31 type  2   force =     1.42791182    0.05169505   38.15251495
     atom   32 type  2   force =    -0.27824274    0.04243176  -37.93769424
     atom   33 type  1   force =     0.05981954   -0.39316146    2.82058676
     atom   34 type  2   force =     0.10049820   -0.42310069   39.05418806
     atom   35 type  2   force =    -0.10986578    0.28714777  -37.32706077
     atom   36 type  3   force =     0.00912075    0.18026612    8.70122439
     The local contribution  to forces
     atom    1 type  1   force =    -0.30148681    0.04445459   -2.08355514
     atom    2 type  2   force =     0.19462214    0.26778832  -36.18150740
     atom    3 type  2   force =    -0.05595185    0.33852316   36.33010188
     atom    4 type  1   force =     0.11296664   -0.63256960   -0.52906144
     atom    5 type  2   force =     0.90665809   -1.30330725  -38.35857798
     atom    6 type  2   force =    -0.36250391    0.33335019   38.22626424
     atom    7 type  1   force =     2.67539922    1.80399026   -3.87624298
     atom    8 type  2   force =     1.08614075   -0.21084125  -38.02723183
     atom    9 type  2   force =    -0.23089103   -0.20564033   37.36153045
     atom   10 type  1   force =     0.58026684   -0.06222232   -4.45388665
     atom   11 type  2   force =     0.55423628    1.36424009  -38.57487978
     atom   12 type  2   force =    -0.25624297   -0.32814229   37.30366755
     atom   13 type  1   force =    -0.10129544   -0.69011678   -1.68394858
     atom   14 type  2   force =    -0.01092696    0.16343778  -38.31805965
     atom   15 type  2   force =    -0.21516743    0.33020156   37.48852969
     atom   16 type  1   force =     0.78693842   -4.02111205   -0.58988450
     atom   17 type  2   force =    -0.84013046   -1.35983719  -37.83207562
     atom   18 type  2   force =     0.15963803    0.18646946   37.88607790
     atom   19 type  1   force =    -2.71952573    2.54949580   -1.50312216
     atom   20 type  2   force =     0.02811506   -0.06021783   38.33033731
     atom   21 type  1   force =    -0.49580285    0.31152006   -1.25724756
     atom   22 type  2   force =    -0.43519616    1.47253986  -38.42948506
     atom   23 type  2   force =     0.15753606   -0.35865408   37.85858048
     atom   24 type  1   force =     0.49499162    0.20719935   -1.97237185
     atom   25 type  2   force =    -0.22035677    0.03896607  -38.64641412
     atom   26 type  2   force =     0.23003759    0.25485368   37.49245037
     atom   27 type  1   force =    -0.69659898   -0.92244977   -0.41351236
     atom   28 type  2   force =    -0.07381911   -0.61327727  -38.12397734
     atom   29 type  2   force =     0.11053012    0.12287455   37.70290505
     atom   30 type  1   force =     0.15589296    0.70083231   -2.39873571
     atom   31 type  2   force =    -1.41573778   -0.05125643  -37.91019172
     atom   32 type  2   force =     0.27372777   -0.03014462   37.69095611
     atom   33 type  1   force =    -0.06200537    0.39119216   -2.82326802
     atom   34 type  2   force =    -0.09294580    0.42417292  -38.81133150
     atom   35 type  2   force =     0.11080759   -0.27438382   37.08014151
     atom   36 type  3   force =    -0.00762438   -0.17313024   -8.64118086
     The core correction contribution to forces
     atom    1 type  1   force =     0.00000000    0.00000000    0.00000000
     atom    2 type  2   force =    -0.00073353   -0.00286309   -0.01079963
     atom    3 type  2   force =     0.00013066    0.00013434   -0.02156838
     atom    4 type  1   force =     0.00000000    0.00000000    0.00000000
     atom    5 type  2   force =    -0.00074439    0.00191907    0.01986605
     atom    6 type  2   force =     0.00028678    0.00001772   -0.02078590
     atom    7 type  1   force =     0.00000000    0.00000000    0.00000000
     atom    8 type  2   force =    -0.00033579    0.00030064    0.02062323
     atom    9 type  2   force =     0.00029375    0.00119859   -0.02076221
     atom   10 type  1   force =     0.00000000    0.00000000    0.00000000
     atom   11 type  2   force =    -0.00069589   -0.00081187    0.02020211
     atom   12 type  2   force =     0.00059391    0.00068864   -0.02087144
     atom   13 type  1   force =     0.00000000    0.00000000    0.00000000
     atom   14 type  2   force =    -0.00063228   -0.00017783    0.02023735
     atom   15 type  2   force =     0.00012835    0.00000889   -0.02066385
     atom   16 type  1   force =     0.00000000    0.00000000    0.00000000
     atom   17 type  2   force =     0.00067847    0.00125346    0.02017060
     atom   18 type  2   force =    -0.00006711    0.00000426   -0.02073302
     atom   19 type  1   force =     0.00000000    0.00000000    0.00000000
     atom   20 type  2   force =    -0.00005919    0.00068052   -0.02105414
     atom   21 type  1   force =     0.00000000    0.00000000    0.00000000
     atom   22 type  2   force =     0.00018594   -0.00081406    0.02036593
     atom   23 type  2   force =    -0.00047941    0.00065930   -0.02076304
     atom   24 type  1   force =     0.00000000    0.00000000    0.00000000
     atom   25 type  2   force =     0.00078614    0.00022664    0.02029304
     atom   26 type  2   force =    -0.00020853    0.00018945   -0.02098311
     atom   27 type  1   force =     0.00000000    0.00000000    0.00000000
     atom   28 type  2   force =     0.00027998    0.00179626    0.02043648
     atom   29 type  2   force =    -0.00008748    0.00050554   -0.02089529
     atom   30 type  1   force =     0.00000000    0.00000000    0.00000000
     atom   31 type  2   force =     0.00092167    0.00021310    0.02065526
     atom   32 type  2   force =    -0.00035144    0.00067453   -0.02087299
     atom   33 type  1   force =     0.00000000    0.00000000    0.00000000
     atom   34 type  2   force =     0.00076778   -0.00031434    0.02068640
     atom   35 type  2   force =     0.00004633    0.00085868   -0.02104478
     atom   36 type  3   force =     0.00000000    0.00000000    0.00000000
     The Hubbard contrib.    to forces
     atom    1 type  1   force =     0.00000000    0.00000000    0.00000000
     atom    2 type  2   force =     0.00000000    0.00000000    0.00000000
     atom    3 type  2   force =     0.00000000    0.00000000    0.00000000
     atom    4 type  1   force =     0.00000000    0.00000000    0.00000000
     atom    5 type  2   force =     0.00000000    0.00000000    0.00000000
     atom    6 type  2   force =     0.00000000    0.00000000    0.00000000
     atom    7 type  1   force =     0.00000000    0.00000000    0.00000000
     atom    8 type  2   force =     0.00000000    0.00000000    0.00000000
     atom    9 type  2   force =     0.00000000    0.00000000    0.00000000
     atom   10 type  1   force =     0.00000000    0.00000000    0.00000000
     atom   11 type  2   force =     0.00000000    0.00000000    0.00000000
     atom   12 type  2   force =     0.00000000    0.00000000    0.00000000
     atom   13 type  1   force =     0.00000000    0.00000000    0.00000000
     atom   14 type  2   force =     0.00000000    0.00000000    0.00000000
     atom   15 type  2   force =     0.00000000    0.00000000    0.00000000
     atom   16 type  1   force =     0.00000000    0.00000000    0.00000000
     atom   17 type  2   force =     0.00000000    0.00000000    0.00000000
     atom   18 type  2   force =     0.00000000    0.00000000    0.00000000
     atom   19 type  1   force =     0.00000000    0.00000000    0.00000000
     atom   20 type  2   force =     0.00000000    0.00000000    0.00000000
     atom   21 type  1   force =     0.00000000    0.00000000    0.00000000
     atom   22 type  2   force =     0.00000000    0.00000000    0.00000000
     atom   23 type  2   force =     0.00000000    0.00000000    0.00000000
     atom   24 type  1   force =     0.00000000    0.00000000    0.00000000
     atom   25 type  2   force =     0.00000000    0.00000000    0.00000000
     atom   26 type  2   force =     0.00000000    0.00000000    0.00000000
     atom   27 type  1   force =     0.00000000    0.00000000    0.00000000
     atom   28 type  2   force =     0.00000000    0.00000000    0.00000000
     atom   29 type  2   force =     0.00000000    0.00000000    0.00000000
     atom   30 type  1   force =     0.00000000    0.00000000    0.00000000
     atom   31 type  2   force =     0.00000000    0.00000000    0.00000000
     atom   32 type  2   force =     0.00000000    0.00000000    0.00000000
     atom   33 type  1   force =     0.00000000    0.00000000    0.00000000
     atom   34 type  2   force =     0.00000000    0.00000000    0.00000000
     atom   35 type  2   force =     0.00000000    0.00000000    0.00000000
     atom   36 type  3   force =     0.00000000    0.00000000    0.00000000
     The SCF correction term to forces
     atom    1 type  1   force =    -0.00000098   -0.00003651   -0.00002420
     atom    2 type  2   force =    -0.00002617   -0.00003775   -0.00002877
     atom    3 type  2   force =     0.00000604    0.00000818    0.00000501
     atom    4 type  1   force =    -0.00001580    0.00006091   -0.00005488
     atom    5 type  2   force =     0.00000713    0.00001852   -0.00001147
     atom    6 type  2   force =     0.00000533   -0.00000320   -0.00000462
     atom    7 type  1   force =    -0.00001286    0.00001158    0.00004166
     atom    8 type  2   force =    -0.00000570    0.00001040   -0.00000925
     atom    9 type  2   force =     0.00000520   -0.00000863    0.00000532
     atom   10 type  1   force =    -0.00002965   -0.00001723    0.00004288
     atom   11 type  2   force =    -0.00001664    0.00000006    0.00000817
     atom   12 type  2   force =    -0.00002053   -0.00000758    0.00000517
     atom   13 type  1   force =     0.00002485   -0.00004021   -0.00007194
     atom   14 type  2   force =     0.00001854   -0.00002320    0.00000423
     atom   15 type  2   force =     0.00000691    0.00000297   -0.00000822
     atom   16 type  1   force =     0.00002733    0.00004281    0.00000308
     atom   17 type  2   force =     0.00000351    0.00002876   -0.00001315
     atom   18 type  2   force =    -0.00000042    0.00000387   -0.00001165
     atom   19 type  1   force =     0.00000760    0.00001382    0.00002972
     atom   20 type  2   force =    -0.00000430    0.00001633    0.00001757
     atom   21 type  1   force =     0.00000872   -0.00007176    0.00002573
     atom   22 type  2   force =     0.00002103   -0.00001759   -0.00000283
     atom   23 type  2   force =     0.00000366   -0.00000256    0.00000643
     atom   24 type  1   force =    -0.00003860   -0.00003697   -0.00005859
     atom   25 type  2   force =     0.00000674   -0.00002388   -0.00001312
     atom   26 type  2   force =    -0.00000069   -0.00000693   -0.00001729
     atom   27 type  1   force =    -0.00000441    0.00009060   -0.00005265
     atom   28 type  2   force =    -0.00000959    0.00002154   -0.00002214
     atom   29 type  2   force =    -0.00000655    0.00001064   -0.00001804
     atom   30 type  1   force =     0.00000959   -0.00001394    0.00001646
     atom   31 type  2   force =     0.00000047    0.00001886   -0.00001296
     atom   32 type  2   force =    -0.00000568    0.00000006    0.00000526
     atom   33 type  1   force =    -0.00001319   -0.00005585   -0.00003093
     atom   34 type  2   force =     0.00000390   -0.00001072   -0.00000132
     atom   35 type  2   force =     0.00002069   -0.00000985    0.00000066
     atom   36 type  3   force =    -0.00000345   -0.00000376    0.00000005

     Total force =     0.006441     Total SCF correction =     0.000256
     Energy error            =      8.8E-05 Ry
     Gradient error          =      2.5E-03 Ry/Bohr

     bfgs converged in  23 scf cycles and  22 bfgs steps
     (criteria: energy <  1.0E-04 Ry, force <  1.0E-02 Ry/Bohr)

     End of BFGS Geometry Optimization

     Final energy             =   -2205.5908941690 Ry

     File ./MoS2-V-O.bfgs deleted, as requested
Begin final coordinates

ATOMIC_POSITIONS (angstrom)
Mo            6.5373792489        1.7940433200        2.7505118467
S             8.1349712389        0.8759117077        4.2755303193
S             8.1466267808        0.8284991798        1.2105961244
Mo            8.1434346339        4.4830750426        2.7068096017
S             6.5310938521        3.6891855818        4.3128038585
S             6.5810901091        3.5637541213        1.0850173820
Mo            6.5035428306        7.1626683603        2.6876022664
S             8.0954699828        6.2927447939        4.3056737089
S             8.1470342160        6.3234259863        1.1224442378
Mo            8.1342931423        9.8877471115        2.7959164468
S             6.4941251172        8.9183262824        4.3493999965
S             6.5965977335        9.0156515346        1.1446188423
Mo            3.4342430678        1.7621090456        2.7358930632
S             4.9867037848        0.8344868963        4.3305916415
S             5.0030078999        0.8451002206        1.1478785686
Mo            5.0290964017        4.5297503236        2.6266867408
S             3.4900765138        3.6729249631        4.2794516830
S             3.4337163190        3.5717983971        1.0897954357
Mo            3.4701126432        7.2321473638        2.6418005768
S             4.9924586448        6.3251581822        1.0337721776
Mo            4.9972273661        9.9206202365        2.7277807676
S             3.4657838018        8.9723377596        4.3258149192
S             3.3993812426        9.0657450976        1.1112095134
Mo            0.3065196239        1.7775220906        2.7604649369
S             1.8778299521        0.8665519766        4.3593582586
S             1.8507318054        0.8511634587        1.1547470598
Mo            1.8758726656        4.5013784031        2.6994245297
S             0.2963482141        3.6318405840        4.3155639407
S             0.2828148672        3.5697216854        1.1245568980
Mo            0.2830698232        7.2149917564        2.7398047584
S             1.9379845803        6.3146033157        4.2907607998
S             1.8491666187        6.3310233721        1.0988661834
Mo            1.8492017356        9.9532010605        2.7616067566
S             0.2899176045        9.0078616857        4.3724312320
S             0.2566135438        9.0472857739        1.1802946496
H             8.1748182948        1.0609119617        5.6352678544
End final coordinates



     Writing all to output data dir ./MoS2-V-O.save/
 
     init_run     :      2.44s CPU      3.16s WALL (       1 calls)
     electrons    :   2125.80s CPU   2319.81s WALL (      23 calls)
     update_pot   :     30.96s CPU     32.21s WALL (      22 calls)
     forces       :     31.17s CPU     33.35s WALL (      23 calls)

     Called by init_run:
     wfcinit      :      0.43s CPU      0.68s WALL (       1 calls)
     potinit      :      1.34s CPU      1.43s WALL (       1 calls)
     hinit0       :      0.16s CPU      0.49s WALL (       1 calls)

     Called by electrons:
     c_bands      :    247.56s CPU    250.21s WALL (     202 calls)
     sum_band     :     65.94s CPU     71.95s WALL (     202 calls)
     v_of_rho     :     82.86s CPU     95.51s WALL (     210 calls)
     newd         :     33.32s CPU     37.63s WALL (     210 calls)
     mix_rho      :   1706.28s CPU   1873.72s WALL (     202 calls)

     Called by c_bands:
     init_us_2    :      4.46s CPU      4.61s WALL (     405 calls)
     init_us_2:cp :      4.46s CPU      4.60s WALL (     405 calls)
     regterg      :    232.81s CPU    235.31s WALL (     202 calls)

     Called by *egterg:
     rdiaghg      :     18.75s CPU     19.07s WALL (    1079 calls)
     h_psi        :    136.88s CPU    138.01s WALL (    1117 calls)
     s_psi        :     16.60s CPU     16.65s WALL (    1117 calls)
     g_psi        :      0.88s CPU      0.89s WALL (     914 calls)

     Called by h_psi:
     h_psi:calbec :     18.13s CPU     18.25s WALL (    1117 calls)
     vloc_psi     :    100.37s CPU    101.29s WALL (    1117 calls)
     add_vuspsi   :     16.24s CPU     16.31s WALL (    1117 calls)

     General routines
     calbec       :     25.98s CPU     26.13s WALL (    1411 calls)
     fft          :     55.35s CPU     64.64s WALL (   14158 calls)
     ffts         :    762.40s CPU    924.21s WALL (  410618 calls)
     fftw         :     89.11s CPU     89.83s WALL (  121508 calls)
     interpolate  :      1.48s CPU      1.72s WALL (     210 calls)
 
     Parallel routines
 
     PWSCF        :  36m34.96s CPU  39m55.43s WALL

 
   This run was terminated on:  22:45: 1   3Nov2023            

=------------------------------------------------------------------------------=
   JOB DONE.
=------------------------------------------------------------------------------=
