
     Program PWSCF v.7.2 starts on  4Nov2023 at 10:35: 3 

     This program is part of the open-source Quantum ESPRESSO suite
     for quantum simulation of materials; please cite
         "P. Giannozzi et al., J. Phys.:Condens. Matter 21 395502 (2009);
         "P. Giannozzi et al., J. Phys.:Condens. Matter 29 465901 (2017);
         "P. Giannozzi et al., J. Chem. Phys. 152 154105 (2020);
          URL http://www.quantum-espresso.org", 
     in publications or presentations arising from this work. More details at
     http://www.quantum-espresso.org/quote

     Parallel version (MPI & OpenMP), running on      48 processor cores
     Number of MPI processes:                48
     Threads/MPI process:                     1

     MPI processes distributed on     1 nodes
     63123 MiB available memory on the printing compute node when the environment starts
 
     Waiting for input...
     Reading input from standard input
Warning: card &CELL ignored
Warning: card CELL_DYNAMICS = 'BFGS', ignored
Warning: card CELL_DOFREE = '2DXY' ignored
Warning: card / ignored

     Current dimensions of program PWSCF are:
     Max number of different atomic species (ntypx) = 10
     Max number of k-points (npk) =  40000
     Max angular momentum in pseudopotentials (lmaxx) =  4

     IMPORTANT: XC functional enforced from input :
     Exchange-correlation= RVV10
                           (   1   4  13   4  26   0   0)
     Any further DFT definition will be discarded
     Please, verify this is what you really want


     gamma-point specific algorithms are used
     signal trapping enabled: kill the code with -SIGUSR1 to stop cleanly the simulation 
 
     R & G space division:  proc/nbgrp/npool/nimage =      48
     Subspace diagonalization in iterative solution of the eigenvalue problem:
     one sub-group per band group will be used
     scalapack distributed-memory algorithm (size of sub-group:  2*  2 procs)

 
     Parallelization info
     --------------------
     sticks:   dense  smooth     PW     G-vecs:    dense   smooth      PW
     Min         243     194     47                49060    35090    4376
     Max         246     196     50                49086    35128    4410
     Sum       11735    9389   2349              2355467  1685513  210763
 
     Using Slab Decomposition
 


     bravais-lattice index     =            0
     lattice parameter (alat)  =      17.8707  a.u.
     unit-cell volume          =   17436.2743 (a.u.)^3
     number of atoms/cell      =           36
     number of atomic types    =            3
     number of electrons       =       307.00
     number of Kohn-Sham states=          185
     kinetic-energy cutoff     =      80.0000  Ry
     charge density cutoff     =     400.0000  Ry
     scf convergence threshold =      1.0E-06
     mixing beta               =       0.7000
     number of iterations used =            8  local-TF  mixing
     energy convergence thresh.=      1.0E-04
     force convergence thresh. =      1.0E-02
     Exchange-correlation= RVV10
                           (   1   4  13   4  26   0   0)
     nstep                     =          200


     celldm(1)=  17.870686  celldm(2)=   0.000000  celldm(3)=   0.000000
     celldm(4)=   0.000000  celldm(5)=   0.000000  celldm(6)=   0.000000

     crystal axes: (cart. coord. in units of alat)
               a(1) = (   1.000000   0.000000   0.000000 )  
               a(2) = (   0.000000   1.155671   0.000000 )  
               a(3) = (   0.000000   0.000000   2.643601 )  

     reciprocal axes: (cart. coord. in units 2 pi/alat)
               b(1) = (  1.000000  0.000000  0.000000 )  
               b(2) = (  0.000000  0.865298  0.000000 )  
               b(3) = (  0.000000  0.000000  0.378272 )  


     PseudoPot. # 1 for Mo read from file:
     ../pseudo/Mo_ONCV_PBE-1.0.oncvpsp.upf
     MD5 check sum: 1b5d28e075c9ccadda658a603575cd1f
     Pseudo is Norm-conserving, Zval = 14.0
     Generated using ONCVPSP code by D. R. Hamann
     Using radial grid of 1526 points,  6 beta functions with: 
                l(1) =   0
                l(2) =   0
                l(3) =   1
                l(4) =   1
                l(5) =   2
                l(6) =   2

     PseudoPot. # 2 for S  read from file:
     ../pseudo/s_pbe_v1.4.uspp.F.UPF
     MD5 check sum: 88d86576ff6df21479756cfb9bdac1df
     Pseudo is Ultrasoft + core correction, Zval =  6.0
     Generated by new atomic code, or converted to UPF format
     Using radial grid of  907 points,  6 beta functions with: 
                l(1) =   0
                l(2) =   0
                l(3) =   1
                l(4) =   1
                l(5) =   2
                l(6) =   2
     Q(r) pseudized with  8 coefficients,  rinner =    1.300   1.300   1.300
                                                       1.300   1.300

     PseudoPot. # 3 for H  read from file:
     ../pseudo/H_ONCV_PBE-1.0.oncvpsp.upf
     MD5 check sum: 1790becc920ee074925cf490c71280fe
     Pseudo is Norm-conserving, Zval =  1.0
     Generated using ONCVPSP code by D. R. Hamann
     Using radial grid of 1166 points,  2 beta functions with: 
                l(1) =   0
                l(2) =   0

     atomic species   valence    mass     pseudopotential
        Mo            14.00    95.94000     Mo( 1.00)
        S              6.00    32.06500     S ( 1.00)
        H              1.00     1.00794     H ( 1.00)

     No symmetry found



   Cartesian axes

     site n.     atom                  positions (alat units)
         1           Mo  tau(   1) = (   0.6952221   0.1890506   0.2985846  )
         2           S   tau(   2) = (   0.8646417   0.0856217   0.4689279  )
         3           S   tau(   3) = (   0.8663890   0.0857843   0.1351291  )
         4           Mo  tau(   4) = (   0.8560186   0.4753274   0.2873942  )
         5           S   tau(   5) = (   0.6873294   0.3936244   0.4596353  )
         6           S   tau(   6) = (   0.6929804   0.3713468   0.1185692  )
         7           Mo  tau(   7) = (   0.6862796   0.7633098   0.2825370  )
         8           S   tau(   8) = (   0.8545980   0.6708292   0.4486168  )
         9           S   tau(   9) = (   0.8545123   0.6666874   0.1146125  )
        10           Mo  tau(  10) = (   0.8629403   1.0471007   0.3006803  )
        11           S   tau(  11) = (   0.6868280   0.9456650   0.4634891  )
        12           S   tau(  12) = (   0.6998113   0.9568511   0.1205389  )
        13           Mo  tau(  13) = (   0.3618216   0.1847309   0.2935964  )
        14           S   tau(  14) = (   0.5260962   0.0863870   0.4600448  )
        15           S   tau(  15) = (   0.5348379   0.0894875   0.1297123  )
        16           Mo  tau(  16) = (   0.5265817   0.4772436   0.2784130  )
        17           S   tau(  17) = (   0.3624753   0.3882513   0.4525556  )
        18           S   tau(  18) = (   0.3635411   0.3752055   0.1119148  )
        19           Mo  tau(  19) = (   0.3652268   0.7630864   0.2781795  )
        20           S   tau(  20) = (   0.5269494   0.6690381   0.1096838  )
        21           Mo  tau(  21) = (   0.5300192   1.0470394   0.2900995  )
        22           S   tau(  22) = (   0.3670346   0.9457522   0.4574073  )
        23           S   tau(  23) = (   0.3604225   0.9585725   0.1159032  )
        24           Mo  tau(  24) = (   0.0313099   0.1847895   0.3013130  )
        25           S   tau(  25) = (   0.1956761   0.0838230   0.4650863  )
        26           S   tau(  26) = (   0.1967693   0.0903508   0.1278874  )
        27           Mo  tau(  27) = (   0.1967578   0.4753919   0.2813011  )
        28           S   tau(  28) = (   0.0287851   0.3864324   0.4586755  )
        29           S   tau(  29) = (   0.0244514   0.3729871   0.1239344  )
        30           Mo  tau(  30) = (   0.0286728   0.7631204   0.2856894  )
        31           S   tau(  31) = (   0.2011512   0.6675435   0.4465001  )
        32           S   tau(  32) = (   0.1969214   0.6672839   0.1104564  )
        33           Mo  tau(  33) = (   0.1950294   1.0511147   0.2932237  )
        34           S   tau(  34) = (   0.0312912   0.9612169   0.4667423  )
        35           S   tau(  35) = (   0.0292670   0.9563028   0.1216485  )
        36           H   tau(  36) = (   0.0000000   1.1556707   0.5792558  )

     number of k points=     1  Gaussian smearing, width (Ry)=  0.0100
                       cart. coord. in units 2pi/alat
        k(    1) = (   0.0000000   0.0000000   0.0000000), wk =   2.0000000

     Dense  grid:  1177734 G-vectors     FFT dimensions: ( 120, 135, 320)

     Smooth grid:   842757 G-vectors     FFT dimensions: ( 108, 120, 270)

     Estimated max dynamical RAM per process >     146.59 MB

     Estimated total dynamical RAM >       6.87 GB

     Initial potential from superposition of free atoms

     starting charge     306.9873, renormalised to     307.0000

     negative rho (up, down):  1.407E-04 0.000E+00


---------------------------------------------------------------------------------
Carrying out rVV10 run using the following parameters:
Nqs =      20    Nr_points =    1024   r_max =   100.000
b_value =  6.30000    beta =  0.00901
     q_mesh =  0.00010000  0.00030000  0.00058939  0.00100810
               0.00161396  0.00249058  0.00375900  0.00559430
               0.00824984  0.01209221  0.01765183  0.02569619
               0.03733578  0.05417739  0.07854596  0.11380545
               0.16482331  0.23864234  0.34545298  0.50000000

Gradients computed in Reciprocal space

---------------------------------------------------------------------------------


     Starting wfcs are  213 randomized atomic wfcs

     total cpu time spent up to now is        2.8 secs

     Self-consistent Calculation

     iteration #  1     ecut=    80.00 Ry     beta= 0.70
     Davidson diagonalization with overlap
     ethr =  1.00E-02,  avg # of iterations =  2.0

     Threshold (ethr) on eigenvalues was too large:
     Diagonalizing with lowered threshold

     Davidson diagonalization with overlap
     ethr =  3.47E-04,  avg # of iterations =  4.0

     negative rho (up, down):  1.496E-08 0.000E+00

     total cpu time spent up to now is       20.0 secs

     total energy              =   -2205.59896960 Ry
     estimated scf accuracy    <       1.36553670 Ry

     iteration #  2     ecut=    80.00 Ry     beta= 0.70
     Davidson diagonalization with overlap
     ethr =  4.45E-04,  avg # of iterations =  2.0

     total cpu time spent up to now is       22.4 secs

     total energy              =   -2205.42794011 Ry
     estimated scf accuracy    <       0.55370490 Ry

     iteration #  3     ecut=    80.00 Ry     beta= 0.70
     Davidson diagonalization with overlap
     ethr =  1.80E-04,  avg # of iterations =  4.0

     total cpu time spent up to now is       25.0 secs

     total energy              =   -2205.52969380 Ry
     estimated scf accuracy    <       0.04863491 Ry

     iteration #  4     ecut=    80.00 Ry     beta= 0.70
     Davidson diagonalization with overlap
     c_bands:  1 eigenvalues not converged
     ethr =  1.58E-05,  avg # of iterations = 20.0

     total cpu time spent up to now is       28.4 secs

     total energy              =   -2205.53005354 Ry
     estimated scf accuracy    <       0.02412194 Ry

     iteration #  5     ecut=    80.00 Ry     beta= 0.70
     Davidson diagonalization with overlap
     ethr =  7.86E-06,  avg # of iterations =  9.0

     total cpu time spent up to now is       31.1 secs

     total energy              =   -2205.53019406 Ry
     estimated scf accuracy    <       0.01842579 Ry

     iteration #  6     ecut=    80.00 Ry     beta= 0.70
     Davidson diagonalization with overlap
     ethr =  6.00E-06,  avg # of iterations =  2.0

     total cpu time spent up to now is       33.5 secs

     total energy              =   -2205.52878352 Ry
     estimated scf accuracy    <       0.01127172 Ry

     iteration #  7     ecut=    80.00 Ry     beta= 0.70
     Davidson diagonalization with overlap
     ethr =  3.67E-06,  avg # of iterations =  2.0

     negative rho (up, down):  5.479E-05 0.000E+00

     total cpu time spent up to now is       38.1 secs

     total energy              =   -2205.52753740 Ry
     estimated scf accuracy    <       0.00585440 Ry

     iteration #  8     ecut=    80.00 Ry     beta= 0.70
     Davidson diagonalization with overlap
     ethr =  1.91E-06,  avg # of iterations =  2.0

     negative rho (up, down):  1.548E-02 0.000E+00

     total cpu time spent up to now is       42.8 secs

     total energy              =   -2205.52718887 Ry
     estimated scf accuracy    <       0.00305195 Ry

     iteration #  9     ecut=    80.00 Ry     beta= 0.70
     Davidson diagonalization with overlap
     ethr =  9.94E-07,  avg # of iterations =  2.0

     negative rho (up, down):  3.338E-02 0.000E+00

     total cpu time spent up to now is       47.6 secs

     total energy              =   -2205.52731720 Ry
     estimated scf accuracy    <       0.00162313 Ry

     iteration # 10     ecut=    80.00 Ry     beta= 0.70
     Davidson diagonalization with overlap
     ethr =  5.29E-07,  avg # of iterations =  2.0

     negative rho (up, down):  2.476E-02 0.000E+00

     total cpu time spent up to now is       52.3 secs

     total energy              =   -2205.52734647 Ry
     estimated scf accuracy    <       0.00040066 Ry

     iteration # 11     ecut=    80.00 Ry     beta= 0.70
     Davidson diagonalization with overlap
     ethr =  1.31E-07,  avg # of iterations =  4.0

     negative rho (up, down):  8.466E-03 0.000E+00

     total cpu time spent up to now is       57.9 secs

     total energy              =   -2205.52739995 Ry
     estimated scf accuracy    <       0.00009046 Ry

     iteration # 12     ecut=    80.00 Ry     beta= 0.70
     Davidson diagonalization with overlap
     ethr =  2.95E-08,  avg # of iterations =  5.0

     negative rho (up, down):  1.823E-03 0.000E+00

     total cpu time spent up to now is       64.7 secs

     total energy              =   -2205.52743794 Ry
     estimated scf accuracy    <       0.00001025 Ry

     iteration # 13     ecut=    80.00 Ry     beta= 0.70
     Davidson diagonalization with overlap
     ethr =  3.34E-09,  avg # of iterations =  5.0

     negative rho (up, down):  3.284E-04 0.000E+00

     total cpu time spent up to now is       75.9 secs

     total energy              =   -2205.52744344 Ry
     estimated scf accuracy    <       0.00000152 Ry

     iteration # 14     ecut=    80.00 Ry     beta= 0.70
     Davidson diagonalization with overlap
     ethr =  4.95E-10,  avg # of iterations =  4.0

     negative rho (up, down):  1.378E-04 0.000E+00

     total cpu time spent up to now is       78.4 secs

     End of self-consistent calculation

          k = 0.0000 0.0000 0.0000 (105382 PWs)   bands (ev):

   -62.9008 -62.8822 -62.8718 -62.8361 -62.8207 -62.8130 -62.8077 -62.8050
   -62.8002 -62.7908 -62.7736 -62.7655 -37.2425 -37.1783 -37.1471 -37.1413
   -37.1350 -37.1076 -37.0901 -37.0825 -37.0694 -37.0682 -37.0566 -37.0456
   -37.0385 -37.0282 -37.0136 -37.0059 -36.9993 -36.9950 -36.9884 -36.9818
   -36.9767 -36.9656 -36.9543 -36.9485 -36.9408 -36.9352 -36.9202 -36.9143
   -36.9055 -36.8873 -36.8657 -36.8500 -36.8281 -36.7953 -36.7566 -36.7298
   -16.0171 -15.2290 -15.1664 -15.0101 -14.9819 -14.8199 -14.5716 -14.5169
   -14.4837 -14.4291 -14.4138 -14.3810 -14.3449 -14.2897 -14.1698 -14.1482
   -14.1327 -14.1044 -14.0307 -13.9490 -13.8551 -13.8334 -13.8081  -7.9829
    -7.6104  -7.4524  -7.2874  -7.2661  -7.2149  -7.1943  -7.1352  -6.8885
    -6.8464  -6.8098  -6.7538  -6.7409  -6.5445  -6.4980  -6.4590  -6.4432
    -6.3609  -6.2549  -6.0161  -5.9966  -5.9203  -5.8582  -5.8350  -5.8089
    -5.7797  -5.7489  -5.6755  -5.6604  -5.6146  -5.5692  -5.5345  -5.4727
    -5.4263  -5.3738  -5.1790  -5.1699  -5.0878  -5.0607  -4.9935  -4.9461
    -4.9275  -4.8304  -4.6555  -4.5196  -4.3548  -4.3318  -4.2981  -4.2654
    -4.2270  -4.0713  -4.0310  -3.9792  -3.8181  -3.7660  -3.7352  -3.7051
    -3.6666  -3.5778  -3.5727  -3.5355  -3.5069  -3.4823  -3.4560  -3.3882
    -3.3773  -3.2097  -3.1385  -2.9201  -2.8875  -2.8044  -2.7746  -2.7425
    -2.7175  -2.6860  -2.6526  -2.6354  -2.5771  -2.3105  -2.0600  -2.0152
    -1.9863  -1.1238  -0.7885  -0.7358  -0.1790  -0.1415  -0.0635  -0.0428
     0.1116   0.1355   0.1895   0.2281   0.2474   0.2718   0.3932   0.4038
     0.4565   0.5270   0.5346   0.5641   0.6068   0.6788   0.7183   0.7441
     0.7694   0.7840   0.8595   0.8821   0.9295   0.9943   1.0365   1.3374
     1.3803

     the Fermi energy is    -1.1238 ev

!    total energy              =   -2205.52744603 Ry
     estimated scf accuracy    <       0.00000015 Ry
     smearing contrib. (-TS)   =      -0.00565654 Ry
     internal energy E=F+TS    =   -2205.52178950 Ry

     The total energy is F=E-TS. E is the sum of the following terms:
     one-electron contribution =  -18044.66615810 Ry
     hartree contribution      =    9009.02706816 Ry
     xc contribution           =    -385.21838473 Ry
     ewald contribution        =    7215.33568518 Ry

     convergence has been achieved in  14 iterations

     negative rho (up, down):  1.378E-04 0.000E+00

     Forces acting on atoms (cartesian axes, Ry/au):

     atom    1 type  1   force =    -0.00401896   -0.00815592   -0.01432835
     atom    2 type  2   force =     0.03224872   -0.01573345    0.03454094
     atom    3 type  2   force =    -0.01210017    0.00935407   -0.00378970
     atom    4 type  1   force =     0.00482994   -0.00279649   -0.00128176
     atom    5 type  2   force =    -0.00265226   -0.00361668   -0.00697481
     atom    6 type  2   force =    -0.00014568    0.00843373    0.00204614
     atom    7 type  1   force =     0.00222893   -0.00947572   -0.00858077
     atom    8 type  2   force =     0.00128934   -0.00490367    0.01765943
     atom    9 type  2   force =     0.01416986    0.00699058    0.01275386
     atom   10 type  1   force =    -0.00987845    0.00756860   -0.02997308
     atom   11 type  2   force =     0.00335525   -0.00262908   -0.00666072
     atom   12 type  2   force =    -0.00323817   -0.00078575    0.00617429
     atom   13 type  1   force =     0.01077205    0.01004282   -0.00948386
     atom   14 type  2   force =     0.00744658   -0.00113035    0.01105733
     atom   15 type  2   force =    -0.01126193   -0.00023945   -0.00950026
     atom   16 type  1   force =     0.00011926    0.01078008    0.00540377
     atom   17 type  2   force =     0.00659454    0.00167243   -0.00009243
     atom   18 type  2   force =    -0.00287522   -0.00672659    0.01447209
     atom   19 type  1   force =     0.00817135   -0.00805097   -0.00428933
     atom   20 type  2   force =     0.00306882   -0.00435531    0.00151562
     atom   21 type  1   force =    -0.00410307    0.00707914   -0.00054076
     atom   22 type  2   force =    -0.00177130   -0.00225765   -0.00275116
     atom   23 type  2   force =     0.00057427   -0.00003295    0.00855568
     atom   24 type  1   force =    -0.00918981   -0.00208809   -0.02434379
     atom   25 type  2   force =     0.00539802    0.01291848    0.00958276
     atom   26 type  2   force =    -0.01186872   -0.00054365   -0.00490356
     atom   27 type  1   force =    -0.00119248   -0.00468474    0.00636337
     atom   28 type  2   force =     0.00135125    0.00069068   -0.00507702
     atom   29 type  2   force =     0.00292572    0.00126255   -0.00180422
     atom   30 type  1   force =    -0.00422345    0.00243441   -0.01874982
     atom   31 type  2   force =     0.00124430   -0.00031570    0.01622455
     atom   32 type  2   force =    -0.01075291    0.00719221    0.00924071
     atom   33 type  1   force =     0.01075821   -0.00419772   -0.00552214
     atom   34 type  2   force =    -0.00049382   -0.01866054    0.00501261
     atom   35 type  2   force =    -0.00846180    0.00737797    0.01258077
     atom   36 type  3   force =    -0.01831823    0.00758271   -0.01453637
     The non-local contrib.  to forces
     atom    1 type  1   force =     0.00924795    0.02195380   -0.01066678
     atom    2 type  2   force =     0.12318071   -0.07082354   -0.12036414
     atom    3 type  2   force =    -0.01316580   -0.00335973    0.27353111
     atom    4 type  1   force =     0.00024897    0.00812484    0.00524350
     atom    5 type  2   force =     0.00394436   -0.02731388   -0.24836852
     atom    6 type  2   force =    -0.00373770    0.00918155    0.26404033
     atom    7 type  1   force =    -0.02142512   -0.00442433   -0.02074184
     atom    8 type  2   force =     0.00137847   -0.00421082   -0.25252786
     atom    9 type  2   force =     0.00757921   -0.00914782    0.27705603
     atom   10 type  1   force =     0.00562664    0.00247400    0.00359563
     atom   11 type  2   force =     0.01382664    0.00661355   -0.25831763
     atom   12 type  2   force =    -0.01481469   -0.01775329    0.26221615
     atom   13 type  1   force =    -0.00435183    0.01652400   -0.00729909
     atom   14 type  2   force =     0.00701620   -0.01286004   -0.25254372
     atom   15 type  2   force =    -0.01321671   -0.00373483    0.26232961
     atom   16 type  1   force =    -0.00033235    0.02688572   -0.03351356
     atom   17 type  2   force =     0.00243736   -0.02722276   -0.24774227
     atom   18 type  2   force =    -0.00359562   -0.00396571    0.27395919
     atom   19 type  1   force =     0.01550275   -0.00626601   -0.01707918
     atom   20 type  2   force =    -0.00016006   -0.02190351    0.26627886
     atom   21 type  1   force =     0.00126748    0.02379137    0.00753397
     atom   22 type  2   force =    -0.00558982    0.00561696   -0.25818734
     atom   23 type  2   force =     0.00811316   -0.01539095    0.26785228
     atom   24 type  1   force =     0.00191719    0.01337474   -0.00517732
     atom   25 type  2   force =    -0.01124196   -0.00678053   -0.22533999
     atom   26 type  2   force =    -0.00356723   -0.01299801    0.26288859
     atom   27 type  1   force =    -0.00190594    0.01062868    0.00979857
     atom   28 type  2   force =    -0.00331974   -0.02653096   -0.27185150
     atom   29 type  2   force =     0.00688727    0.00333010    0.26340801
     atom   30 type  1   force =     0.00238653    0.02092292    0.00340592
     atom   31 type  2   force =    -0.00498604    0.00051144   -0.25138383
     atom   32 type  2   force =    -0.00340417   -0.01003205    0.27357354
     atom   33 type  1   force =    -0.00822806    0.00734085    0.00756269
     atom   34 type  2   force =    -0.00008273    0.02255596   -0.21829462
     atom   35 type  2   force =    -0.00313499   -0.00885015    0.27138909
     atom   36 type  3   force =    -0.00673087    0.00312511   -0.01045154
     The ionic contribution  to forces
     atom    1 type  1   force =     0.20893217    0.37768371    5.53916901
     atom    2 type  2   force =    -1.33123922    0.83344313   38.74412190
     atom    3 type  2   force =    -0.19672557    0.04013457  -36.17780076
     atom    4 type  1   force =     0.04681610    0.67437300    0.62812123
     atom    5 type  2   force =    -1.01561713    1.56914178   38.73667518
     atom    6 type  2   force =     0.33077827   -0.47607541  -38.02996893
     atom    7 type  1   force =    -2.68210749   -2.87745867    2.53399134
     atom    8 type  2   force =    -1.01472965   -0.02877378   37.37568233
     atom    9 type  2   force =     0.33271533   -0.05026639  -38.00560075
     atom   10 type  1   force =    -1.39073075   -0.56122460    5.10335704
     atom   11 type  2   force =    -0.69984024   -1.72210722   39.09128200
     atom   12 type  2   force =     0.41652526    0.66595741  -37.88230838
     atom   13 type  1   force =     0.61142358    1.10035619    2.74045279
     atom   14 type  2   force =     0.03351474    0.02580993   38.48976174
     atom   15 type  2   force =     0.15062040   -0.05256887  -36.82576118
     atom   16 type  1   force =    -0.03053574    3.99457669    0.48964971
     atom   17 type  2   force =     0.85051753    1.56179240   37.92456667
     atom   18 type  2   force =    -0.14975657   -0.62473057  -38.56546706
     atom   19 type  1   force =     2.77077644   -2.52904083    0.63124720
     atom   20 type  2   force =     0.22739656   -0.20566282  -38.46752720
     atom   21 type  1   force =     0.00539114   -0.00893864    1.07913335
     atom   22 type  2   force =     0.55232974   -1.80092648   38.39782657
     atom   23 type  2   force =    -0.06668192    0.64314939  -38.30942919
     atom   24 type  1   force =    -0.48790005    1.52597463    5.31596497
     atom   25 type  2   force =     1.14351114    0.49811754   38.99065395
     atom   26 type  2   force =    -0.25161671    0.08559790  -37.40369275
     atom   27 type  1   force =     0.07620050    0.48756067   -2.28485146
     atom   28 type  2   force =     0.06434311    1.17292156   38.16347381
     atom   29 type  2   force =    -0.26300493   -0.39012783  -37.28969413
     atom   30 type  1   force =    -0.32643490   -1.08662912   -0.14276582
     atom   31 type  2   force =     1.25998116   -0.10272075   37.31737124
     atom   32 type  2   force =    -0.47035825   -0.01887611  -38.63459187
     atom   33 type  1   force =     1.08744879   -1.02928985    1.65756928
     atom   34 type  2   force =     0.33439946   -2.04574400   39.01914534
     atom   35 type  2   force =    -0.29474004    0.43360481  -37.88505760
     atom   36 type  3   force =     0.16839771   -0.07903337    7.93530045
     The local contribution  to forces
     atom    1 type  1   force =    -0.22228405   -0.40765891   -5.54288817
     atom    2 type  2   force =     1.24748250   -0.78239630  -38.60178049
     atom    3 type  2   force =     0.19720899   -0.02746382   35.92167524
     atom    4 type  1   force =    -0.04206638   -0.68521542   -0.63464323
     atom    5 type  2   force =     1.00961046   -1.54705681  -38.51550325
     atom    6 type  2   force =    -0.32758401    0.47642417   37.78900569
     atom    7 type  1   force =     2.70611879    2.87257611   -2.52201859
     atom    8 type  2   force =     1.01474080    0.02756800  -37.12589309
     atom    9 type  2   force =    -0.32594434    0.06584547   37.76239597
     atom   10 type  1   force =     1.37545451    0.56616388   -5.13673097
     atom   11 type  2   force =     0.69009089    1.71351078  -38.86025007
     atom   12 type  2   force =    -0.40621162   -0.65054268   37.64721384
     atom   13 type  1   force =    -0.59636484   -1.10677949   -2.74256681
     atom   14 type  2   force =    -0.03266583   -0.01422751  -38.24636616
     atom   15 type  2   force =    -0.14940433    0.05581771   36.57466804
     atom   16 type  1   force =     0.03092561   -4.01103069   -0.45094896
     atom   17 type  2   force =    -0.84639733   -1.53435068  -37.69717941
     atom   18 type  2   force =     0.15044636    0.62251543   38.32713077
     atom   19 type  1   force =    -2.77855609    2.52741200   -0.61867483
     atom   20 type  2   force =    -0.22435374    0.22238963   38.22397220
     atom   21 type  1   force =    -0.01083105   -0.00790144   -1.08710748
     atom   22 type  2   force =    -0.54868984    1.79359160  -38.16299393
     atom   23 type  2   force =     0.05972729   -0.62924974   38.07120519
     atom   24 type  1   force =     0.47687183   -1.54137044   -5.33493787
     atom   25 type  2   force =    -1.12791047   -0.47860962  -38.77476083
     atom   26 type  2   force =     0.24344380   -0.07382794   37.15691181
     atom   27 type  1   force =    -0.07556660   -0.50272015    2.28138107
     atom   28 type  2   force =    -0.05993302   -1.14759912  -37.91756794
     atom   29 type  2   force =     0.25963101    0.38883822   37.04522069
     atom   30 type  1   force =     0.31992602    1.06812499    0.12054617
     atom   31 type  2   force =    -1.25413245    0.10185973  -37.07035126
     atom   32 type  2   force =     0.46314337    0.03552128   38.39144147
     atom   33 type  1   force =    -1.06861657    1.01758475   -1.67049754
     atom   34 type  2   force =    -0.33525138    2.00653013  -38.81416747
     atom   35 type  2   force =     0.28948046   -0.41838424   37.64750078
     atom   36 type  3   force =    -0.17998360    0.08348005   -7.93937964
     The core correction contribution to forces
     atom    1 type  1   force =     0.00000000    0.00000000    0.00000000
     atom    2 type  2   force =    -0.00712427    0.00401528    0.01257224
     atom    3 type  2   force =     0.00060435    0.00005402   -0.02104415
     atom    4 type  1   force =     0.00000000    0.00000000    0.00000000
     atom    5 type  2   force =    -0.00051190    0.00160440    0.02013031
     atom    6 type  2   force =     0.00037617   -0.00103900   -0.02091452
     atom    7 type  1   force =     0.00000000    0.00000000    0.00000000
     atom    8 type  2   force =     0.00000259    0.00050710    0.02031296
     atom    9 type  2   force =    -0.00013336    0.00054401   -0.02100586
     atom   10 type  1   force =     0.00000000    0.00000000    0.00000000
     atom   11 type  2   force =    -0.00065598   -0.00060879    0.02055498
     atom   12 type  2   force =     0.00127886    0.00146137   -0.02080479
     atom   13 type  1   force =     0.00000000    0.00000000    0.00000000
     atom   14 type  2   force =    -0.00043159    0.00012891    0.02015711
     atom   15 type  2   force =     0.00073502    0.00030103   -0.02060151
     atom   16 type  1   force =     0.00000000    0.00000000    0.00000000
     atom   17 type  2   force =    -0.00002850    0.00144731    0.02014797
     atom   18 type  2   force =     0.00003989   -0.00045113   -0.02104023
     atom   19 type  1   force =     0.00000000    0.00000000    0.00000000
     atom   20 type  2   force =     0.00012330    0.00082322   -0.02121396
     atom   21 type  1   force =     0.00000000    0.00000000    0.00000000
     atom   22 type  2   force =     0.00010780   -0.00055858    0.02049692
     atom   23 type  2   force =    -0.00062828    0.00129702   -0.02090429
     atom   24 type  1   force =     0.00000000    0.00000000    0.00000000
     atom   25 type  2   force =     0.00100536    0.00018344    0.01895547
     atom   26 type  2   force =    -0.00012840    0.00069709   -0.02082088
     atom   27 type  1   force =     0.00000000    0.00000000    0.00000000
     atom   28 type  2   force =     0.00024760    0.00189306    0.02079597
     atom   29 type  2   force =    -0.00057790   -0.00067378   -0.02058195
     atom   30 type  1   force =     0.00000000    0.00000000    0.00000000
     atom   31 type  2   force =     0.00032379    0.00006505    0.02042559
     atom   32 type  2   force =    -0.00011655    0.00060364   -0.02103309
     atom   33 type  1   force =     0.00000000    0.00000000    0.00000000
     atom   34 type  2   force =     0.00042880   -0.00200248    0.01824668
     atom   35 type  2   force =    -0.00003850    0.00089146   -0.02106958
     atom   36 type  3   force =     0.00000000    0.00000000    0.00000000
     The Hubbard contrib.    to forces
     atom    1 type  1   force =     0.00000000    0.00000000    0.00000000
     atom    2 type  2   force =     0.00000000    0.00000000    0.00000000
     atom    3 type  2   force =     0.00000000    0.00000000    0.00000000
     atom    4 type  1   force =     0.00000000    0.00000000    0.00000000
     atom    5 type  2   force =     0.00000000    0.00000000    0.00000000
     atom    6 type  2   force =     0.00000000    0.00000000    0.00000000
     atom    7 type  1   force =     0.00000000    0.00000000    0.00000000
     atom    8 type  2   force =     0.00000000    0.00000000    0.00000000
     atom    9 type  2   force =     0.00000000    0.00000000    0.00000000
     atom   10 type  1   force =     0.00000000    0.00000000    0.00000000
     atom   11 type  2   force =     0.00000000    0.00000000    0.00000000
     atom   12 type  2   force =     0.00000000    0.00000000    0.00000000
     atom   13 type  1   force =     0.00000000    0.00000000    0.00000000
     atom   14 type  2   force =     0.00000000    0.00000000    0.00000000
     atom   15 type  2   force =     0.00000000    0.00000000    0.00000000
     atom   16 type  1   force =     0.00000000    0.00000000    0.00000000
     atom   17 type  2   force =     0.00000000    0.00000000    0.00000000
     atom   18 type  2   force =     0.00000000    0.00000000    0.00000000
     atom   19 type  1   force =     0.00000000    0.00000000    0.00000000
     atom   20 type  2   force =     0.00000000    0.00000000    0.00000000
     atom   21 type  1   force =     0.00000000    0.00000000    0.00000000
     atom   22 type  2   force =     0.00000000    0.00000000    0.00000000
     atom   23 type  2   force =     0.00000000    0.00000000    0.00000000
     atom   24 type  1   force =     0.00000000    0.00000000    0.00000000
     atom   25 type  2   force =     0.00000000    0.00000000    0.00000000
     atom   26 type  2   force =     0.00000000    0.00000000    0.00000000
     atom   27 type  1   force =     0.00000000    0.00000000    0.00000000
     atom   28 type  2   force =     0.00000000    0.00000000    0.00000000
     atom   29 type  2   force =     0.00000000    0.00000000    0.00000000
     atom   30 type  1   force =     0.00000000    0.00000000    0.00000000
     atom   31 type  2   force =     0.00000000    0.00000000    0.00000000
     atom   32 type  2   force =     0.00000000    0.00000000    0.00000000
     atom   33 type  1   force =     0.00000000    0.00000000    0.00000000
     atom   34 type  2   force =     0.00000000    0.00000000    0.00000000
     atom   35 type  2   force =     0.00000000    0.00000000    0.00000000
     atom   36 type  3   force =     0.00000000    0.00000000    0.00000000
     The SCF correction term to forces
     atom    1 type  1   force =     0.00008492   -0.00013783    0.00005932
     atom    2 type  2   force =    -0.00005104    0.00002466   -0.00000684
     atom    3 type  2   force =    -0.00002218   -0.00001430   -0.00014942
     atom    4 type  1   force =    -0.00016879   -0.00008223   -0.00000154
     atom    5 type  2   force =    -0.00007810    0.00000451    0.00009319
     atom    6 type  2   force =     0.00002153   -0.00006090   -0.00011470
     atom    7 type  1   force =    -0.00035730   -0.00017215    0.00019005
     atom    8 type  2   force =    -0.00010293    0.00000251    0.00008682
     atom    9 type  2   force =    -0.00004703    0.00001199   -0.00008980
     atom   10 type  1   force =    -0.00022890    0.00015201   -0.00019304
     atom   11 type  2   force =    -0.00006611   -0.00004072    0.00007172
     atom   12 type  2   force =    -0.00001603    0.00008812   -0.00014081
     atom   13 type  1   force =     0.00006510   -0.00006120   -0.00006902
     atom   14 type  2   force =     0.00001301    0.00001504    0.00005009
     atom   15 type  2   force =     0.00000364   -0.00005781   -0.00013350
     atom   16 type  1   force =     0.00006168    0.00034503    0.00021832
     atom   17 type  2   force =     0.00006542    0.00000284    0.00011634
     atom   18 type  2   force =    -0.00000932   -0.00009793   -0.00010885
     atom   19 type  1   force =     0.00044820   -0.00015945    0.00021921
     atom   20 type  2   force =     0.00006272   -0.00000515    0.00000745
     atom   21 type  1   force =     0.00006931    0.00012452   -0.00009888
     atom   22 type  2   force =     0.00007077    0.00001553    0.00010835
     atom   23 type  2   force =     0.00004397    0.00015801   -0.00016658
     atom   24 type  1   force =    -0.00007883   -0.00007033   -0.00019184
     atom   25 type  2   force =     0.00003390    0.00000432    0.00007589
     atom   26 type  2   force =    -0.00000023   -0.00001602   -0.00018861
     atom   27 type  1   force =     0.00007951   -0.00015726    0.00003691
     atom   28 type  2   force =     0.00001324    0.00000282    0.00007436
     atom   29 type  2   force =    -0.00000978   -0.00010748   -0.00015511
     atom   30 type  1   force =    -0.00010115    0.00001230    0.00006563
     atom   31 type  2   force =     0.00005780   -0.00003450    0.00016453
     atom   32 type  2   force =    -0.00001736   -0.00002787   -0.00014761
     atom   33 type  1   force =     0.00015400    0.00016322   -0.00015484
     atom   34 type  2   force =     0.00001196   -0.00000347    0.00008440
     atom   35 type  2   force =    -0.00002879    0.00011275   -0.00018020
     atom   36 type  3   force =    -0.00000151    0.00000759   -0.00000392

     Total force =     0.101641     Total SCF correction =     0.001219

     BFGS Geometry Optimization
     Energy error            =      0.0E+00 Ry
     Gradient error          =      3.5E-02 Ry/Bohr

     number of scf cycles    =   1
     number of bfgs steps    =   0

     energy             new  =   -2205.5274460318 Ry

     new trust radius        =       0.0498056044 bohr
     new conv_thr            =       0.0000010000 Ry


ATOMIC_POSITIONS (angstrom)
Mo            6.5724216665        1.7834903011        2.8160607975
S             8.1937746289        0.8013782412        4.4528166310
S             8.1868299515        0.8161917033        1.2758780032
Mo            8.0977184605        4.4935771077        2.7171401130
S             6.4985057422        3.7204976224        4.3429697359
S             6.5532727080        3.5162004955        1.1223630002
Mo            6.4911611938        7.2134229504        2.6673437372
S             8.0824100156        6.3412760807        4.2518065316
S             8.0884160128        6.3084015724        1.0906120487
Mo            8.1553915996        9.9061855453        2.8276006916
S             6.4969431202        8.9415355630        4.3795808306
S             6.6162336350        9.0482954143        1.1431745955
Mo            3.4273599889        1.7522702830        2.7714525224
S             4.9791060502        0.8163430560        4.3563843814
S             5.0518741979        0.8461353959        1.2216311374
Mo            4.9798197920        4.5188825729        2.6357441009
S             3.4313313404        3.6724846999        4.2796606698
S             3.4363990795        3.5446691382        1.0660099821
Mo            3.4581858303        7.2120641507        2.6284070447
S             4.9848581448        6.3246275565        1.0380557634
Mo            5.0100926674        9.9053461701        2.7431148013
S             3.4700207870        8.9425565738        4.3241354610
S             3.4087330581        9.0649725490        1.1005957721
Mo            0.2912274501        1.7464045626        2.8365625287
S             1.8533187206        0.7995301726        4.4032804169
S             1.8545193758        0.8541382308        1.2068060014
Mo            1.8600602776        4.4931877040        2.6635647314
S             0.2729288978        3.6547643165        4.3348974551
S             0.2327794312        3.5279173366        1.1710631309
Mo            0.2689171996        7.2179343301        2.6917744484
S             1.9028967051        6.3126317727        4.2310297811
S             1.8565480187        6.3141497639        1.0494492588
Mo            1.8500396645        9.9379178179        2.7700240606
S             0.2956515789        9.0801230968        4.4165220255
S             0.2722936090        9.0474299658        1.1570582345
H            -0.0096935875       10.9329125966        5.4701911112



     Writing config-only to output data dir ./MoS2-V-O.save/
     NEW-OLD atomic charge density approx. for the potential

     negative rho (up, down):  1.428E-04 0.000E+00

     total cpu time spent up to now is       81.9 secs

     Self-consistent Calculation

     iteration #  1     ecut=    80.00 Ry     beta= 0.70
     Davidson diagonalization with overlap
     ethr =  1.00E-06,  avg # of iterations =  8.0

     negative rho (up, down):  1.079E-04 0.000E+00

     total cpu time spent up to now is       94.1 secs

     total energy              =   -2205.53606358 Ry
     estimated scf accuracy    <       0.00105402 Ry

     iteration #  2     ecut=    80.00 Ry     beta= 0.70
     Davidson diagonalization with overlap
     ethr =  3.43E-07,  avg # of iterations =  3.0

     negative rho (up, down):  9.646E-05 0.000E+00

     total cpu time spent up to now is      117.6 secs

     total energy              =   -2205.53610196 Ry
     estimated scf accuracy    <       0.00022000 Ry

     iteration #  3     ecut=    80.00 Ry     beta= 0.70
     Davidson diagonalization with overlap
     ethr =  7.17E-08,  avg # of iterations =  5.0

     negative rho (up, down):  9.427E-05 0.000E+00

     total cpu time spent up to now is      133.7 secs

     total energy              =   -2205.53613672 Ry
     estimated scf accuracy    <       0.00002899 Ry

     iteration #  4     ecut=    80.00 Ry     beta= 0.70
     Davidson diagonalization with overlap
     ethr =  9.44E-09,  avg # of iterations =  5.0

     negative rho (up, down):  9.368E-05 0.000E+00

     total cpu time spent up to now is      149.1 secs

     total energy              =   -2205.53614637 Ry
     estimated scf accuracy    <       0.00000461 Ry

     iteration #  5     ecut=    80.00 Ry     beta= 0.70
     Davidson diagonalization with overlap
     ethr =  1.50E-09,  avg # of iterations =  5.0

     negative rho (up, down):  9.371E-05 0.000E+00

     total cpu time spent up to now is      161.3 secs

     total energy              =   -2205.53614686 Ry
     estimated scf accuracy    <       0.00000142 Ry

     iteration #  6     ecut=    80.00 Ry     beta= 0.70
     Davidson diagonalization with overlap
     ethr =  4.62E-10,  avg # of iterations =  5.0

     negative rho (up, down):  1.379E-04 0.000E+00

     total cpu time spent up to now is      163.7 secs

     End of self-consistent calculation

          k = 0.0000 0.0000 0.0000 (105382 PWs)   bands (ev):

   -62.8964 -62.8786 -62.8677 -62.8351 -62.8212 -62.8127 -62.8072 -62.8027
   -62.7918 -62.7866 -62.7654 -62.7625 -37.2385 -37.1736 -37.1416 -37.1397
   -37.1304 -37.1030 -37.0852 -37.0784 -37.0672 -37.0643 -37.0527 -37.0415
   -37.0358 -37.0265 -37.0130 -37.0036 -36.9978 -36.9947 -36.9826 -36.9757
   -36.9717 -36.9623 -36.9486 -36.9416 -36.9357 -36.9321 -36.9172 -36.9103
   -36.9037 -36.8829 -36.8646 -36.8485 -36.8265 -36.7897 -36.7499 -36.7265
   -16.0127 -15.2277 -15.1643 -15.0114 -14.9727 -14.8208 -14.5704 -14.5087
   -14.4720 -14.4219 -14.4117 -14.3766 -14.3481 -14.2943 -14.1635 -14.1440
   -14.1282 -14.1084 -14.0297 -13.9301 -13.8596 -13.8283 -13.8117  -7.9940
    -7.6083  -7.4455  -7.2809  -7.2675  -7.2140  -7.1979  -7.1307  -6.8928
    -6.8456  -6.8050  -6.7506  -6.7372  -6.5360  -6.4941  -6.4567  -6.4461
    -6.3634  -6.2415  -6.0141  -5.9923  -5.9115  -5.8527  -5.8268  -5.8093
    -5.7772  -5.7419  -5.6768  -5.6623  -5.6217  -5.5732  -5.5287  -5.4689
    -5.4139  -5.3495  -5.1699  -5.1608  -5.0939  -5.0473  -4.9895  -4.9538
    -4.9241  -4.8327  -4.6428  -4.5162  -4.3585  -4.3224  -4.3044  -4.2604
    -4.2354  -4.0763  -4.0294  -3.9814  -3.8110  -3.7622  -3.7252  -3.7039
    -3.6743  -3.5718  -3.5594  -3.5332  -3.4990  -3.4870  -3.4553  -3.3810
    -3.3698  -3.2026  -3.1439  -2.9153  -2.8879  -2.7938  -2.7704  -2.7374
    -2.7119  -2.6864  -2.6569  -2.6299  -2.5740  -2.2997  -2.0724  -2.0124
    -1.9882  -1.1265  -0.7721  -0.7372  -0.1679  -0.1344  -0.0604  -0.0394
     0.1078   0.1282   0.1958   0.2490   0.2543   0.2825   0.3848   0.4179
     0.4705   0.5318   0.5416   0.5704   0.6099   0.6759   0.7025   0.7556
     0.7737   0.7806   0.8715   0.8782   0.9479   0.9990   1.0288   1.3307
     1.3868

     the Fermi energy is    -1.1266 ev

!    total energy              =   -2205.53614684 Ry
     estimated scf accuracy    <       0.00000042 Ry
     smearing contrib. (-TS)   =      -0.00564983 Ry
     internal energy E=F+TS    =   -2205.53049701 Ry

     The total energy is F=E-TS. E is the sum of the following terms:
     one-electron contribution =  -18043.65823794 Ry
     hartree contribution      =    9008.56224559 Ry
     xc contribution           =    -385.21573693 Ry
     ewald contribution        =    7214.78123227 Ry

     convergence has been achieved in   6 iterations

     negative rho (up, down):  1.379E-04 0.000E+00

     Forces acting on atoms (cartesian axes, Ry/au):

     atom    1 type  1   force =    -0.00288119   -0.00591894   -0.00762016
     atom    2 type  2   force =     0.02994321   -0.01617522    0.02716132
     atom    3 type  2   force =    -0.01215582    0.00836040   -0.00919067
     atom    4 type  1   force =     0.00369962   -0.00127230    0.00163005
     atom    5 type  2   force =    -0.00122397   -0.00461196   -0.00666001
     atom    6 type  2   force =    -0.00108871    0.00745427    0.00125156
     atom    7 type  1   force =     0.00248508   -0.00668656   -0.00115229
     atom    8 type  2   force =     0.00180821   -0.00431488    0.01093674
     atom    9 type  2   force =     0.01165747    0.00475368    0.00730789
     atom   10 type  1   force =    -0.00313970    0.00630738   -0.00921877
     atom   11 type  2   force =     0.00318502   -0.00220508   -0.00920940
     atom   12 type  2   force =    -0.00495132   -0.00101287    0.00097543
     atom   13 type  1   force =     0.00561311    0.00397082   -0.00261486
     atom   14 type  2   force =     0.00640776    0.00034700    0.00636219
     atom   15 type  2   force =    -0.00930710   -0.00012249   -0.01048349
     atom   16 type  1   force =     0.00051064    0.00831656    0.00389383
     atom   17 type  2   force =     0.00589687    0.00147751    0.00086913
     atom   18 type  2   force =    -0.00160367   -0.00358536    0.01098938
     atom   19 type  1   force =     0.00504328   -0.00615265    0.00107731
     atom   20 type  2   force =     0.00290916   -0.00423724   -0.00248129
     atom   21 type  1   force =    -0.00258617    0.00496496    0.00249215
     atom   22 type  2   force =    -0.00071083   -0.00221740   -0.00326964
     atom   23 type  2   force =     0.00106903   -0.00087230    0.00488999
     atom   24 type  1   force =    -0.00512998   -0.00197495   -0.00882522
     atom   25 type  2   force =     0.00557756    0.01174095    0.00025240
     atom   26 type  2   force =    -0.00749082   -0.00074525   -0.00518504
     atom   27 type  1   force =    -0.00084974   -0.00188918    0.00659869
     atom   28 type  2   force =     0.00056963   -0.00183135   -0.00570359
     atom   29 type  2   force =     0.00254776    0.00193168   -0.00414785
     atom   30 type  1   force =    -0.00245662    0.00042396   -0.00232994
     atom   31 type  2   force =     0.00024209    0.00013872    0.00936846
     atom   32 type  2   force =    -0.00783067    0.00484235    0.00653993
     atom   33 type  1   force =     0.00465427   -0.00116105    0.00191241
     atom   34 type  2   force =    -0.00187863   -0.01674323   -0.00506191
     atom   35 type  2   force =    -0.00594071    0.00779484    0.00553107
     atom   36 type  3   force =    -0.02259411    0.01090517   -0.01688580
     The non-local contrib.  to forces
     atom    1 type  1   force =     0.00926982    0.02045169   -0.01070635
     atom    2 type  2   force =     0.13442059   -0.07977973   -0.11707813
     atom    3 type  2   force =    -0.01247982   -0.00479058    0.26992429
     atom    4 type  1   force =     0.00092153    0.00858568    0.00393009
     atom    5 type  2   force =     0.00511863   -0.02697955   -0.24831772
     atom    6 type  2   force =    -0.00466103    0.00727577    0.26447647
     atom    7 type  1   force =    -0.02162739   -0.00494564   -0.02222316
     atom    8 type  2   force =     0.00143209   -0.00427484   -0.25700769
     atom    9 type  2   force =     0.00559849   -0.01063440    0.27404086
     atom   10 type  1   force =     0.00427830    0.00290323    0.00144681
     atom   11 type  2   force =     0.01257597    0.00649941   -0.25999843
     atom   12 type  2   force =    -0.01580518   -0.01794693    0.26012321
     atom   13 type  1   force =    -0.00233365    0.01883994   -0.00717375
     atom   14 type  2   force =     0.00497178   -0.01184193   -0.25432870
     atom   15 type  2   force =    -0.01122644   -0.00322057    0.26146102
     atom   16 type  1   force =    -0.00067237    0.02783159   -0.03436183
     atom   17 type  2   force =     0.00170714   -0.02641378   -0.24736588
     atom   18 type  2   force =    -0.00229376   -0.00211529    0.27216928
     atom   19 type  1   force =     0.01686176   -0.00596817   -0.01835218
     atom   20 type  2   force =    -0.00023850   -0.02083924    0.26342850
     atom   21 type  1   force =     0.00054064    0.02432160    0.00612200
     atom   22 type  2   force =    -0.00417159    0.00533904   -0.25877441
     atom   23 type  2   force =     0.00868054   -0.01633216    0.26624197
     atom   24 type  1   force =     0.00009537    0.01321449   -0.00565699
     atom   25 type  2   force =    -0.00961985   -0.00778682   -0.23321975
     atom   26 type  2   force =    -0.00007418   -0.01206236    0.26397692
     atom   27 type  1   force =    -0.00192321    0.00957934    0.00857190
     atom   28 type  2   force =    -0.00353463   -0.02739326   -0.27207682
     atom   29 type  2   force =     0.00627858    0.00263578    0.26262586
     atom   30 type  1   force =     0.00197297    0.02032715    0.00241135
     atom   31 type  2   force =    -0.00514542    0.00040015   -0.25655024
     atom   32 type  2   force =    -0.00104948   -0.01150153    0.27251129
     atom   33 type  1   force =    -0.00663580    0.00604253    0.00526663
     atom   34 type  2   force =    -0.00075120    0.02154300   -0.22818987
     atom   35 type  2   force =    -0.00194871   -0.00907706    0.26837410
     atom   36 type  3   force =    -0.00830374    0.00426721   -0.01132655
     The ionic contribution  to forces
     atom    1 type  1   force =     0.30468783    0.39813835    5.44779650
     atom    2 type  2   force =    -1.37875989    0.85369457   38.84305632
     atom    3 type  2   force =    -0.18599115    0.05247852  -36.23006574
     atom    4 type  1   force =     0.01399189    0.65395807    0.73391620
     atom    5 type  2   force =    -0.97054972    1.49802451   38.69682187
     atom    6 type  2   force =     0.30790491   -0.45147082  -37.99136247
     atom    7 type  1   force =    -2.63128683   -2.74405216    2.48614764
     atom    8 type  2   force =    -0.98900588    0.01290539   37.47136060
     atom    9 type  2   force =     0.29101350   -0.10052868  -37.97062171
     atom   10 type  1   force =    -1.23523296   -0.53155745    4.68873090
     atom   11 type  2   force =    -0.65845615   -1.71265628   39.02994774
     atom   12 type  2   force =     0.33983488    0.62167134  -37.85385807
     atom   13 type  1   force =     0.44280778    0.92906727    2.68324480
     atom   14 type  2   force =     0.02980496    0.03742208   38.57271089
     atom   15 type  2   force =     0.13582552   -0.07209445  -36.90513849
     atom   16 type  1   force =     0.00316293    3.91109903    0.70249444
     atom   17 type  2   force =     0.83029502    1.52359820   37.96599550
     atom   18 type  2   force =    -0.14592569   -0.55507049  -38.51078449
     atom   19 type  1   force =     2.64025404   -2.45892124    0.63401368
     atom   20 type  2   force =     0.20511774   -0.20687962  -38.52799443
     atom   21 type  1   force =     0.01013625   -0.06246862    1.24840749
     atom   22 type  2   force =     0.54505866   -1.80263259   38.39682158
     atom   23 type  2   force =    -0.06504840    0.61097760  -38.26824645
     atom   24 type  1   force =    -0.40193561    1.39603557    4.94875754
     atom   25 type  2   force =     1.09775467    0.48544703   38.94291852
     atom   26 type  2   force =    -0.19696883    0.06225521  -37.36118927
     atom   27 type  1   force =     0.06792547    0.57529320   -2.02954401
     atom   28 type  2   force =     0.05019528    1.08895339   38.15554901
     atom   29 type  2   force =    -0.24090242   -0.33760570  -37.31551215
     atom   30 type  1   force =    -0.23480697   -1.05999120   -0.34887949
     atom   31 type  2   force =     1.21510431   -0.04447119   37.36272488
     atom   32 type  2   force =    -0.40874032   -0.05916143  -38.57214555
     atom   33 type  1   force =     0.94318560   -0.89829490    1.79430807
     atom   34 type  2   force =     0.28853182   -1.96691698   38.95420696
     atom   35 type  2   force =    -0.21903979    0.45836838  -37.81052129
     atom   36 type  3   force =     0.20005757   -0.10461392    7.93593253
     The local contribution  to forces
     atom    1 type  1   force =    -0.31687781   -0.42434442   -5.44556626
     atom    2 type  2   force =     1.28217730   -0.79464568  -38.71126679
     atom    3 type  2   force =     0.18575653   -0.03943412   35.97164493
     atom    4 type  1   force =    -0.01125537   -0.66382658   -0.73691323
     atom    5 type  2   force =     0.96473463   -1.47713511  -38.47554696
     atom    6 type  2   force =    -0.30473856    0.45253017   37.74878149
     atom    7 type  1   force =     2.65533599    2.74217622   -2.46581211
     atom    8 type  2   force =     0.98937649   -0.01356259  -37.22419252
     atom    9 type  2   force =    -0.28486926    0.11533790   37.72456504
     atom   10 type  1   force =     1.22785383    0.53499140   -4.70024800
     atom   11 type  2   force =     0.64955779    1.70454625  -38.80004601
     atom   12 type  2   force =    -0.33020866   -0.60612650   37.61511008
     atom   13 type  1   force =    -0.43489846   -0.94391044   -2.67938518
     atom   14 type  2   force =    -0.02804642   -0.02529401  -38.33264331
     atom   15 type  2   force =    -0.13452264    0.07497823   36.65352833
     atom   16 type  1   force =    -0.00203176   -3.93067537   -0.66497642
     atom   17 type  2   force =    -0.82610613   -1.49705577  -37.73821568
     atom   18 type  2   force =     0.14665207    0.55408334   38.27034498
     atom   19 type  1   force =    -2.65212747    2.45858291   -0.61532145
     atom   20 type  2   force =    -0.20214147    0.22268617   38.28296758
     atom   21 type  1   force =    -0.01326339    0.04318802   -1.25284914
     atom   22 type  2   force =    -0.54161938    1.79560738  -38.16218122
     atom   23 type  2   force =     0.05808701   -0.59685581   38.02745490
     atom   24 type  1   force =     0.39678575   -1.41107889   -4.95274716
     atom   25 type  2   force =    -1.08341788   -0.46610244  -38.72902681
     atom   26 type  2   force =     0.18978397   -0.05152226   37.11258259
     atom   27 type  1   force =    -0.06678594   -0.58668284    2.02686090
     atom   28 type  2   force =    -0.04633881   -1.06518657  -37.91032889
     atom   29 type  2   force =     0.23767705    0.33744300   37.06906514
     atom   30 type  1   force =     0.23043546    1.03990046    0.34348101
     atom   31 type  2   force =    -1.20998383    0.04401129  -37.11771753
     atom   32 type  2   force =     0.40218566    0.07488013   38.32693320
     atom   33 type  1   force =    -0.93190596    0.89113706   -1.79845635
     atom   34 type  2   force =    -0.29001092    1.93045696  -38.75002346
     atom   35 type  2   force =     0.21506794   -0.44245816   37.56835021
     atom   36 type  3   force =    -0.21434044    0.11125066   -7.94156696
     The core correction contribution to forces
     atom    1 type  1   force =     0.00000000    0.00000000    0.00000000
     atom    2 type  2   force =    -0.00792031    0.00462991    0.01203604
     atom    3 type  2   force =     0.00056536    0.00013454   -0.02098686
     atom    4 type  1   force =     0.00000000    0.00000000    0.00000000
     atom    5 type  2   force =    -0.00055452    0.00154266    0.02010095
     atom    6 type  2   force =     0.00039269   -0.00091053   -0.02091615
     atom    7 type  1   force =     0.00000000    0.00000000    0.00000000
     atom    8 type  2   force =     0.00002737    0.00053007    0.02045256
     atom    9 type  2   force =    -0.00006756    0.00055102   -0.02095773
     atom   10 type  1   force =     0.00000000    0.00000000    0.00000000
     atom   11 type  2   force =    -0.00055121   -0.00061799    0.02058505
     atom   12 type  2   force =     0.00123909    0.00142934   -0.02074571
     atom   13 type  1   force =     0.00000000    0.00000000    0.00000000
     atom   14 type  2   force =    -0.00035193    0.00010656    0.02023703
     atom   15 type  2   force =     0.00064077    0.00024546   -0.02060439
     atom   16 type  1   force =     0.00000000    0.00000000    0.00000000
     atom   17 type  2   force =     0.00000962    0.00139032    0.02014498
     atom   18 type  2   force =    -0.00000901   -0.00047131   -0.02101102
     atom   19 type  1   force =     0.00000000    0.00000000    0.00000000
     atom   20 type  2   force =     0.00012230    0.00076566   -0.02114948
     atom   21 type  1   force =     0.00000000    0.00000000    0.00000000
     atom   22 type  2   force =     0.00004573   -0.00058608    0.02052730
     atom   23 type  2   force =    -0.00063025    0.00131616   -0.02087931
     atom   24 type  1   force =     0.00000000    0.00000000    0.00000000
     atom   25 type  2   force =     0.00091793    0.00025439    0.01917673
     atom   26 type  2   force =    -0.00023841    0.00063970   -0.02084402
     atom   27 type  1   force =     0.00000000    0.00000000    0.00000000
     atom   28 type  2   force =     0.00025180    0.00186225    0.02082006
     atom   29 type  2   force =    -0.00052840   -0.00057521   -0.02058342
     atom   30 type  1   force =     0.00000000    0.00000000    0.00000000
     atom   31 type  2   force =     0.00028575    0.00013112    0.02055723
     atom   32 type  2   force =    -0.00019087    0.00061310   -0.02099951
     atom   33 type  1   force =     0.00000000    0.00000000    0.00000000
     atom   34 type  2   force =     0.00038975   -0.00193350    0.01857836
     atom   35 type  2   force =    -0.00004224    0.00093151   -0.02099774
     atom   36 type  3   force =     0.00000000    0.00000000    0.00000000
     The Hubbard contrib.    to forces
     atom    1 type  1   force =     0.00000000    0.00000000    0.00000000
     atom    2 type  2   force =     0.00000000    0.00000000    0.00000000
     atom    3 type  2   force =     0.00000000    0.00000000    0.00000000
     atom    4 type  1   force =     0.00000000    0.00000000    0.00000000
     atom    5 type  2   force =     0.00000000    0.00000000    0.00000000
     atom    6 type  2   force =     0.00000000    0.00000000    0.00000000
     atom    7 type  1   force =     0.00000000    0.00000000    0.00000000
     atom    8 type  2   force =     0.00000000    0.00000000    0.00000000
     atom    9 type  2   force =     0.00000000    0.00000000    0.00000000
     atom   10 type  1   force =     0.00000000    0.00000000    0.00000000
     atom   11 type  2   force =     0.00000000    0.00000000    0.00000000
     atom   12 type  2   force =     0.00000000    0.00000000    0.00000000
     atom   13 type  1   force =     0.00000000    0.00000000    0.00000000
     atom   14 type  2   force =     0.00000000    0.00000000    0.00000000
     atom   15 type  2   force =     0.00000000    0.00000000    0.00000000
     atom   16 type  1   force =     0.00000000    0.00000000    0.00000000
     atom   17 type  2   force =     0.00000000    0.00000000    0.00000000
     atom   18 type  2   force =     0.00000000    0.00000000    0.00000000
     atom   19 type  1   force =     0.00000000    0.00000000    0.00000000
     atom   20 type  2   force =     0.00000000    0.00000000    0.00000000
     atom   21 type  1   force =     0.00000000    0.00000000    0.00000000
     atom   22 type  2   force =     0.00000000    0.00000000    0.00000000
     atom   23 type  2   force =     0.00000000    0.00000000    0.00000000
     atom   24 type  1   force =     0.00000000    0.00000000    0.00000000
     atom   25 type  2   force =     0.00000000    0.00000000    0.00000000
     atom   26 type  2   force =     0.00000000    0.00000000    0.00000000
     atom   27 type  1   force =     0.00000000    0.00000000    0.00000000
     atom   28 type  2   force =     0.00000000    0.00000000    0.00000000
     atom   29 type  2   force =     0.00000000    0.00000000    0.00000000
     atom   30 type  1   force =     0.00000000    0.00000000    0.00000000
     atom   31 type  2   force =     0.00000000    0.00000000    0.00000000
     atom   32 type  2   force =     0.00000000    0.00000000    0.00000000
     atom   33 type  1   force =     0.00000000    0.00000000    0.00000000
     atom   34 type  2   force =     0.00000000    0.00000000    0.00000000
     atom   35 type  2   force =     0.00000000    0.00000000    0.00000000
     atom   36 type  3   force =     0.00000000    0.00000000    0.00000000
     The SCF correction term to forces
     atom    1 type  1   force =     0.00003919   -0.00016602    0.00082611
     atom    2 type  2   force =     0.00002573   -0.00007575    0.00038402
     atom    3 type  2   force =    -0.00000653   -0.00002943    0.00026285
     atom    4 type  1   force =     0.00004178    0.00000906    0.00066713
     atom    5 type  2   force =     0.00002721   -0.00006594    0.00025200
     atom    6 type  2   force =     0.00001348    0.00002820    0.00024235
     atom    7 type  1   force =     0.00006353    0.00013355    0.00070548
     atom    8 type  2   force =    -0.00002165    0.00008563    0.00029394
     atom    9 type  2   force =    -0.00001750    0.00002637    0.00025158
     atom   10 type  1   force =    -0.00003867   -0.00003126    0.00082166
     atom   11 type  2   force =     0.00005883    0.00002206    0.00027240
     atom   12 type  2   force =    -0.00001124   -0.00004159    0.00031607
     atom   13 type  1   force =     0.00003766   -0.00002742    0.00066941
     atom   14 type  2   force =     0.00002958   -0.00004716    0.00035642
     atom   15 type  2   force =    -0.00002410   -0.00003263    0.00024020
     atom   16 type  1   force =     0.00005205    0.00005984    0.00070779
     atom   17 type  2   force =    -0.00000858   -0.00004292    0.00028036
     atom   18 type  2   force =    -0.00002707   -0.00001308    0.00024079
     atom   19 type  1   force =     0.00005517    0.00015238    0.00070741
     atom   20 type  2   force =     0.00004930    0.00002833    0.00023669
     atom   21 type  1   force =     0.00000053   -0.00007751    0.00078194
     atom   22 type  2   force =    -0.00002405    0.00005338    0.00030725
     atom   23 type  2   force =    -0.00001967    0.00002044    0.00028903
     atom   24 type  1   force =    -0.00007528   -0.00014759    0.00079153
     atom   25 type  2   force =    -0.00005710   -0.00007267    0.00037385
     atom   26 type  2   force =     0.00000684   -0.00005700    0.00025888
     atom   27 type  1   force =    -0.00006585   -0.00008034    0.00068004
     atom   28 type  2   force =    -0.00000380   -0.00006862    0.00030319
     atom   29 type  2   force =     0.00002317    0.00003235    0.00022686
     atom   30 type  1   force =    -0.00005787    0.00018609    0.00062733
     atom   31 type  2   force =    -0.00001851    0.00006588    0.00032426
     atom   32 type  2   force =    -0.00003546    0.00001062    0.00021064
     atom   33 type  1   force =     0.00001063   -0.00004721    0.00076420
     atom   34 type  2   force =    -0.00003787    0.00010583    0.00033625
     atom   35 type  2   force =     0.00002229    0.00002870    0.00029594
     atom   36 type  3   force =    -0.00000729   -0.00000024    0.00004532

     Total force =     0.077158     Total SCF correction =     0.002933
     Energy error            =      8.7E-03 Ry
     Gradient error          =      3.0E-02 Ry/Bohr

     number of scf cycles    =   2
     number of bfgs steps    =   1

     energy             old  =   -2205.5274460318 Ry
     energy             new  =   -2205.5361468400 Ry

     CASE: energy            _new < energy            _old

     new trust radius        =       0.0547861649 bohr
     new conv_thr            =       0.0000000299 Ry


ATOMIC_POSITIONS (angstrom)
Mo            6.5703839148        1.7793203815        2.8100702310
S             8.2134053644        0.7910479697        4.4714829643
S             8.1790217545        0.8217296445        1.2708453183
Mo            8.1002813248        4.4925112146        2.7177151776
S             6.4974865139        3.7176934759        4.3386356176
S             6.5527258264        3.5211534072        1.1232969880
Mo            6.4927176890        7.2086696480        2.6653955155
S             8.0834885271        6.3384055553        4.2599323026
S             8.0963210607        6.3118221176        1.0961966742
Mo            8.1522773887        9.9104466946        2.8182994457
S             6.4990190268        8.9400486015        4.3740725777
S             6.6133279148        9.0476809622        1.1446467456
Mo            3.4318080824        1.7558106211        2.7686546648
S             4.9833956095        0.8163261259        4.3612388253
S             5.0455712503        0.8460376168        1.2150491352
Mo            4.9800845731        4.5246311839        2.6384935506
S             3.4352369119        3.6734665456        4.2800633322
S             3.4351611440        3.5418529625        1.0736430783
Mo            3.4619374359        7.2077989692        2.6282277154
S             4.9867549343        6.3218834592        1.0371096167
Mo            5.0081830232        9.9088826432        2.7442245898
S             3.4693913244        8.9411240545        4.3221170578
S             3.4093401316        9.0645479889        1.1043361707
Mo            0.2872686665        1.7451161138        2.8283652298
S             1.8568763950        0.8072719749        4.4049590067
S             1.8489906786        0.8536917331        1.2035173181
Mo            1.8594581243        4.4915184910        2.6677700146
S             0.2734222382        3.6539964548        4.3313313774
S             0.2344792843        3.5290508343        1.1687765691
Mo            0.2670502537        7.2185336916        2.6876077022
S             1.9032152614        6.3126471353        4.2381686914
S             1.8510373311        6.3176456878        1.0540939001
Mo            1.8540247103        9.9366776731        2.7700457151
S             0.2946685005        9.0690441725        4.4149039913
S             0.2680635176        9.0523749742        1.1617608367
H            -0.0235286762       10.9393856305        5.4597138900



     Writing config-only to output data dir ./MoS2-V-O.save/
     NEW-OLD atomic charge density approx. for the potential

     negative rho (up, down):  1.431E-04 0.000E+00

     total cpu time spent up to now is      167.3 secs

     Self-consistent Calculation

     iteration #  1     ecut=    80.00 Ry     beta= 0.70
     Davidson diagonalization with overlap
     ethr =  1.00E-06,  avg # of iterations =  8.0

     negative rho (up, down):  9.786E-05 0.000E+00

     total cpu time spent up to now is      183.0 secs

     total energy              =   -2205.54299155 Ry
     estimated scf accuracy    <       0.00071637 Ry

     iteration #  2     ecut=    80.00 Ry     beta= 0.70
     Davidson diagonalization with overlap
     ethr =  2.33E-07,  avg # of iterations =  3.0

     negative rho (up, down):  7.670E-05 0.000E+00

     total cpu time spent up to now is      195.3 secs

     total energy              =   -2205.54303428 Ry
     estimated scf accuracy    <       0.00012908 Ry

     iteration #  3     ecut=    80.00 Ry     beta= 0.70
     Davidson diagonalization with overlap
     ethr =  4.20E-08,  avg # of iterations =  6.0

     negative rho (up, down):  6.816E-05 0.000E+00

     total cpu time spent up to now is      212.3 secs

     total energy              =   -2205.54305541 Ry
     estimated scf accuracy    <       0.00002100 Ry

     iteration #  4     ecut=    80.00 Ry     beta= 0.70
     Davidson diagonalization with overlap
     ethr =  6.84E-09,  avg # of iterations =  8.0

     negative rho (up, down):  6.788E-05 0.000E+00

     total cpu time spent up to now is      229.6 secs

     total energy              =   -2205.54306198 Ry
     estimated scf accuracy    <       0.00000297 Ry

     iteration #  5     ecut=    80.00 Ry     beta= 0.70
     Davidson diagonalization with overlap
     ethr =  9.67E-10,  avg # of iterations =  5.0

     negative rho (up, down):  7.212E-05 0.000E+00

     total cpu time spent up to now is      245.6 secs

     total energy              =   -2205.54306216 Ry
     estimated scf accuracy    <       0.00000087 Ry

     iteration #  6     ecut=    80.00 Ry     beta= 0.70
     Davidson diagonalization with overlap
     ethr =  2.85E-10,  avg # of iterations =  4.0

     negative rho (up, down):  7.944E-05 0.000E+00

     total cpu time spent up to now is      259.8 secs

     total energy              =   -2205.54306226 Ry
     estimated scf accuracy    <       0.00000018 Ry

     iteration #  7     ecut=    80.00 Ry     beta= 0.70
     Davidson diagonalization with overlap
     ethr =  5.92E-11,  avg # of iterations =  5.0

     negative rho (up, down):  9.515E-05 0.000E+00

     total cpu time spent up to now is      271.6 secs

     total energy              =   -2205.54306222 Ry
     estimated scf accuracy    <       0.00000007 Ry

     iteration #  8     ecut=    80.00 Ry     beta= 0.70
     Davidson diagonalization with overlap
     ethr =  2.24E-11,  avg # of iterations =  3.0

     negative rho (up, down):  1.381E-04 0.000E+00

     total cpu time spent up to now is      273.9 secs

     End of self-consistent calculation

          k = 0.0000 0.0000 0.0000 (105382 PWs)   bands (ev):

   -62.8903 -62.8733 -62.8617 -62.8324 -62.8195 -62.8111 -62.8046 -62.7968
   -62.7802 -62.7785 -62.7609 -62.7518 -37.2321 -37.1664 -37.1376 -37.1328
   -37.1245 -37.0959 -37.0788 -37.0726 -37.0629 -37.0586 -37.0465 -37.0358
   -37.0310 -37.0230 -37.0105 -37.0005 -36.9955 -36.9902 -36.9751 -36.9676
   -36.9636 -36.9551 -36.9404 -36.9370 -36.9279 -36.9245 -36.9119 -36.9046
   -36.8975 -36.8759 -36.8609 -36.8450 -36.8232 -36.7812 -36.7398 -36.7205
   -16.0085 -15.2300 -15.1623 -15.0156 -14.9618 -14.8173 -14.5731 -14.5012
   -14.4590 -14.4182 -14.4069 -14.3715 -14.3435 -14.2933 -14.1557 -14.1393
   -14.1211 -14.1059 -14.0247 -13.9195 -13.8572 -13.8305 -13.7999  -8.0249
    -7.6042  -7.4388  -7.2740  -7.2641  -7.2087  -7.1969  -7.1198  -6.8989
    -6.8421  -6.7998  -6.7462  -6.7307  -6.5282  -6.4867  -6.4520  -6.4486
    -6.3618  -6.2288  -6.0158  -5.9873  -5.9032  -5.8500  -5.8190  -5.8051
    -5.7733  -5.7335  -5.6693  -5.6555  -5.6239  -5.5730  -5.5225  -5.4640
    -5.4047  -5.3310  -5.1658  -5.1499  -5.0923  -5.0344  -4.9820  -4.9603
    -4.9182  -4.8321  -4.6288  -4.5105  -4.3744  -4.3191  -4.3007  -4.2499
    -4.2358  -4.0736  -4.0276  -3.9756  -3.8023  -3.7575  -3.7164  -3.7031
    -3.6732  -3.5722  -3.5432  -3.5264  -3.4918  -3.4887  -3.4480  -3.3730
    -3.3591  -3.1962  -3.1458  -2.9082  -2.8869  -2.7831  -2.7632  -2.7303
    -2.7043  -2.6843  -2.6610  -2.6192  -2.5668  -2.2899  -2.0747  -2.0075
    -1.9860  -1.1201  -0.7551  -0.7305  -0.1573  -0.1291  -0.0567  -0.0355
     0.1053   0.1234   0.2019   0.2580   0.2673   0.2942   0.3748   0.4305
     0.4846   0.5380   0.5480   0.5802   0.6140   0.6790   0.6971   0.7649
     0.7755   0.7881   0.8787   0.8843   0.9588   1.0034   1.0264   1.3245
     1.3928

     the Fermi energy is    -1.1201 ev

!    total energy              =   -2205.54306208 Ry
     estimated scf accuracy    <       0.00000002 Ry
     smearing contrib. (-TS)   =      -0.00564766 Ry
     internal energy E=F+TS    =   -2205.53741442 Ry

     The total energy is F=E-TS. E is the sum of the following terms:
     one-electron contribution =  -18042.55232600 Ry
     hartree contribution      =    9008.06190676 Ry
     xc contribution           =    -385.21668322 Ry
     ewald contribution        =    7214.16968803 Ry

     convergence has been achieved in   8 iterations

     negative rho (up, down):  1.381E-04 0.000E+00

     Forces acting on atoms (cartesian axes, Ry/au):

     atom    1 type  1   force =    -0.00267391   -0.00339889   -0.00497770
     atom    2 type  2   force =     0.02827316   -0.01661148    0.02376235
     atom    3 type  2   force =    -0.01082273    0.00679732   -0.01047525
     atom    4 type  1   force =     0.00283838   -0.00049646    0.00214737
     atom    5 type  2   force =    -0.00003031   -0.00519323   -0.00549472
     atom    6 type  2   force =    -0.00163713    0.00616582    0.00125635
     atom    7 type  1   force =     0.00237528   -0.00416465    0.00195890
     atom    8 type  2   force =     0.00182949   -0.00405623    0.00672107
     atom    9 type  2   force =     0.00887730    0.00289206    0.00381176
     atom   10 type  1   force =     0.00035124    0.00517198    0.00166374
     atom   11 type  2   force =     0.00285870   -0.00175806   -0.00920475
     atom   12 type  2   force =    -0.00550342   -0.00112500   -0.00118560
     atom   13 type  1   force =     0.00186716   -0.00053201    0.00137373
     atom   14 type  2   force =     0.00546891    0.00123001    0.00314837
     atom   15 type  2   force =    -0.00719874   -0.00008637   -0.00941283
     atom   16 type  1   force =     0.00069164    0.00565458    0.00222479
     atom   17 type  2   force =     0.00505984    0.00136502    0.00191350
     atom   18 type  2   force =    -0.00070283   -0.00083977    0.00822737
     atom   19 type  1   force =     0.00284596   -0.00447576    0.00326201
     atom   20 type  2   force =     0.00262164   -0.00341618   -0.00417602
     atom   21 type  1   force =    -0.00119339    0.00344761    0.00255251
     atom   22 type  2   force =     0.00009761   -0.00195103   -0.00240916
     atom   23 type  2   force =     0.00105066   -0.00155344    0.00314734
     atom   24 type  1   force =    -0.00250285   -0.00169028   -0.00079278
     atom   25 type  2   force =     0.00619632    0.01022252   -0.00519069
     atom   26 type  2   force =    -0.00403306   -0.00094779   -0.00395989
     atom   27 type  1   force =    -0.00064987   -0.00003904    0.00531628
     atom   28 type  2   force =     0.00001851   -0.00330400   -0.00477740
     atom   29 type  2   force =     0.00223145    0.00216811   -0.00444663
     atom   30 type  1   force =    -0.00100512    0.00052181    0.00748256
     atom   31 type  2   force =    -0.00006777    0.00000629    0.00522573
     atom   32 type  2   force =    -0.00502104    0.00293344    0.00512496
     atom   33 type  1   force =     0.00058147    0.00076034    0.00397751
     atom   34 type  2   force =    -0.00195015   -0.01582075   -0.01067935
     atom   35 type  2   force =    -0.00363718    0.00708795    0.00168526
     atom   36 type  3   force =    -0.02750520    0.01503555   -0.01880066
     The non-local contrib.  to forces
     atom    1 type  1   force =     0.00953129    0.01896530   -0.01033533
     atom    2 type  2   force =     0.14937406   -0.09069268   -0.10916118
     atom    3 type  2   force =    -0.01068145   -0.00640479    0.26842214
     atom    4 type  1   force =     0.00136593    0.00904491    0.00321409
     atom    5 type  2   force =     0.00617519   -0.02635377   -0.24761576
     atom    6 type  2   force =    -0.00531554    0.00519157    0.26524149
     atom    7 type  1   force =    -0.02176104   -0.00535920   -0.02297647
     atom    8 type  2   force =     0.00147532   -0.00432386   -0.25963023
     atom    9 type  2   force =     0.00328378   -0.01200846    0.27185274
     atom   10 type  1   force =     0.00332779    0.00357084    0.00034577
     atom   11 type  2   force =     0.01164278    0.00653639   -0.25991711
     atom   12 type  2   force =    -0.01600925   -0.01802430    0.25964595
     atom   13 type  1   force =    -0.00074187    0.02061755   -0.00674831
     atom   14 type  2   force =     0.00283895   -0.01121726   -0.25511469
     atom   15 type  2   force =    -0.00905554   -0.00262063    0.26168916
     atom   16 type  1   force =    -0.00081785    0.02883035   -0.03499417
     atom   17 type  2   force =     0.00082673   -0.02588454   -0.24700121
     atom   18 type  2   force =    -0.00130715   -0.00047846    0.27067916
     atom   19 type  1   force =     0.01792835   -0.00570934   -0.01917121
     atom   20 type  2   force =    -0.00041764   -0.01926869    0.26171406
     atom   21 type  1   force =    -0.00009354    0.02444831    0.00541136
     atom   22 type  2   force =    -0.00318794    0.00533221   -0.25836875
     atom   23 type  2   force =     0.00883978   -0.01696246    0.26571014
     atom   24 type  1   force =    -0.00154425    0.01299044   -0.00559550
     atom   25 type  2   force =    -0.00695694   -0.00904166   -0.23861103
     atom   26 type  2   force =     0.00274662   -0.01106305    0.26544058
     atom   27 type  1   force =    -0.00178083    0.00883463    0.00780573
     atom   28 type  2   force =    -0.00356840   -0.02769871   -0.27128049
     atom   29 type  2   force =     0.00571078    0.00183804    0.26285346
     atom   30 type  1   force =     0.00170070    0.01956251    0.00205722
     atom   31 type  2   force =    -0.00516466    0.00001188   -0.25963729
     atom   32 type  2   force =     0.00136062   -0.01270358    0.27195219
     atom   33 type  1   force =    -0.00542678    0.00507555    0.00399116
     atom   34 type  2   force =     0.00003288    0.01780092   -0.23540774
     atom   35 type  2   force =    -0.00080569   -0.01016198    0.26703507
     atom   36 type  3   force =    -0.01046096    0.00584068   -0.01255485
     The ionic contribution  to forces
     atom    1 type  1   force =     0.40295212    0.40704992    5.34454857
     atom    2 type  2   force =    -1.46434808    0.90493563   38.93590682
     atom    3 type  2   force =    -0.16297190    0.05070959  -36.30155322
     atom    4 type  1   force =    -0.02471933    0.61024677    0.81202076
     atom    5 type  2   force =    -0.93473994    1.43066595   38.64286580
     atom    6 type  2   force =     0.29442548   -0.43733590  -37.95452313
     atom    7 type  1   force =    -2.60565252   -2.61599471    2.45015895
     atom    8 type  2   force =    -0.98497373    0.03690961   37.55969682
     atom    9 type  2   force =     0.25578456   -0.13012067  -37.94514713
     atom   10 type  1   force =    -1.16864789   -0.49288102    4.39753076
     atom   11 type  2   force =    -0.63948110   -1.70189167   38.95106893
     atom   12 type  2   force =     0.29326062    0.58600076  -37.82485427
     atom   13 type  1   force =     0.33269007    0.80990137    2.63574959
     atom   14 type  2   force =     0.03460740    0.04843927   38.63855706
     atom   15 type  2   force =     0.12583688   -0.08955040  -36.99602726
     atom   16 type  1   force =     0.02883709    3.82169186    0.86129095
     atom   17 type  2   force =     0.81994435    1.49032606   37.99369307
     atom   18 type  2   force =    -0.14671261   -0.50054412  -38.44923440
     atom   19 type  1   force =     2.55211274   -2.38170464    0.64214375
     atom   20 type  2   force =     0.18538101   -0.18904217  -38.59699652
     atom   21 type  1   force =     0.02417068   -0.10902580    1.39037437
     atom   22 type  2   force =     0.54485698   -1.80033909   38.38443721
     atom   23 type  2   force =    -0.07216052    0.57925090  -38.22477499
     atom   24 type  1   force =    -0.37510925    1.30718573    4.65484907
     atom   25 type  2   force =     1.06994792    0.46725225   38.89574138
[...]
     atom   27 type  1   force =     0.00038178    0.00938881    0.00399124
     atom   28 type  2   force =     0.00164498   -0.02262721   -0.26631771
     atom   29 type  2   force =    -0.00069195   -0.00630634    0.26607849
     atom   30 type  1   force =     0.00353963    0.01436906    0.00163462
     atom   31 type  2   force =    -0.00810076    0.00031983   -0.26455736
     atom   32 type  2   force =     0.00647109   -0.01440209    0.26886713
     atom   33 type  1   force =    -0.00113540    0.00218060    0.00252933
     atom   34 type  2   force =     0.00192613   -0.00185658   -0.25777410
     atom   35 type  2   force =    -0.00076837   -0.01538114    0.26847042
     atom   36 type  3   force =    -0.03362219    0.01845215   -0.03951327
     The ionic contribution  to forces
     atom    1 type  1   force =     1.17061223   -0.06246438   -0.01730915
     atom    2 type  2   force =    -2.03263982    1.16399408   38.46936487
     atom    3 type  2   force =     0.22211498   -0.17096044  -36.84216098
     atom    4 type  1   force =    -0.05431108    0.61161672    0.50339908
     atom    5 type  2   force =    -0.82037969    1.08487100   38.12293160
     atom    6 type  2   force =     0.41557877   -0.07546670  -38.51622405
     atom    7 type  1   force =    -2.44942743   -2.37243149    2.28514223
     atom    8 type  2   force =    -1.28631610    0.01192042   38.00322235
     atom    9 type  2   force =     0.39141966   -0.02478288  -37.67049720
     atom   10 type  1   force =    -0.97992924   -0.00032299    4.27270413
     atom   11 type  2   force =    -0.71354135   -1.55841009   38.56587702
     atom   12 type  2   force =     0.36205139    0.37674443  -37.87820563
     atom   13 type  1   force =     0.06942126    0.78067301    1.90039158
     atom   14 type  2   force =     0.23527230    0.02994078   38.22059252
     atom   15 type  2   force =    -0.09193694   -0.29568942  -38.13737784
     atom   16 type  1   force =     0.00377976    3.77034985    0.99671534
     atom   17 type  2   force =     0.96473324    1.24024207   38.23065022
     atom   18 type  2   force =    -0.37131409   -0.25480389  -38.05951685
     atom   19 type  1   force =     2.46474191   -2.03362538    2.98625355
     atom   20 type  2   force =    -0.00583497    0.02896865  -38.71279846
     atom   21 type  1   force =     0.01444761   -0.32150004    0.31923654
     atom   22 type  2   force =     0.56785816   -1.48675602   38.43399171
     atom   23 type  2   force =    -0.27281612    0.24192181  -37.81120123
     atom   24 type  1   force =    -0.76572645    0.80686677    3.91515871
     atom   25 type  2   force =     0.79345441    0.18840924   38.69629729
     atom   26 type  2   force =    -0.20344664   -0.02868116  -37.42777116
     atom   27 type  1   force =     0.04169258    0.63826374    0.96209524
     atom   28 type  2   force =    -0.11554905    0.79448821   38.21624034
     atom   29 type  2   force =    -0.02357020   -0.12528142  -37.33841747
     atom   30 type  1   force =    -0.01598555   -1.02193762    2.14715447
     atom   31 type  2   force =     1.25064702    0.10634780   38.19306406
     atom   32 type  2   force =    -0.33845278    0.01875046  -37.66006895
     atom   33 type  1   force =     0.73084404   -0.78613296    2.85192157
     atom   34 type  2   force =     0.22982417   -1.04045935   38.79116762
     atom   35 type  2   force =    -0.04874414    0.13499698  -37.36626431
     atom   36 type  3   force =     0.66142819   -0.36965977    8.35424124
     The local contribution  to forces
     atom    1 type  1   force =    -1.17008068    0.04475535    0.02344380
     atom    2 type  2   force =     1.80536288   -1.04058360  -38.46672977
     atom    3 type  2   force =    -0.21704569    0.18058172   36.59016811
     atom    4 type  1   force =     0.05268756   -0.61881561   -0.50691703
     atom    5 type  2   force =     0.81529302   -1.07443022  -37.89930671
     atom    6 type  2   force =    -0.41161066    0.08299246   38.27265897
     atom    7 type  1   force =     2.47100116    2.37962683   -2.26610947
     atom    8 type  2   force =     1.27973704   -0.01167933  -37.76012152
     atom    9 type  2   force =    -0.38489292    0.04040204   37.42336146
     atom   10 type  1   force =     0.98090710   -0.00574836   -4.26742310
     atom   11 type  2   force =     0.70315167    1.55320018  -38.33205053
     atom   12 type  2   force =    -0.35103503   -0.36352763   37.63649400
     atom   13 type  1   force =    -0.07290630   -0.80158804   -1.89668523
     atom   14 type  2   force =    -0.22124629   -0.01645520  -37.98879886
     atom   15 type  2   force =     0.08955463    0.29474500   37.89368941
     atom   16 type  1   force =    -0.00467544   -3.80574294   -0.96406048
     atom   17 type  2   force =    -0.95788270   -1.21755539  -37.99830914
     atom   18 type  2   force =     0.36913908    0.26098439   37.81468646
     atom   19 type  1   force =    -2.48706202    2.03925663   -2.96070545
     atom   20 type  2   force =     0.00512261   -0.01544035   38.47214267
     atom   21 type  1   force =    -0.01422887    0.29967285   -0.32463648
     atom   22 type  2   force =    -0.56375952    1.48536927  -38.19512629
     atom   23 type  2   force =     0.26411416   -0.23243121   37.56458394
     atom   24 type  1   force =     0.77068093   -0.82184518   -3.91048528
     atom   25 type  2   force =    -0.79186873   -0.17649083  -38.46805071
     atom   26 type  2   force =     0.19622557    0.03599775   37.18037753
     atom   27 type  1   force =    -0.04219978   -0.64792799   -0.96674003
     atom   28 type  2   force =     0.11439208   -0.77284830  -37.97137514
     atom   29 type  2   force =     0.02348169    0.13152110   37.09257836
     atom   30 type  1   force =     0.01229770    1.00764637   -2.14999215
     atom   31 type  2   force =    -1.24259104   -0.10688742  -37.94925903
     atom   32 type  2   force =     0.33246248   -0.00488235   37.41166648
     atom   33 type  1   force =    -0.72896959    0.78350097   -2.85487694
     atom   34 type  2   force =    -0.23146593    1.04208736  -38.55285158
     atom   35 type  2   force =     0.04895198   -0.12090575   37.11921225
     atom   36 type  3   force =    -0.62795231    0.35228610   -8.31476784
     The core correction contribution to forces
     atom    1 type  1   force =     0.00000000    0.00000000    0.00000000
     atom    2 type  2   force =    -0.01587067    0.00861794    0.00253478
     atom    3 type  2   force =     0.00052006    0.00016977   -0.02122228
     atom    4 type  1   force =     0.00000000    0.00000000    0.00000000
     atom    5 type  2   force =    -0.00053431    0.00034320    0.01991854
     atom    6 type  2   force =     0.00035980    0.00023973   -0.02090702
     atom    7 type  1   force =     0.00000000    0.00000000    0.00000000
     atom    8 type  2   force =    -0.00043481    0.00024997    0.02063757
     atom    9 type  2   force =     0.00061303    0.00082153   -0.02083073
     atom   10 type  1   force =     0.00000000    0.00000000    0.00000000
     atom   11 type  2   force =    -0.00060253   -0.00060421    0.02027415
     atom   12 type  2   force =     0.00099411    0.00108853   -0.02077621
     atom   13 type  1   force =     0.00000000    0.00000000    0.00000000
     atom   14 type  2   force =     0.00085477    0.00035645    0.02023850
     atom   15 type  2   force =    -0.00035720   -0.00021985   -0.02081875
     atom   16 type  1   force =     0.00000000    0.00000000    0.00000000
     atom   17 type  2   force =     0.00065785    0.00105809    0.02026821
     atom   18 type  2   force =    -0.00033237   -0.00011563   -0.02081279
     atom   19 type  1   force =     0.00000000    0.00000000    0.00000000
     atom   20 type  2   force =    -0.00002335    0.00065156   -0.02115811
     atom   21 type  1   force =     0.00000000    0.00000000    0.00000000
     atom   22 type  2   force =     0.00016760   -0.00022808    0.02047338
     atom   23 type  2   force =    -0.00074728    0.00078029   -0.02090248
     atom   24 type  1   force =     0.00000000    0.00000000    0.00000000
     atom   25 type  2   force =     0.00056702    0.00052386    0.01982451
     atom   26 type  2   force =    -0.00052906    0.00025578   -0.02093245
     atom   27 type  1   force =     0.00000000    0.00000000    0.00000000
     atom   28 type  2   force =    -0.00012173    0.00155197    0.02065266
     atom   29 type  2   force =     0.00004117    0.00004968   -0.02075701
     atom   30 type  1   force =     0.00000000    0.00000000    0.00000000
     atom   31 type  2   force =     0.00045946    0.00028952    0.02071860
     atom   32 type  2   force =    -0.00051412    0.00074717   -0.02090222
     atom   33 type  1   force =     0.00000000    0.00000000    0.00000000
     atom   34 type  2   force =     0.00015515   -0.00035732    0.02028971
     atom   35 type  2   force =    -0.00003314    0.00095617   -0.02099415
     atom   36 type  3   force =     0.00000000    0.00000000    0.00000000
     The Hubbard contrib.    to forces
     atom    1 type  1   force =     0.00000000    0.00000000    0.00000000
     atom    2 type  2   force =     0.00000000    0.00000000    0.00000000
     atom    3 type  2   force =     0.00000000    0.00000000    0.00000000
     atom    4 type  1   force =     0.00000000    0.00000000    0.00000000
     atom    5 type  2   force =     0.00000000    0.00000000    0.00000000
     atom    6 type  2   force =     0.00000000    0.00000000    0.00000000
     atom    7 type  1   force =     0.00000000    0.00000000    0.00000000
     atom    8 type  2   force =     0.00000000    0.00000000    0.00000000
     atom    9 type  2   force =     0.00000000    0.00000000    0.00000000
     atom   10 type  1   force =     0.00000000    0.00000000    0.00000000
     atom   11 type  2   force =     0.00000000    0.00000000    0.00000000
     atom   12 type  2   force =     0.00000000    0.00000000    0.00000000
     atom   13 type  1   force =     0.00000000    0.00000000    0.00000000
     atom   14 type  2   force =     0.00000000    0.00000000    0.00000000
     atom   15 type  2   force =     0.00000000    0.00000000    0.00000000
     atom   16 type  1   force =     0.00000000    0.00000000    0.00000000
     atom   17 type  2   force =     0.00000000    0.00000000    0.00000000
     atom   18 type  2   force =     0.00000000    0.00000000    0.00000000
     atom   19 type  1   force =     0.00000000    0.00000000    0.00000000
     atom   20 type  2   force =     0.00000000    0.00000000    0.00000000
     atom   21 type  1   force =     0.00000000    0.00000000    0.00000000
     atom   22 type  2   force =     0.00000000    0.00000000    0.00000000
     atom   23 type  2   force =     0.00000000    0.00000000    0.00000000
     atom   24 type  1   force =     0.00000000    0.00000000    0.00000000
     atom   25 type  2   force =     0.00000000    0.00000000    0.00000000
     atom   26 type  2   force =     0.00000000    0.00000000    0.00000000
     atom   27 type  1   force =     0.00000000    0.00000000    0.00000000
     atom   28 type  2   force =     0.00000000    0.00000000    0.00000000
     atom   29 type  2   force =     0.00000000    0.00000000    0.00000000
     atom   30 type  1   force =     0.00000000    0.00000000    0.00000000
     atom   31 type  2   force =     0.00000000    0.00000000    0.00000000
     atom   32 type  2   force =     0.00000000    0.00000000    0.00000000
     atom   33 type  1   force =     0.00000000    0.00000000    0.00000000
     atom   34 type  2   force =     0.00000000    0.00000000    0.00000000
     atom   35 type  2   force =     0.00000000    0.00000000    0.00000000
     atom   36 type  3   force =     0.00000000    0.00000000    0.00000000
     The SCF correction term to forces
     atom    1 type  1   force =     0.00002060    0.00000811    0.00011035
     atom    2 type  2   force =    -0.00001162    0.00001467    0.00006840
     atom    3 type  2   force =     0.00000506   -0.00000092    0.00002520
     atom    4 type  1   force =    -0.00001225   -0.00003538    0.00008802
     atom    5 type  2   force =     0.00000191   -0.00002250    0.00004172
     atom    6 type  2   force =    -0.00000966   -0.00000014    0.00002623
     atom    7 type  1   force =    -0.00001387    0.00002271    0.00006670
     atom    8 type  2   force =    -0.00000951   -0.00000234    0.00003885
     atom    9 type  2   force =    -0.00000255    0.00001362    0.00001122
     atom   10 type  1   force =    -0.00001633    0.00002751    0.00008342
     atom   11 type  2   force =    -0.00000797    0.00001188    0.00003952
     atom   12 type  2   force =     0.00000218   -0.00000633    0.00001862
     atom   13 type  1   force =    -0.00001022    0.00003328    0.00008732
     atom   14 type  2   force =     0.00001591    0.00000482    0.00005949
     atom   15 type  2   force =    -0.00000501   -0.00000139    0.00001103
     atom   16 type  1   force =     0.00000169   -0.00001514    0.00009668
     atom   17 type  2   force =     0.00000544   -0.00001688    0.00002935
     atom   18 type  2   force =     0.00000692   -0.00001300    0.00003105
     atom   19 type  1   force =     0.00003055    0.00003039    0.00007844
     atom   20 type  2   force =     0.00000945    0.00000310    0.00002297
     atom   21 type  1   force =     0.00001140   -0.00000930    0.00009682
     atom   22 type  2   force =     0.00001577    0.00000569    0.00003739
     atom   23 type  2   force =    -0.00000040    0.00000402    0.00001426
     atom   24 type  1   force =    -0.00002708   -0.00000004    0.00010468
     atom   25 type  2   force =    -0.00000471    0.00001220    0.00005563
     atom   26 type  2   force =     0.00000173    0.00000748    0.00000417
     atom   27 type  1   force =     0.00000879   -0.00006741    0.00009296
     atom   28 type  2   force =    -0.00000684   -0.00002293    0.00004881
     atom   29 type  2   force =     0.00000194   -0.00001109    0.00002076
     atom   30 type  1   force =    -0.00002652    0.00003125    0.00001997
     atom   31 type  2   force =     0.00000455   -0.00000265    0.00004477
     atom   32 type  2   force =    -0.00000813    0.00001217    0.00000408
     atom   33 type  1   force =    -0.00000392    0.00000223    0.00006135
     atom   34 type  2   force =    -0.00000351    0.00001165    0.00003834
     atom   35 type  2   force =    -0.00000241   -0.00000642    0.00001203
     atom   36 type  3   force =    -0.00000371    0.00000450    0.00000663

     Total force =     0.005157     Total SCF correction =     0.000367
     Energy error            =      7.5E-05 Ry
     Gradient error          =      1.2E-03 Ry/Bohr

     bfgs converged in  22 scf cycles and  21 bfgs steps
     (criteria: energy <  1.0E-04 Ry, force <  1.0E-02 Ry/Bohr)

     End of BFGS Geometry Optimization

     Final energy             =   -2205.5826784381 Ry

     File ./MoS2-V-O.bfgs deleted, as requested
Begin final coordinates

ATOMIC_POSITIONS (angstrom)
Mo            6.5408454996        1.7812174400        2.6960892233
S             8.2247936054        0.7762122081        4.5214715578
S             8.1607549719        0.8295154813        1.2117975230
Mo            8.1192925065        4.4702641590        2.7135974418
S             6.5091098545        3.6568028533        4.2894529900
S             6.5466463836        3.5729925833        1.0807099678
Mo            6.5214148871        7.1972964587        2.6650632418
S             8.0835551176        6.2899540919        4.2989146691
S             8.1537923112        6.3159364785        1.1236692565
Mo            8.1563771149        9.9219612507        2.8101131674
S             6.5139693478        8.9408545513        4.3367346890
S             6.6203369899        9.0359104513        1.1331338835
Mo            3.4394660484        1.7464622465        2.7506070894
S             5.0264244164        0.8291091565        4.3145358229
S             4.9914694858        0.8345188349        1.1249909977
Mo            4.9939574982        4.5370551451        2.6380019107
S             3.4783365099        3.6565147072        4.3011725911
S             3.4237136269        3.5594977018        1.1092664605
Mo            3.4940924978        7.1835170942        2.6768291303
S             5.0045718966        6.3270761663        1.0361861238
Mo            5.0183001908        9.9192706637        2.7188332870
S             3.4988666391        8.9567357363        4.3267349532
S             3.4066518417        9.0258919655        1.1328164457
Mo            0.2803894288        1.7283339492        2.8096364730
S             1.8938079153        0.8418946580        4.3729211514
S             1.8364379066        0.8300643891        1.1881902511
Mo            1.8673531941        4.4815189330        2.7241438174
S             0.2667970843        3.6123790582        4.3343120043
S             0.2732919514        3.5320460264        1.1694299485
Mo            0.2778716931        7.2049483085        2.7481611639
S             1.9277756217        6.2963290233        4.3091395867
S             1.8578559157        6.3160818068        1.1292429549
Mo            1.8634125646        9.9288811001        2.7796506168
S             0.2924148109        8.9978937696        4.3795558434
S             0.2716359735        9.0444955810        1.1882516614
H            -0.3634362897       11.2304123816        5.5114036408
End final coordinates



     Writing all to output data dir ./MoS2-V-O.save/
 
     init_run     :      2.39s CPU      2.66s WALL (       1 calls)
     electrons    :   1943.29s CPU   2169.93s WALL (      22 calls)
     update_pot   :     30.22s CPU     32.06s WALL (      21 calls)
     forces       :     30.20s CPU     35.18s WALL (      22 calls)

     Called by init_run:
     wfcinit      :      0.39s CPU      0.44s WALL (       1 calls)
     potinit      :      1.31s CPU      1.44s WALL (       1 calls)
     hinit0       :      0.16s CPU      0.18s WALL (       1 calls)

     Called by electrons:
     c_bands      :    247.89s CPU    252.16s WALL (     185 calls)
     sum_band     :     55.66s CPU     72.56s WALL (     185 calls)
     v_of_rho     :     82.75s CPU    101.34s WALL (     192 calls)
     newd         :     25.47s CPU     40.84s WALL (     192 calls)
     mix_rho      :   1541.38s CPU   1713.51s WALL (     185 calls)

     Called by c_bands:
     init_us_2    :      3.94s CPU      4.25s WALL (     371 calls)
     init_us_2:cp :      3.93s CPU      4.25s WALL (     371 calls)
     regterg      :    234.04s CPU    237.94s WALL (     185 calls)

     Called by *egterg:
     rdiaghg      :     17.10s CPU     17.32s WALL (     971 calls)
     h_psi        :    126.33s CPU    127.54s WALL (    1008 calls)
     s_psi        :     15.04s CPU     15.15s WALL (    1008 calls)
     g_psi        :      1.51s CPU      1.52s WALL (     822 calls)

     Called by h_psi:
     h_psi:calbec :     18.25s CPU     18.36s WALL (    1008 calls)
     vloc_psi     :     89.86s CPU     90.81s WALL (    1008 calls)
     add_vuspsi   :     15.10s CPU     15.22s WALL (    1008 calls)

     General routines
     calbec       :     26.01s CPU     26.22s WALL (    1281 calls)
     fft          :     54.24s CPU     63.57s WALL (   13002 calls)
     ffts         :    693.40s CPU    859.67s WALL (  376297 calls)
     fftw         :     76.74s CPU     77.46s WALL (  112421 calls)
     interpolate  :      1.36s CPU      1.61s WALL (     192 calls)
 
     Parallel routines
 
     PWSCF        :  33m29.92s CPU  37m26.63s WALL

 
   This run was terminated on:  11:12:30   4Nov2023            

=------------------------------------------------------------------------------=
   JOB DONE.
=------------------------------------------------------------------------------=
