
     Program PWSCF v.7.2 starts on  3Nov2023 at 23:21:26 

     This program is part of the open-source Quantum ESPRESSO suite
     for quantum simulation of materials; please cite
         "P. Giannozzi et al., J. Phys.:Condens. Matter 21 395502 (2009);
         "P. Giannozzi et al., J. Phys.:Condens. Matter 29 465901 (2017);
         "P. Giannozzi et al., J. Chem. Phys. 152 154105 (2020);
          URL http://www.quantum-espresso.org", 
     in publications or presentations arising from this work. More details at
     http://www.quantum-espresso.org/quote

     Parallel version (MPI & OpenMP), running on      48 processor cores
     Number of MPI processes:                48
     Threads/MPI process:                     1

     MPI processes distributed on     1 nodes
     65942 MiB available memory on the printing compute node when the environment starts
 
     Waiting for input...
     Reading input from standard input
Warning: card &CELL ignored
Warning: card CELL_DYNAMICS = 'BFGS', ignored
Warning: card CELL_DOFREE = '2DXY' ignored
Warning: card / ignored

     Current dimensions of program PWSCF are:
     Max number of different atomic species (ntypx) = 10
     Max number of k-points (npk) =  40000
     Max angular momentum in pseudopotentials (lmaxx) =  4

     IMPORTANT: XC functional enforced from input :
     Exchange-correlation= RVV10
                           (   1   4  13   4  26   0   0)
     Any further DFT definition will be discarded
     Please, verify this is what you really want


     gamma-point specific algorithms are used
     signal trapping enabled: kill the code with -SIGUSR1 to stop cleanly the simulation 
 
     R & G space division:  proc/nbgrp/npool/nimage =      48
     Subspace diagonalization in iterative solution of the eigenvalue problem:
     one sub-group per band group will be used
     scalapack distributed-memory algorithm (size of sub-group:  2*  2 procs)

 
     Parallelization info
     --------------------
     sticks:   dense  smooth     PW     G-vecs:    dense   smooth      PW
     Min         243     194     47                49060    35090    4376
     Max         246     196     50                49086    35128    4410
     Sum       11735    9389   2349              2355467  1685513  210763
 
     Using Slab Decomposition
 


     bravais-lattice index     =            0
     lattice parameter (alat)  =      17.8707  a.u.
     unit-cell volume          =   17436.2743 (a.u.)^3
     number of atoms/cell      =           36
     number of atomic types    =            3
     number of electrons       =       307.00
     number of Kohn-Sham states=          185
     kinetic-energy cutoff     =      80.0000  Ry
     charge density cutoff     =     400.0000  Ry
     scf convergence threshold =      1.0E-06
     mixing beta               =       0.7000
     number of iterations used =            8  local-TF  mixing
     energy convergence thresh.=      1.0E-04
     force convergence thresh. =      1.0E-02
     Exchange-correlation= RVV10
                           (   1   4  13   4  26   0   0)
     nstep                     =          200


     celldm(1)=  17.870686  celldm(2)=   0.000000  celldm(3)=   0.000000
     celldm(4)=   0.000000  celldm(5)=   0.000000  celldm(6)=   0.000000

     crystal axes: (cart. coord. in units of alat)
               a(1) = (   1.000000   0.000000   0.000000 )  
               a(2) = (   0.000000   1.155671   0.000000 )  
               a(3) = (   0.000000   0.000000   2.643601 )  

     reciprocal axes: (cart. coord. in units 2 pi/alat)
               b(1) = (  1.000000  0.000000  0.000000 )  
               b(2) = (  0.000000  0.865298  0.000000 )  
               b(3) = (  0.000000  0.000000  0.378272 )  


     PseudoPot. # 1 for Mo read from file:
     ../pseudo/Mo_ONCV_PBE-1.0.oncvpsp.upf
     MD5 check sum: 1b5d28e075c9ccadda658a603575cd1f
     Pseudo is Norm-conserving, Zval = 14.0
     Generated using ONCVPSP code by D. R. Hamann
     Using radial grid of 1526 points,  6 beta functions with: 
                l(1) =   0
                l(2) =   0
                l(3) =   1
                l(4) =   1
                l(5) =   2
                l(6) =   2

     PseudoPot. # 2 for S  read from file:
     ../pseudo/s_pbe_v1.4.uspp.F.UPF
     MD5 check sum: 88d86576ff6df21479756cfb9bdac1df
     Pseudo is Ultrasoft + core correction, Zval =  6.0
     Generated by new atomic code, or converted to UPF format
     Using radial grid of  907 points,  6 beta functions with: 
                l(1) =   0
                l(2) =   0
                l(3) =   1
                l(4) =   1
                l(5) =   2
                l(6) =   2
     Q(r) pseudized with  8 coefficients,  rinner =    1.300   1.300   1.300
                                                       1.300   1.300

     PseudoPot. # 3 for H  read from file:
     ../pseudo/H_ONCV_PBE-1.0.oncvpsp.upf
     MD5 check sum: 1790becc920ee074925cf490c71280fe
     Pseudo is Norm-conserving, Zval =  1.0
     Generated using ONCVPSP code by D. R. Hamann
     Using radial grid of 1166 points,  2 beta functions with: 
                l(1) =   0
                l(2) =   0

     atomic species   valence    mass     pseudopotential
        Mo            14.00    95.94000     Mo( 1.00)
        S              6.00    32.06500     S ( 1.00)
        H              1.00     1.00794     H ( 1.00)

     No symmetry found



   Cartesian axes

     site n.     atom                  positions (alat units)
         1           Mo  tau(   1) = (   0.6952221   0.1890506   0.2985846  )
         2           S   tau(   2) = (   0.8646417   0.0856217   0.4689279  )
         3           S   tau(   3) = (   0.8663890   0.0857843   0.1351291  )
         4           Mo  tau(   4) = (   0.8560186   0.4753274   0.2873942  )
         5           S   tau(   5) = (   0.6873294   0.3936244   0.4596353  )
         6           S   tau(   6) = (   0.6929804   0.3713468   0.1185692  )
         7           Mo  tau(   7) = (   0.6862796   0.7633098   0.2825370  )
         8           S   tau(   8) = (   0.8545980   0.6708292   0.4486168  )
         9           S   tau(   9) = (   0.8545123   0.6666874   0.1146125  )
        10           Mo  tau(  10) = (   0.8629403   1.0471007   0.3006803  )
        11           S   tau(  11) = (   0.6868280   0.9456650   0.4634891  )
        12           S   tau(  12) = (   0.6998113   0.9568511   0.1205389  )
        13           Mo  tau(  13) = (   0.3618216   0.1847309   0.2935964  )
        14           S   tau(  14) = (   0.5260962   0.0863870   0.4600448  )
        15           S   tau(  15) = (   0.5348379   0.0894875   0.1297123  )
        16           Mo  tau(  16) = (   0.5265817   0.4772436   0.2784130  )
        17           S   tau(  17) = (   0.3624753   0.3882513   0.4525556  )
        18           S   tau(  18) = (   0.3635411   0.3752055   0.1119148  )
        19           Mo  tau(  19) = (   0.3652268   0.7630864   0.2781795  )
        20           S   tau(  20) = (   0.5269494   0.6690381   0.1096838  )
        21           Mo  tau(  21) = (   0.5300192   1.0470394   0.2900995  )
        22           S   tau(  22) = (   0.3670346   0.9457522   0.4574073  )
        23           S   tau(  23) = (   0.3604225   0.9585725   0.1159032  )
        24           Mo  tau(  24) = (   0.0313099   0.1847895   0.3013130  )
        25           S   tau(  25) = (   0.1956761   0.0838230   0.4650863  )
        26           S   tau(  26) = (   0.1967693   0.0903508   0.1278874  )
        27           Mo  tau(  27) = (   0.1967578   0.4753919   0.2813011  )
        28           S   tau(  28) = (   0.0287851   0.3864324   0.4586755  )
        29           S   tau(  29) = (   0.0244514   0.3729871   0.1239344  )
        30           Mo  tau(  30) = (   0.0286728   0.7631204   0.2856894  )
        31           S   tau(  31) = (   0.2011512   0.6675435   0.4465001  )
        32           S   tau(  32) = (   0.1969214   0.6672839   0.1104564  )
        33           Mo  tau(  33) = (   0.1950294   1.0511147   0.2932237  )
        34           S   tau(  34) = (   0.0312912   0.9612169   0.4667423  )
        35           S   tau(  35) = (   0.0292670   0.9563028   0.1216485  )
        36           H   tau(  36) = (   0.6666667   0.2568157   0.5407634  )

     number of k points=     1  Gaussian smearing, width (Ry)=  0.0100
                       cart. coord. in units 2pi/alat
        k(    1) = (   0.0000000   0.0000000   0.0000000), wk =   2.0000000

     Dense  grid:  1177734 G-vectors     FFT dimensions: ( 120, 135, 320)

     Smooth grid:   842757 G-vectors     FFT dimensions: ( 108, 120, 270)

     Estimated max dynamical RAM per process >     146.59 MB

     Estimated total dynamical RAM >       6.87 GB

     Initial potential from superposition of free atoms

     starting charge     306.9873, renormalised to     307.0000

     negative rho (up, down):  1.418E-04 0.000E+00


---------------------------------------------------------------------------------
Carrying out rVV10 run using the following parameters:
Nqs =      20    Nr_points =    1024   r_max =   100.000
b_value =  6.30000    beta =  0.00901
     q_mesh =  0.00010000  0.00030000  0.00058939  0.00100810
               0.00161396  0.00249058  0.00375900  0.00559430
               0.00824984  0.01209221  0.01765183  0.02569619
               0.03733578  0.05417739  0.07854596  0.11380545
               0.16482331  0.23864234  0.34545298  0.50000000

Gradients computed in Reciprocal space

---------------------------------------------------------------------------------


     Starting wfcs are  213 randomized atomic wfcs

     total cpu time spent up to now is        2.8 secs

     Self-consistent Calculation

     iteration #  1     ecut=    80.00 Ry     beta= 0.70
     Davidson diagonalization with overlap
     ethr =  1.00E-02,  avg # of iterations =  2.0

     Threshold (ethr) on eigenvalues was too large:
     Diagonalizing with lowered threshold

     Davidson diagonalization with overlap
     ethr =  3.75E-04,  avg # of iterations =  4.0

     negative rho (up, down):  2.065E-08 0.000E+00

     total cpu time spent up to now is       17.0 secs

     total energy              =   -2205.60445881 Ry
     estimated scf accuracy    <       1.43672442 Ry

     iteration #  2     ecut=    80.00 Ry     beta= 0.70
     Davidson diagonalization with overlap
     ethr =  4.68E-04,  avg # of iterations =  1.0

     total cpu time spent up to now is       19.3 secs

     total energy              =   -2205.42561806 Ry
     estimated scf accuracy    <       0.59708873 Ry

     iteration #  3     ecut=    80.00 Ry     beta= 0.70
     Davidson diagonalization with overlap
     ethr =  1.94E-04,  avg # of iterations =  5.0

     total cpu time spent up to now is       22.0 secs

     total energy              =   -2205.53047027 Ry
     estimated scf accuracy    <       0.05012950 Ry

     iteration #  4     ecut=    80.00 Ry     beta= 0.70
     Davidson diagonalization with overlap
     c_bands:  1 eigenvalues not converged
     ethr =  1.63E-05,  avg # of iterations = 20.0

     total cpu time spent up to now is       25.4 secs

     total energy              =   -2205.53244869 Ry
     estimated scf accuracy    <       0.02686725 Ry

     iteration #  5     ecut=    80.00 Ry     beta= 0.70
     Davidson diagonalization with overlap
     ethr =  8.75E-06,  avg # of iterations =  2.0

     total cpu time spent up to now is       27.8 secs

     total energy              =   -2205.53166101 Ry
     estimated scf accuracy    <       0.01808939 Ry

     iteration #  6     ecut=    80.00 Ry     beta= 0.70
     Davidson diagonalization with overlap
     ethr =  5.89E-06,  avg # of iterations =  1.0

     total cpu time spent up to now is       30.0 secs

     total energy              =   -2205.53062575 Ry
     estimated scf accuracy    <       0.01200587 Ry

     iteration #  7     ecut=    80.00 Ry     beta= 0.70
     Davidson diagonalization with overlap
     ethr =  3.91E-06,  avg # of iterations =  1.0

     negative rho (up, down):  1.473E-05 0.000E+00

     total cpu time spent up to now is       34.8 secs

     total energy              =   -2205.52894113 Ry
     estimated scf accuracy    <       0.00690093 Ry

     iteration #  8     ecut=    80.00 Ry     beta= 0.70
     Davidson diagonalization with overlap
     ethr =  2.25E-06,  avg # of iterations =  2.0

     negative rho (up, down):  4.625E-03 0.000E+00

     total cpu time spent up to now is       39.4 secs

     total energy              =   -2205.52871772 Ry
     estimated scf accuracy    <       0.00388190 Ry

     iteration #  9     ecut=    80.00 Ry     beta= 0.70
     Davidson diagonalization with overlap
     ethr =  1.26E-06,  avg # of iterations =  2.0

     negative rho (up, down):  2.356E-02 0.000E+00

     total cpu time spent up to now is       43.4 secs

     total energy              =   -2205.52850182 Ry
     estimated scf accuracy    <       0.00243720 Ry

     iteration # 10     ecut=    80.00 Ry     beta= 0.70
     Davidson diagonalization with overlap
     ethr =  7.94E-07,  avg # of iterations =  2.0

     negative rho (up, down):  3.002E-02 0.000E+00

     total cpu time spent up to now is       47.9 secs

     total energy              =   -2205.52859987 Ry
     estimated scf accuracy    <       0.00110600 Ry

     iteration # 11     ecut=    80.00 Ry     beta= 0.70
     Davidson diagonalization with overlap
     ethr =  3.60E-07,  avg # of iterations =  2.0

     negative rho (up, down):  1.607E-02 0.000E+00

     total cpu time spent up to now is       54.0 secs

     total energy              =   -2205.52865323 Ry
     estimated scf accuracy    <       0.00028989 Ry

     iteration # 12     ecut=    80.00 Ry     beta= 0.70
     Davidson diagonalization with overlap
     ethr =  9.44E-08,  avg # of iterations =  2.0

     negative rho (up, down):  4.812E-03 0.000E+00

     total cpu time spent up to now is       60.2 secs

     total energy              =   -2205.52871717 Ry
     estimated scf accuracy    <       0.00006195 Ry

     iteration # 13     ecut=    80.00 Ry     beta= 0.70
     Davidson diagonalization with overlap
     ethr =  2.02E-08,  avg # of iterations = 14.0

     negative rho (up, down):  1.661E-03 0.000E+00

     total cpu time spent up to now is       68.2 secs

     total energy              =   -2205.52873007 Ry
     estimated scf accuracy    <       0.00000792 Ry

     iteration # 14     ecut=    80.00 Ry     beta= 0.70
     Davidson diagonalization with overlap
     ethr =  2.58E-09,  avg # of iterations =  4.0

     negative rho (up, down):  3.219E-04 0.000E+00

     total cpu time spent up to now is       77.3 secs

     total energy              =   -2205.52873021 Ry
     estimated scf accuracy    <       0.00000230 Ry

     iteration # 15     ecut=    80.00 Ry     beta= 0.70
     Davidson diagonalization with overlap
     ethr =  7.50E-10,  avg # of iterations =  4.0

     negative rho (up, down):  1.374E-04 0.000E+00

     total cpu time spent up to now is       79.7 secs

     End of self-consistent calculation

          k = 0.0000 0.0000 0.0000 (105382 PWs)   bands (ev):

   -62.9133 -62.8924 -62.8602 -62.8460 -62.8230 -62.8031 -62.7991 -62.7693
   -62.7469 -62.6548 -62.5945 -62.5699 -37.2227 -37.1592 -37.1354 -37.1246
   -37.1095 -37.1026 -37.0896 -37.0842 -37.0624 -37.0508 -37.0468 -37.0308
   -37.0115 -37.0081 -36.9999 -36.9936 -36.9897 -36.9808 -36.9715 -36.9583
   -36.9273 -36.9028 -36.8997 -36.8639 -36.8570 -36.8494 -36.8366 -36.8224
   -36.8082 -36.8055 -36.7867 -36.7639 -36.7454 -36.7052 -36.5798 -36.5664
   -16.1575 -15.6159 -15.1175 -15.0356 -14.8959 -14.8692 -14.6851 -14.4566
   -14.4136 -14.4073 -14.3754 -14.3266 -14.2882 -14.2693 -14.1725 -14.0894
   -14.0839 -14.0674 -14.0030 -13.8685 -13.7961 -13.7845 -13.7579  -8.8502
    -7.5534  -7.4152  -7.3010  -7.2477  -7.2260  -7.1844  -7.1596  -7.0676
    -6.8078  -6.7747  -6.7198  -6.6701  -6.6352  -6.4850  -6.4337  -6.3888
    -6.3049  -6.2275  -6.1354  -5.9550  -5.9200  -5.8931  -5.8621  -5.7598
    -5.7374  -5.6987  -5.6637  -5.6227  -5.5979  -5.5485  -5.5225  -5.4549
    -5.3806  -5.3592  -5.1663  -5.1260  -5.0443  -5.0104  -4.9488  -4.9419
    -4.8982  -4.7875  -4.6748  -4.4988  -4.4032  -4.3192  -4.2573  -4.1902
    -4.1374  -4.0642  -3.9836  -3.8344  -3.8207  -3.7999  -3.7142  -3.6574
    -3.5909  -3.5665  -3.5234  -3.4876  -3.4534  -3.4336  -3.4142  -3.3574
    -3.3393  -3.1613  -3.1299  -2.8726  -2.8512  -2.7890  -2.7573  -2.7193
    -2.6882  -2.6423  -2.6126  -2.5704  -2.5187  -2.2393  -1.9931  -1.9647
    -1.8317  -0.8115  -0.6590  -0.4860  -0.1847  -0.1243  -0.0897   0.0061
     0.0542   0.1507   0.1915   0.2290   0.2754   0.3148   0.4300   0.4831
     0.5157   0.5703   0.5898   0.6474   0.6607   0.6947   0.7332   0.7701
     0.8057   0.8112   0.8615   0.9056   0.9644   1.0277   1.0774   1.1422
     1.4072

     the Fermi energy is    -0.8224 ev

!    total energy              =   -2205.52873039 Ry
     estimated scf accuracy    <       0.00000066 Ry
     smearing contrib. (-TS)   =      -0.00695317 Ry
     internal energy E=F+TS    =   -2205.52177722 Ry

     The total energy is F=E-TS. E is the sum of the following terms:
     one-electron contribution =  -18054.89318851 Ry
     hartree contribution      =    9014.49472146 Ry
     xc contribution           =    -385.32673676 Ry
     ewald contribution        =    7220.20342660 Ry

     convergence has been achieved in  15 iterations

     negative rho (up, down):  1.374E-04 0.000E+00

     Forces acting on atoms (cartesian axes, Ry/au):

     atom    1 type  1   force =     0.02376447   -0.05102148   -0.03257447
     atom    2 type  2   force =    -0.00819799    0.01269122    0.00167250
     atom    3 type  2   force =    -0.01283257    0.01057335   -0.00256856
     atom    4 type  1   force =     0.02417186   -0.00267192   -0.01368492
     atom    5 type  2   force =    -0.01790429   -0.01284195    0.05496595
     atom    6 type  2   force =     0.00457283    0.00973768    0.00195738
     atom    7 type  1   force =     0.00073129    0.00046644   -0.00931328
     atom    8 type  2   force =     0.00035664   -0.00170001    0.02151123
     atom    9 type  2   force =     0.01622594    0.00212849    0.01104938
     atom   10 type  1   force =    -0.01329197    0.00939891   -0.02711487
     atom   11 type  2   force =     0.00443922   -0.00394230   -0.00496808
     atom   12 type  2   force =    -0.00140939    0.00099877    0.00620958
     atom   13 type  1   force =     0.00692451    0.00481782   -0.00788521
     atom   14 type  2   force =    -0.00351096   -0.00622036    0.01556250
     atom   15 type  2   force =    -0.01138520    0.00296396   -0.00766362
     atom   16 type  1   force =    -0.01031457   -0.00341649    0.00550337
     atom   17 type  2   force =     0.00390399    0.00334647   -0.00311192
     atom   18 type  2   force =    -0.00149604   -0.00550737    0.01540585
     atom   19 type  1   force =     0.00973221   -0.00242077   -0.00138644
     atom   20 type  2   force =     0.00175319   -0.00605546    0.00076238
     atom   21 type  1   force =    -0.00155916    0.00423833   -0.00133886
     atom   22 type  2   force =    -0.00229061   -0.00317994   -0.00300258
     atom   23 type  2   force =    -0.00029551    0.00168342    0.00869613
     atom   24 type  1   force =    -0.01064706   -0.00276466   -0.02287469
     atom   25 type  2   force =     0.01593717    0.01910458    0.00702096
     atom   26 type  2   force =    -0.01204669    0.00002552   -0.00390318
     atom   27 type  1   force =    -0.00830505   -0.00273069    0.01185476
     atom   28 type  2   force =     0.00331184    0.00122958   -0.00878179
     atom   29 type  2   force =     0.00023831    0.00074694   -0.00313540
     atom   30 type  1   force =    -0.00484037    0.00938885   -0.00561089
     atom   31 type  2   force =     0.00147254   -0.00064586    0.01622632
     atom   32 type  2   force =    -0.00977739    0.00426530    0.00733594
     atom   33 type  1   force =     0.01357228   -0.00424640   -0.00830495
     atom   34 type  2   force =     0.00320303   -0.04356664   -0.01093683
     atom   35 type  2   force =    -0.00810214    0.00640497    0.01551736
     atom   36 type  3   force =     0.00389563    0.04872171   -0.02309109
     The non-local contrib.  to forces
     atom    1 type  1   force =    -0.00515270    0.03106773   -0.01903466
     atom    2 type  2   force =    -0.00773189    0.00023902   -0.25705824
     atom    3 type  2   force =    -0.01642400   -0.00354017    0.27363784
     atom    4 type  1   force =    -0.00102276    0.00789581   -0.00390590
     atom    5 type  2   force =    -0.03361329   -0.30329793   -0.05018322
     atom    6 type  2   force =    -0.00081918    0.01066802    0.26594116
     atom    7 type  1   force =    -0.02670108   -0.00484123   -0.01068280
     atom    8 type  2   force =     0.00300244    0.00187557   -0.24870966
     atom    9 type  2   force =     0.00999972   -0.01430278    0.27933287
     atom   10 type  1   force =     0.00700613   -0.00484489   -0.00305881
     atom   11 type  2   force =     0.01351483    0.00572646   -0.25907732
     atom   12 type  2   force =    -0.01258419   -0.01550295    0.26261519
     atom   13 type  1   force =    -0.00327606    0.01890323   -0.00472997
     atom   14 type  2   force =     0.02344093   -0.00155950   -0.23296090
     atom   15 type  2   force =    -0.01057241   -0.00485459    0.26138788
     atom   16 type  1   force =     0.00697345    0.04611448   -0.01972765
     atom   17 type  2   force =     0.00236536   -0.03014738   -0.25087004
     atom   18 type  2   force =     0.00246209   -0.00169068    0.27169468
     atom   19 type  1   force =     0.02084630   -0.01007525   -0.01141224
     atom   20 type  2   force =    -0.00136160   -0.02165144    0.26339672
     atom   21 type  1   force =     0.00205627    0.01190621    0.00461126
     atom   22 type  2   force =    -0.00743963    0.00399738   -0.25970611
     atom   23 type  2   force =     0.00813636   -0.01270382    0.26663988
     atom   24 type  1   force =     0.00955911    0.01161374   -0.01226024
     atom   25 type  2   force =     0.00953302    0.00732637   -0.25830569
     atom   26 type  2   force =    -0.00302019   -0.01184197    0.26532311
     atom   27 type  1   force =     0.00032972    0.01655953    0.01079466
     atom   28 type  2   force =    -0.00411397   -0.02336463   -0.27550219
     atom   29 type  2   force =     0.00178333    0.00543573    0.26246940
     atom   30 type  1   force =     0.00154303    0.01836688    0.01055557
     atom   31 type  2   force =    -0.00707987    0.00179049   -0.25190917
     atom   32 type  2   force =    -0.00630627   -0.01408336    0.27164147
     atom   33 type  1   force =    -0.00472667    0.00478419    0.00725737
     atom   34 type  2   force =    -0.00140185   -0.03818708   -0.27356046
     atom   35 type  2   force =    -0.00334504   -0.01162815    0.27211441
     atom   36 type  3   force =     0.00423964    0.03208696   -0.02332033
     The ionic contribution  to forces
     atom    1 type  1   force =     0.53209719   -0.12663347    4.52220242
     atom    2 type  2   force =    -0.32495756    0.09633645   39.17653175
     atom    3 type  2   force =    -0.12004972   -0.03028902  -36.15559767
     atom    4 type  1   force =     0.32371910    0.87751138    0.40361575
     atom    5 type  2   force =    -0.78212286    2.72822972   38.04193992
     atom    6 type  2   force =     0.35429041   -0.45817149  -38.14495599
     atom    7 type  1   force =    -2.60821421   -2.69025042    2.54071404
     atom    8 type  2   force =    -0.93256155    0.13603854   37.38454223
     atom    9 type  2   force =     0.35765477   -0.00334650  -38.01346595
     atom   10 type  1   force =    -0.99047340   -0.52088493    5.59138213
     atom   11 type  2   force =    -0.55684934   -1.69846050   39.14003117
     atom   12 type  2   force =     0.44578318    0.66469942  -37.86383383
     atom   13 type  1   force =     0.18135172    0.89070631    2.62389265
     atom   14 type  2   force =    -0.32315843   -0.48404125   38.31733710
     atom   15 type  2   force =     0.12250506   -0.11553271  -36.89338369
     atom   16 type  1   force =    -0.22125360    4.28530713    0.15896188
     atom   17 type  2   force =     0.58728315    1.61615182   37.88050542
     atom   18 type  2   force =    -0.19824847   -0.62300121  -38.61028282
     atom   19 type  1   force =     2.66815612   -2.39026907    0.66216669
     atom   20 type  2   force =     0.21619481   -0.16321118  -38.49099251
     atom   21 type  1   force =    -0.04844185   -0.17876388    1.06633362
     atom   22 type  2   force =     0.42087024   -1.76340981   38.44095441
     atom   23 type  2   force =    -0.09997027    0.64746198  -38.28551036
     atom   24 type  1   force =    -0.33657041    1.06587218    5.69440890
     atom   25 type  2   force =     0.63170963    0.22072677   39.26778685
     atom   26 type  2   force =    -0.29552712    0.04142714  -37.34968866
     atom   27 type  1   force =    -0.00527615    0.51245855   -2.29737589
     atom   28 type  2   force =     0.19889309    1.08422015   38.18309710
     atom   29 type  2   force =    -0.23391876   -0.40723601  -37.30065221
     atom   30 type  1   force =    -0.30092360   -0.85304255   -0.01560710
     atom   31 type  2   force =     1.21640951   -0.00690763   37.33823792
     atom   32 type  2   force =    -0.48378836    0.01440760  -38.62788247
     atom   33 type  1   force =     0.77646947   -0.95068309    2.07035374
     atom   34 type  2   force =     0.26873659   -1.48571742   39.36676236
     atom   35 type  2   force =    -0.28966846    0.46142297  -37.80708621
     atom   36 type  3   force =    -0.15014990   -0.39312596    7.98455730
     The local contribution  to forces
     atom    1 type  1   force =    -0.50314567    0.04465343   -4.53465578
     atom    2 type  2   force =     0.32404684   -0.08354444  -38.93717895
     atom    3 type  2   force =     0.12288612    0.04434617   35.90066768
     atom    4 type  1   force =    -0.29855540   -0.88797929   -0.41244109
     atom    5 type  2   force =     0.79588426   -2.45682431  -37.94379275
     atom    6 type  2   force =    -0.34905435    0.45827873   37.90217253
     atom    7 type  1   force =     2.63576701    2.69547667   -2.53834256
     atom    8 type  2   force =     0.92990909   -0.13995945  -37.13385542
     atom    9 type  2   force =    -0.35107737    0.01889558   37.76646302
     atom   10 type  1   force =     0.97021284    0.53498712   -5.61438804
     atom   11 type  2   force =     0.54848365    1.68944199  -38.90592441
     atom   12 type  2   force =    -0.43570796   -0.64947266   37.62840720
     atom   13 type  1   force =    -0.17107689   -0.90472204   -2.62608024
     atom   14 type  2   force =     0.29784464    0.48032576  -38.08709300
     atom   15 type  2   force =    -0.12388589    0.12304216   36.64515192
     atom   16 type  1   force =     0.20406666   -4.33480490   -0.13272621
     atom   17 type  2   force =    -0.58550777   -1.58428041  -37.65244286
     atom   18 type  2   force =     0.19449354    0.61972828   38.37505652
     atom   19 type  1   force =    -2.67927289    2.39790015   -0.65114298
     atom   20 type  2   force =    -0.21320220    0.17790954   38.24958951
     atom   21 type  1   force =     0.04489012    0.17110641   -1.07128952
     atom   22 type  2   force =    -0.41596342    1.75682162  -38.20419236
     atom   23 type  2   force =     0.09213666   -0.63415857   38.04854489
     atom   24 type  1   force =     0.31628072   -1.08021559   -5.70403450
     atom   25 type  2   force =    -0.62522469   -0.20848228  -39.02247368
     atom   26 type  2   force =     0.28659359   -0.03021104   37.10159382
     atom   27 type  1   force =    -0.00344902   -0.53168607    2.29927502
     atom   28 type  2   force =    -0.19191119   -1.06134472  -37.93681887
     atom   29 type  2   force =     0.23270011    0.40329170   37.05576670
     atom   30 type  1   force =     0.29441934    0.84408269    0.00041899
     atom   31 type  2   force =    -1.20835925    0.00445323  -37.08994946
     atom   32 type  2   force =     0.48017129    0.00307229   38.38464014
     atom   33 type  1   force =    -0.75827202    0.94154189   -2.08489312
     atom   34 type  2   force =    -0.26456697    1.47914174  -39.12470599
     atom   35 type  2   force =     0.28491696   -0.44440877   37.57182481
     atom   36 type  3   force =     0.14980890    0.40977220   -7.98425953
     The core correction contribution to forces
     atom    1 type  1   force =     0.00000000    0.00000000    0.00000000
     atom    2 type  2   force =     0.00042903   -0.00037894    0.01989242
     atom    3 type  2   force =     0.00076575    0.00002234   -0.02106194
     atom    4 type  1   force =     0.00000000    0.00000000    0.00000000
     atom    5 type  2   force =     0.00193933    0.01902750    0.00754733
     atom    6 type  2   force =     0.00014102   -0.00099626   -0.02102305
     atom    7 type  1   force =     0.00000000    0.00000000    0.00000000
     atom    8 type  2   force =     0.00000991    0.00038121    0.02006214
     atom    9 type  2   force =    -0.00033393    0.00089631   -0.02110321
     atom   10 type  1   force =     0.00000000    0.00000000    0.00000000
     atom   11 type  2   force =    -0.00064285   -0.00066332    0.02053857
     atom   12 type  2   force =     0.00114871    0.00124806   -0.02078169
     atom   13 type  1   force =     0.00000000    0.00000000    0.00000000
     atom   14 type  2   force =    -0.00159172   -0.00095248    0.01883287
     atom   15 type  2   force =     0.00058231    0.00029707   -0.02061937
     atom   16 type  1   force =     0.00000000    0.00000000    0.00000000
     atom   17 type  2   force =    -0.00018620    0.00165635    0.02019873
     atom   18 type  2   force =    -0.00018606   -0.00050458   -0.02089572
     atom   19 type  1   force =     0.00000000    0.00000000    0.00000000
     atom   20 type  2   force =     0.00017479    0.00085557   -0.02108862
     atom   21 type  1   force =     0.00000000    0.00000000    0.00000000
     atom   22 type  2   force =     0.00019512   -0.00057099    0.02053423
     atom   23 type  2   force =    -0.00062239    0.00110150   -0.02082276
     atom   24 type  1   force =     0.00000000    0.00000000    0.00000000
     atom   25 type  2   force =    -0.00010675   -0.00054874    0.02055321
     atom   26 type  2   force =    -0.00012232    0.00061775   -0.02094923
     atom   27 type  1   force =     0.00000000    0.00000000    0.00000000
     atom   28 type  2   force =     0.00040622    0.00175763    0.02093549
     atom   29 type  2   force =    -0.00032610   -0.00070158   -0.02053903
     atom   30 type  1   force =     0.00000000    0.00000000    0.00000000
     atom   31 type  2   force =     0.00044029    0.00005144    0.02042126
     atom   32 type  2   force =     0.00007223    0.00084081   -0.02092686
     atom   33 type  1   force =     0.00000000    0.00000000    0.00000000
     atom   34 type  2   force =     0.00041958    0.00115511    0.02113042
     atom   35 type  2   force =    -0.00003165    0.00099718   -0.02113945
     atom   36 type  3   force =     0.00000000    0.00000000    0.00000000
     The Hubbard contrib.    to forces
     atom    1 type  1   force =     0.00000000    0.00000000    0.00000000
     atom    2 type  2   force =     0.00000000    0.00000000    0.00000000
     atom    3 type  2   force =     0.00000000    0.00000000    0.00000000
     atom    4 type  1   force =     0.00000000    0.00000000    0.00000000
     atom    5 type  2   force =     0.00000000    0.00000000    0.00000000
     atom    6 type  2   force =     0.00000000    0.00000000    0.00000000
     atom    7 type  1   force =     0.00000000    0.00000000    0.00000000
     atom    8 type  2   force =     0.00000000    0.00000000    0.00000000
     atom    9 type  2   force =     0.00000000    0.00000000    0.00000000
     atom   10 type  1   force =     0.00000000    0.00000000    0.00000000
     atom   11 type  2   force =     0.00000000    0.00000000    0.00000000
     atom   12 type  2   force =     0.00000000    0.00000000    0.00000000
     atom   13 type  1   force =     0.00000000    0.00000000    0.00000000
     atom   14 type  2   force =     0.00000000    0.00000000    0.00000000
     atom   15 type  2   force =     0.00000000    0.00000000    0.00000000
     atom   16 type  1   force =     0.00000000    0.00000000    0.00000000
     atom   17 type  2   force =     0.00000000    0.00000000    0.00000000
     atom   18 type  2   force =     0.00000000    0.00000000    0.00000000
     atom   19 type  1   force =     0.00000000    0.00000000    0.00000000
     atom   20 type  2   force =     0.00000000    0.00000000    0.00000000
     atom   21 type  1   force =     0.00000000    0.00000000    0.00000000
     atom   22 type  2   force =     0.00000000    0.00000000    0.00000000
     atom   23 type  2   force =     0.00000000    0.00000000    0.00000000
     atom   24 type  1   force =     0.00000000    0.00000000    0.00000000
     atom   25 type  2   force =     0.00000000    0.00000000    0.00000000
     atom   26 type  2   force =     0.00000000    0.00000000    0.00000000
     atom   27 type  1   force =     0.00000000    0.00000000    0.00000000
     atom   28 type  2   force =     0.00000000    0.00000000    0.00000000
     atom   29 type  2   force =     0.00000000    0.00000000    0.00000000
     atom   30 type  1   force =     0.00000000    0.00000000    0.00000000
     atom   31 type  2   force =     0.00000000    0.00000000    0.00000000
     atom   32 type  2   force =     0.00000000    0.00000000    0.00000000
     atom   33 type  1   force =     0.00000000    0.00000000    0.00000000
     atom   34 type  2   force =     0.00000000    0.00000000    0.00000000
     atom   35 type  2   force =     0.00000000    0.00000000    0.00000000
     atom   36 type  3   force =     0.00000000    0.00000000    0.00000000
     The SCF correction term to forces
     atom    1 type  1   force =    -0.00003466   -0.00011207   -0.00106227
     atom    2 type  2   force =     0.00001529    0.00003625   -0.00049030
     atom    3 type  2   force =    -0.00001102    0.00003113   -0.00019028
     atom    4 type  1   force =     0.00003062   -0.00010271   -0.00092949
     atom    5 type  2   force =     0.00000796    0.00002017   -0.00052116
     atom    6 type  2   force =     0.00001462   -0.00004423   -0.00015309
     atom    7 type  1   force =    -0.00012074    0.00007852   -0.00097779
     atom    8 type  2   force =    -0.00000354   -0.00003877   -0.00050387
     atom    9 type  2   force =    -0.00001754   -0.00001702   -0.00015317
     atom   10 type  1   force =    -0.00003784    0.00013873   -0.00102597
     atom   11 type  2   force =    -0.00006737    0.00001017   -0.00051192
     atom   12 type  2   force =    -0.00004942    0.00002401   -0.00017312
     atom   13 type  1   force =    -0.00007456   -0.00007258   -0.00094347
     atom   14 type  2   force =    -0.00004668    0.00000421   -0.00052939
     atom   15 type  2   force =    -0.00001457    0.00000913   -0.00017618
     atom   16 type  1   force =    -0.00010138   -0.00003610   -0.00098047
     atom   17 type  2   force =    -0.00005085   -0.00003681   -0.00047899
     atom   18 type  2   force =    -0.00001744   -0.00004209   -0.00014263
     atom   19 type  1   force =     0.00000237    0.00002050   -0.00097372
     atom   20 type  2   force =    -0.00005290    0.00003916   -0.00011854
     atom   21 type  1   force =    -0.00006401   -0.00001331   -0.00097004
     atom   22 type  2   force =     0.00004678   -0.00002103   -0.00056858
     atom   23 type  2   force =     0.00002383   -0.00002055   -0.00013134
     atom   24 type  1   force =     0.00008322   -0.00003788   -0.00096466
     atom   25 type  2   force =     0.00002565    0.00007956   -0.00051555
     atom   26 type  2   force =     0.00002905    0.00003075   -0.00015803
     atom   27 type  1   force =     0.00009010   -0.00006559   -0.00081484
     atom   28 type  2   force =     0.00003738   -0.00004175   -0.00046913
     atom   29 type  2   force =    -0.00000057   -0.00004580   -0.00015608
     atom   30 type  1   force =     0.00012055   -0.00002107   -0.00095417
     atom   31 type  2   force =     0.00006156   -0.00003628   -0.00055005
     atom   32 type  2   force =     0.00007342    0.00002506   -0.00011215
     atom   33 type  1   force =     0.00010120    0.00010772   -0.00099876
     atom   34 type  2   force =     0.00001539    0.00003812   -0.00053898
     atom   35 type  2   force =     0.00002576    0.00001883   -0.00017203
     atom   36 type  3   force =    -0.00000332   -0.00001439   -0.00004436

     Total force =     0.143088     Total SCF correction =     0.003832

     BFGS Geometry Optimization
     Energy error            =      0.0E+00 Ry
     Gradient error          =      5.5E-02 Ry/Bohr

     number of scf cycles    =   1
     number of bfgs steps    =   0

     energy             new  =   -2205.5287303933 Ry

     new trust radius        =       0.0650310465 bohr
     new conv_thr            =       0.0000010000 Ry


ATOMIC_POSITIONS (angstrom)
Mo            6.5871240224        1.7608068255        2.8064053669
S             8.1723711512        0.8164199312        4.4354234037
S             8.1864423848        0.8168369187        1.2765242029
Mo            8.1079537639        4.4936430243        2.7105766446
S             6.4904347136        3.7156158227        4.3757473756
S             6.5557696374        3.5168905114        1.1223160277
Mo            6.4903686759        7.2186841123        2.6669561094
S             8.0819164555        6.3429713882        4.2538448164
S             8.0895040456        6.3058286648        1.0897100784
Mo            8.1535852387        9.9071541043        2.8291131897
S             6.4975167304        8.9408406394        4.3804765379
S             6.6172013829        9.0492397401        1.1431932717
Mo            3.4253239540        1.7495053313        2.7722984877
S             4.9733075726        0.8136495354        4.3587684124
S             5.0518089649        0.8478305675        1.2226030496
Mo            4.9742984452        4.5113700750        2.6357968055
S             3.4299075662        3.6733705603        4.2780628242
S             3.4371289105        3.5453143221        1.0665041063
Mo            3.4590118048        7.2150435210        2.6299431918
S             4.9841619423        6.3237278758        1.0376571630
Mo            5.0114388472        9.9038428766        2.7426924688
S             3.4697459781        8.9420685150        4.3240024129
S             3.4082727907        9.0658808117        1.1006700950
Mo            0.2904563081        1.7460465375        2.8373399457
S             1.8588957997        0.8028037129        4.4019247699
S             1.8544251998        0.8544394230        1.2073353808
Mo            1.8562964686        4.4942217427        2.6664706514
S             0.2739663974        3.6550494896        4.3329369790
S             0.2313573164        3.5276444909        1.1703587038
Mo            0.2685907357        7.2216144582        2.6987272731
S             1.9030174811        6.3124570597        4.2310307226
S             1.8570642415        6.3126009116        1.0484412978
Mo            1.8515288048        9.9378920573        2.7685514617
S             0.2976078686        9.0669433564        4.4080819454
S             0.2724839339        9.0469150766        1.1586122135
H             6.3065681445        2.4544268639        5.1016501896



     Writing config-only to output data dir ./MoS2-V-O.save/
     NEW-OLD atomic charge density approx. for the potential

     negative rho (up, down):  1.452E-04 0.000E+00

     total cpu time spent up to now is       83.2 secs

     Self-consistent Calculation

     iteration #  1     ecut=    80.00 Ry     beta= 0.70
     Davidson diagonalization with overlap
     ethr =  1.00E-06,  avg # of iterations =  8.0

     negative rho (up, down):  1.238E-04 0.000E+00

     total cpu time spent up to now is      103.7 secs

     total energy              =   -2205.54517901 Ry
     estimated scf accuracy    <       0.00228094 Ry

     iteration #  2     ecut=    80.00 Ry     beta= 0.70
     Davidson diagonalization with overlap
     ethr =  7.43E-07,  avg # of iterations =  2.0

     negative rho (up, down):  1.165E-04 0.000E+00

     total cpu time spent up to now is      117.6 secs

     total energy              =   -2205.54522610 Ry
     estimated scf accuracy    <       0.00044668 Ry

     iteration #  3     ecut=    80.00 Ry     beta= 0.70
     Davidson diagonalization with overlap
     ethr =  1.45E-07,  avg # of iterations =  6.0

     negative rho (up, down):  1.130E-04 0.000E+00

     total cpu time spent up to now is      131.1 secs

     total energy              =   -2205.54526667 Ry
     estimated scf accuracy    <       0.00012368 Ry

     iteration #  4     ecut=    80.00 Ry     beta= 0.70
     Davidson diagonalization with overlap
     ethr =  4.03E-08,  avg # of iterations =  2.0

     negative rho (up, down):  1.096E-04 0.000E+00

     total cpu time spent up to now is      149.4 secs

     total energy              =   -2205.54528268 Ry
     estimated scf accuracy    <       0.00001464 Ry

     iteration #  5     ecut=    80.00 Ry     beta= 0.70
     Davidson diagonalization with overlap
     ethr =  4.77E-09,  avg # of iterations = 11.0

     negative rho (up, down):  1.057E-04 0.000E+00

     total cpu time spent up to now is      170.8 secs

     total energy              =   -2205.54528649 Ry
     estimated scf accuracy    <       0.00000429 Ry

     iteration #  6     ecut=    80.00 Ry     beta= 0.70
     Davidson diagonalization with overlap
     ethr =  1.40E-09,  avg # of iterations =  2.0

     negative rho (up, down):  1.378E-04 0.000E+00

     total cpu time spent up to now is      173.0 secs

     End of self-consistent calculation

          k = 0.0000 0.0000 0.0000 (105382 PWs)   bands (ev):

   -62.9206 -62.8866 -62.8525 -62.8420 -62.8236 -62.8005 -62.7942 -62.7693
   -62.7453 -62.6638 -62.5912 -62.5728 -37.2150 -37.1584 -37.1369 -37.1241
   -37.1093 -37.0962 -37.0900 -37.0803 -37.0580 -37.0463 -37.0399 -37.0275
   -37.0106 -37.0049 -36.9998 -36.9881 -36.9842 -36.9795 -36.9698 -36.9563
   -36.9258 -36.9032 -36.8991 -36.8652 -36.8576 -36.8520 -36.8378 -36.8234
   -36.8102 -36.8069 -36.7878 -36.7642 -36.7450 -36.7061 -36.5789 -36.5660
   -16.1714 -15.6361 -15.1122 -15.0469 -14.9067 -14.8551 -14.6807 -14.4605
   -14.4089 -14.3990 -14.3716 -14.3312 -14.2863 -14.2736 -14.1768 -14.0971
   -14.0815 -14.0738 -14.0076 -13.8559 -13.7932 -13.7859 -13.7745  -8.8719
    -7.5545  -7.4128  -7.2822  -7.2526  -7.2263  -7.1817  -7.1614  -7.0828
    -6.8002  -6.7603  -6.7227  -6.6771  -6.6237  -6.4906  -6.4345  -6.3836
    -6.3014  -6.2257  -6.1334  -5.9464  -5.9210  -5.8883  -5.8484  -5.7529
    -5.7428  -5.6946  -5.6647  -5.6299  -5.5897  -5.5471  -5.5277  -5.4542
    -5.3678  -5.3480  -5.1537  -5.1147  -5.0300  -4.9911  -4.9518  -4.9468
    -4.9092  -4.7988  -4.6762  -4.5010  -4.4081  -4.3048  -4.2524  -4.1945
    -4.1566  -4.0720  -4.0015  -3.8459  -3.8107  -3.8000  -3.7112  -3.6566
    -3.5991  -3.5657  -3.5276  -3.5032  -3.4504  -3.4407  -3.4129  -3.3530
    -3.3340  -3.1629  -3.1449  -2.8734  -2.8416  -2.7722  -2.7565  -2.6983
    -2.6873  -2.6558  -2.6231  -2.5676  -2.5214  -2.2314  -1.9900  -1.9673
    -1.8520  -0.8229  -0.6571  -0.4789  -0.1780  -0.1173  -0.0741  -0.0019
     0.0705   0.1595   0.1834   0.2379   0.2928   0.3109   0.4274   0.4935
     0.5312   0.5677   0.5939   0.6560   0.6613   0.6872   0.7287   0.7610
     0.8012   0.8412   0.8703   0.9073   0.9713   1.0344   1.0792   1.1589
     1.4107

     the Fermi energy is    -0.8314 ev

!    total energy              =   -2205.54528645 Ry
     estimated scf accuracy    <       0.00000093 Ry
     smearing contrib. (-TS)   =      -0.00672069 Ry
     internal energy E=F+TS    =   -2205.53856576 Ry

     The total energy is F=E-TS. E is the sum of the following terms:
     one-electron contribution =  -18053.50258635 Ry
     hartree contribution      =    9013.82968529 Ry
     xc contribution           =    -385.33501338 Ry
     ewald contribution        =    7219.46934868 Ry

     convergence has been achieved in   6 iterations

     negative rho (up, down):  1.378E-04 0.000E+00

     Forces acting on atoms (cartesian axes, Ry/au):

     atom    1 type  1   force =     0.00970208   -0.02786661   -0.01589460
     atom    2 type  2   force =    -0.00487827    0.00695890   -0.00259049
     atom    3 type  2   force =    -0.00847661    0.00571589   -0.01370043
     atom    4 type  1   force =     0.01134487   -0.00138462   -0.00109456
     atom    5 type  2   force =    -0.00771563   -0.00442415    0.03433096
     atom    6 type  2   force =     0.00477817    0.00570644    0.00430727
     atom    7 type  1   force =     0.00358788   -0.00145369   -0.00277379
     atom    8 type  2   force =     0.00004394   -0.00293436    0.01289390
     atom    9 type  2   force =     0.01389788    0.00194391    0.00689494
     atom   10 type  1   force =    -0.00450181    0.00728503   -0.00891545
     atom   11 type  2   force =     0.00331814   -0.00283972   -0.00689525
     atom   12 type  2   force =    -0.00308772    0.00085800    0.00011723
     atom   13 type  1   force =     0.00471883    0.00265476   -0.00260432
     atom   14 type  2   force =    -0.00018161   -0.00564919    0.00659550
     atom   15 type  2   force =    -0.01000891   -0.00036444   -0.01071620
     atom   16 type  1   force =    -0.00653862   -0.00312618    0.00672389
     atom   17 type  2   force =     0.00186530    0.00224699   -0.00119057
     atom   18 type  2   force =    -0.00170130   -0.00340072    0.01157462
     atom   19 type  1   force =     0.00676980   -0.00418914    0.00238813
     atom   20 type  2   force =     0.00173781   -0.00667247   -0.00094777
     atom   21 type  1   force =    -0.00303032    0.00270642    0.00251304
     atom   22 type  2   force =    -0.00062307   -0.00277376   -0.00311677
     atom   23 type  2   force =     0.00092555    0.00047365    0.00444816
     atom   24 type  1   force =    -0.00677118   -0.00159666   -0.00927477
     atom   25 type  2   force =     0.01103354    0.01487394   -0.00037090
     atom   26 type  2   force =    -0.00785343   -0.00070603   -0.00515496
     atom   27 type  1   force =    -0.00465092   -0.00237560    0.00920563
     atom   28 type  2   force =     0.00184282   -0.00099335   -0.00804514
     atom   29 type  2   force =     0.00213861    0.00128585   -0.00693140
     atom   30 type  1   force =    -0.00275052    0.00189409    0.00333886
     atom   31 type  2   force =     0.00081987    0.00083339    0.01050268
     atom   32 type  2   force =    -0.00759477    0.00377002    0.00676488
     atom   33 type  1   force =     0.00608324   -0.00104469    0.00067210
     atom   34 type  2   force =     0.00039542   -0.03180053   -0.01553796
     atom   35 type  2   force =    -0.00596614    0.00703802    0.00830446
     atom   36 type  3   force =     0.00132708    0.03935062   -0.01582093
     The non-local contrib.  to forces
     atom    1 type  1   force =    -0.00276075    0.02414328   -0.01895243
     atom    2 type  2   force =    -0.00452091   -0.00490165   -0.25689916
     atom    3 type  2   force =    -0.01200336   -0.00793154    0.26516202
     atom    4 type  1   force =     0.00280592    0.00934962   -0.00592629
     atom    5 type  2   force =    -0.03115291   -0.30774478   -0.07013071
     atom    6 type  2   force =    -0.00003333    0.00504734    0.26927899
     atom    7 type  1   force =    -0.02643767   -0.00504575   -0.01217372
     atom    8 type  2   force =     0.00246908    0.00222656   -0.25380965
     atom    9 type  2   force =     0.00825395   -0.01443672    0.27720611
     atom   10 type  1   force =     0.00495025   -0.00484446   -0.00426900
     atom   11 type  2   force =     0.01188145    0.00649581   -0.26029612
     atom   12 type  2   force =    -0.01300860   -0.01516866    0.25898869
     atom   13 type  1   force =    -0.00189243    0.01970091   -0.00597353
     atom   14 type  2   force =     0.02118316   -0.00530956   -0.23893035
     atom   15 type  2   force =    -0.00858872   -0.00722889    0.25898705
     atom   16 type  1   force =     0.00747290    0.04660504   -0.02318040
     atom   17 type  2   force =     0.00041401   -0.03110446   -0.24953329
     atom   18 type  2   force =     0.00145741   -0.00014425    0.26967752
     atom   19 type  1   force =     0.02232464   -0.00901278   -0.01255839
     atom   20 type  2   force =    -0.00156441   -0.02118744    0.26268943
     atom   21 type  1   force =     0.00173400    0.01286724    0.00247509
     atom   22 type  2   force =    -0.00550939    0.00351585   -0.26000201
     atom   23 type  2   force =     0.00905474   -0.01370228    0.26419367
     atom   24 type  1   force =     0.00645689    0.01246654   -0.01231797
     atom   25 type  2   force =     0.00590073    0.00384336   -0.26288248
     atom   26 type  2   force =     0.00011590   -0.01175618    0.26513886
     atom   27 type  1   force =    -0.00048865    0.01611211    0.00957440
     atom   28 type  2   force =    -0.00363470   -0.02466496   -0.27419083
     atom   29 type  2   force =     0.00299908    0.00428882    0.26060676
     atom   30 type  1   force =     0.00103157    0.01939305    0.00939195
     atom   31 type  2   force =    -0.00694516    0.00227082   -0.25625746
     atom   32 type  2   force =    -0.00413872   -0.01472523    0.27157014
     atom   33 type  1   force =    -0.00301734    0.00343185    0.00519283
     atom   34 type  2   force =    -0.00385219   -0.02887354   -0.27780643
     atom   35 type  2   force =    -0.00215293   -0.01097498    0.26843151
     atom   36 type  3   force =     0.00485501    0.03793566   -0.02563033
     The ionic contribution  to forces
     atom    1 type  1   force =     0.15730280    0.64630605    4.00292945
     atom    2 type  2   force =    -0.19462982    0.04404466   39.29832668
     atom    3 type  2   force =     0.01971947   -0.05391164  -36.35026215
     atom    4 type  1   force =    -0.28683407    0.83683597    0.38660891
     atom    5 type  2   force =    -0.67462431    2.76821528   37.97777780
     atom    6 type  2   force =     0.26146969   -0.37834361  -37.93689139
     atom    7 type  1   force =    -2.55592393   -2.93556195    2.42982814
     atom    8 type  2   force =    -1.00719300    0.06777145   37.44826831
     atom    9 type  2   force =     0.27685421   -0.02764552  -37.94855304
     atom   10 type  1   force =    -0.64489268   -0.64657608    5.33178871
     atom   11 type  2   force =    -0.51642532   -1.71248353   39.14688006
     atom   12 type  2   force =     0.37527673    0.57158404  -37.89277818
     atom   13 type  1   force =     0.17199608    0.85600747    2.57634649
     atom   14 type  2   force =    -0.30068100   -0.36982200   38.40849993
     atom   15 type  2   force =     0.02205767   -0.07441220  -36.97467392
     atom   16 type  1   force =     0.24666709    4.17067651    0.41569870
     atom   17 type  2   force =     0.60105243    1.57000960   37.88856901
     atom   18 type  2   force =    -0.19680494   -0.54654892  -38.53606833
     atom   19 type  1   force =     2.58428193   -2.50570462    0.67838216
     atom   20 type  2   force =     0.22121114   -0.22811954  -38.48165201
     atom   21 type  1   force =    -0.15716402   -0.24777472    1.21975686
     atom   22 type  2   force =     0.40963460   -1.75538626   38.46747314
     atom   23 type  2   force =    -0.09809789    0.59059377  -38.27529057
     atom   24 type  1   force =    -0.08259317    0.93277376    5.44749235
     atom   25 type  2   force =     0.50899288    0.17322485   39.23903276
     atom   26 type  2   force =    -0.23865187    0.03409377  -37.31976654
     atom   27 type  1   force =     0.12461769    0.62731725   -1.96758371
     atom   28 type  2   force =     0.13400433    0.98850636   38.20284942
     atom   29 type  2   force =    -0.15473133   -0.36919324  -37.38386248
     atom   30 type  1   force =    -0.23425992   -0.96247395   -0.01987956
     atom   31 type  2   force =     1.21831757    0.03236996   37.38434545
     atom   32 type  2   force =    -0.41774242   -0.01664899  -38.54819027
     atom   33 type  1   force =     0.58625631   -0.76654124    2.17047994
     atom   34 type  2   force =     0.21846349   -1.27986037   39.27129715
     atom   35 type  2   force =    -0.21611889    0.45460503  -37.73120276
     atom   36 type  3   force =    -0.16080754   -0.48792738    7.97402348
     The local contribution  to forces
     atom    1 type  1   force =    -0.14461114   -0.69938721   -4.00095825
     atom    2 type  2   force =     0.19414468   -0.03231561  -39.06435692
     atom    3 type  2   force =    -0.01681763    0.06722985   36.09210765
     atom    4 type  1   force =     0.29554339   -0.84711851   -0.38250218
     atom    5 type  2   force =     0.69626562   -2.48434666  -37.88160974
     atom    6 type  2   force =    -0.25668849    0.37959322   37.69271920
     atom    7 type  1   force =     2.58604552    2.93967715   -2.42072936
     atom    8 type  2   force =     1.00472833   -0.07295618  -37.20214422
     atom    9 type  2   force =    -0.27102752    0.04331643   37.69924619
     atom   10 type  1   force =     0.63551295    0.65866320   -5.33675852
     atom   11 type  2   force =     0.50847565    1.70382031  -38.91449176
     atom   12 type  2   force =    -0.36653331   -0.55673141   37.65449216
     atom   13 type  1   force =    -0.16550548   -0.87382455   -2.57366479
     atom   14 type  2   force =     0.28067483    0.36987457  -38.18251025
     atom   15 type  2   force =    -0.02394273    0.08067920   36.72527966
     atom   16 type  1   force =    -0.26057830   -4.22011273   -0.38667443
     atom   17 type  2   force =    -0.59963984   -1.53847216  -37.66074305
     atom   18 type  2   force =     0.19376558    0.54368986   38.29851800
     atom   19 type  1   force =    -2.59978619    2.51117301   -0.66380890
     atom   20 type  2   force =    -0.21802871    0.24205531   38.23893089
     atom   21 type  1   force =     0.15240215    0.23741244   -1.22031829
     atom   22 type  2   force =    -0.40486596    1.74969804  -38.23157595
     atom   23 type  2   force =     0.09067287   -0.57744656   38.03616524
     atom   24 type  1   force =     0.06940188   -0.94773084   -5.44500466
     atom   25 type  2   force =    -0.50404196   -0.16200102  -38.99762732
     atom   26 type  2   force =     0.23088527   -0.02380430   37.07026934
     atom   27 type  1   force =    -0.12903871   -0.64556602    1.96658127
     atom   28 type  2   force =    -0.12886007   -0.96669667  -37.95795967
     atom   29 type  2   force =     0.15421639    0.36667260   37.13660301
     atom   30 type  1   force =     0.23034195    0.94554034    0.01362159
     atom   31 type  2   force =    -1.21104794   -0.03358828  -37.13852358
     atom   32 type  2   force =     0.41432169    0.03446279   38.30421320
     atom   33 type  1   force =    -0.57726151    0.76219808   -2.17536846
     atom   34 type  2   force =    -0.21477258    1.27623270  -39.03070915
     atom   35 type  2   force =     0.21237844   -0.43745155   37.49201109
     atom   36 type  3   force =     0.15728519    0.48928640   -7.96428350
     The core correction contribution to forces
     atom    1 type  1   force =     0.00000000    0.00000000    0.00000000
     atom    2 type  2   force =     0.00036569   -0.00020514    0.01994153
     atom    3 type  2   force =     0.00069291    0.00017945   -0.02089799
     atom    4 type  1   force =     0.00000000    0.00000000    0.00000000
     atom    5 type  2   force =     0.00193771    0.01956339    0.00788889
     atom    6 type  2   force =     0.00003608   -0.00068718   -0.02107287
     atom    7 type  1   force =     0.00000000    0.00000000    0.00000000
     atom    8 type  2   force =     0.00000672    0.00032799    0.02020130
     atom    9 type  2   force =    -0.00028056    0.00090655   -0.02107403
     atom   10 type  1   force =     0.00000000    0.00000000    0.00000000
     atom   11 type  2   force =    -0.00051870   -0.00070252    0.02058020
     atom   12 type  2   force =     0.00110003    0.00120905   -0.02068026
     atom   13 type  1   force =     0.00000000    0.00000000    0.00000000
     atom   14 type  2   force =    -0.00146102   -0.00067947    0.01907658
     atom   15 type  2   force =     0.00041471    0.00040450   -0.02056098
     atom   16 type  1   force =     0.00000000    0.00000000    0.00000000
     atom   17 type  2   force =    -0.00011313    0.00166403    0.02017274
     atom   18 type  2   force =    -0.00018442   -0.00052281   -0.02086423
     atom   19 type  1   force =     0.00000000    0.00000000    0.00000000
     atom   20 type  2   force =     0.00018824    0.00080316   -0.02107953
     atom   21 type  1   force =     0.00000000    0.00000000    0.00000000
     atom   22 type  2   force =     0.00010955   -0.00055451    0.02057381
     atom   23 type  2   force =    -0.00063415    0.00112756   -0.02077753
     atom   24 type  1   force =     0.00000000    0.00000000    0.00000000
     atom   25 type  2   force =     0.00000029   -0.00040542    0.02065424
     atom   26 type  2   force =    -0.00023060    0.00060809   -0.02092009
     atom   27 type  1   force =     0.00000000    0.00000000    0.00000000
     atom   28 type  2   force =     0.00034757    0.00171773    0.02095022
     atom   29 type  2   force =    -0.00029607   -0.00063809   -0.02053907
     atom   30 type  1   force =     0.00000000    0.00000000    0.00000000
     atom   31 type  2   force =     0.00041596    0.00008413    0.02051974
     atom   32 type  2   force =    -0.00001205    0.00082760   -0.02089749
     atom   33 type  1   force =     0.00000000    0.00000000    0.00000000
     atom   34 type  2   force =     0.00046231    0.00085596    0.02126323
     atom   35 type  2   force =    -0.00005157    0.00098270   -0.02103051
     atom   36 type  3   force =     0.00000000    0.00000000    0.00000000
     The Hubbard contrib.    to forces
     atom    1 type  1   force =     0.00000000    0.00000000    0.00000000
     atom    2 type  2   force =     0.00000000    0.00000000    0.00000000
     atom    3 type  2   force =     0.00000000    0.00000000    0.00000000
     atom    4 type  1   force =     0.00000000    0.00000000    0.00000000
     atom    5 type  2   force =     0.00000000    0.00000000    0.00000000
     atom    6 type  2   force =     0.00000000    0.00000000    0.00000000
     atom    7 type  1   force =     0.00000000    0.00000000    0.00000000
     atom    8 type  2   force =     0.00000000    0.00000000    0.00000000
     atom    9 type  2   force =     0.00000000    0.00000000    0.00000000
     atom   10 type  1   force =     0.00000000    0.00000000    0.00000000
     atom   11 type  2   force =     0.00000000    0.00000000    0.00000000
     atom   12 type  2   force =     0.00000000    0.00000000    0.00000000
     atom   13 type  1   force =     0.00000000    0.00000000    0.00000000
     atom   14 type  2   force =     0.00000000    0.00000000    0.00000000
     atom   15 type  2   force =     0.00000000    0.00000000    0.00000000
     atom   16 type  1   force =     0.00000000    0.00000000    0.00000000
     atom   17 type  2   force =     0.00000000    0.00000000    0.00000000
     atom   18 type  2   force =     0.00000000    0.00000000    0.00000000
     atom   19 type  1   force =     0.00000000    0.00000000    0.00000000
     atom   20 type  2   force =     0.00000000    0.00000000    0.00000000
     atom   21 type  1   force =     0.00000000    0.00000000    0.00000000
     atom   22 type  2   force =     0.00000000    0.00000000    0.00000000
     atom   23 type  2   force =     0.00000000    0.00000000    0.00000000
     atom   24 type  1   force =     0.00000000    0.00000000    0.00000000
     atom   25 type  2   force =     0.00000000    0.00000000    0.00000000
     atom   26 type  2   force =     0.00000000    0.00000000    0.00000000
     atom   27 type  1   force =     0.00000000    0.00000000    0.00000000
     atom   28 type  2   force =     0.00000000    0.00000000    0.00000000
     atom   29 type  2   force =     0.00000000    0.00000000    0.00000000
     atom   30 type  1   force =     0.00000000    0.00000000    0.00000000
     atom   31 type  2   force =     0.00000000    0.00000000    0.00000000
     atom   32 type  2   force =     0.00000000    0.00000000    0.00000000
     atom   33 type  1   force =     0.00000000    0.00000000    0.00000000
     atom   34 type  2   force =     0.00000000    0.00000000    0.00000000
     atom   35 type  2   force =     0.00000000    0.00000000    0.00000000
     atom   36 type  3   force =     0.00000000    0.00000000    0.00000000
     The SCF correction term to forces
     atom    1 type  1   force =    -0.00022932    0.00107115    0.00108033
     atom    2 type  2   force =    -0.00023842    0.00033650    0.00039108
     atom    3 type  2   force =    -0.00006852    0.00014964    0.00018374
     atom    4 type  1   force =    -0.00017088   -0.00045182    0.00071870
     atom    5 type  2   force =    -0.00014225   -0.00011151    0.00039842
     atom    6 type  2   force =    -0.00000629    0.00009656    0.00026704
     atom    7 type  1   force =    -0.00009654   -0.00052327    0.00029486
     atom    8 type  2   force =     0.00003230   -0.00030431    0.00037185
     atom    9 type  2   force =     0.00009730   -0.00019695    0.00006341
     atom   10 type  1   force =    -0.00007284    0.00004225    0.00031705
     atom   11 type  2   force =    -0.00009543    0.00003008    0.00042607
     atom   12 type  2   force =     0.00007693   -0.00003513    0.00008852
     atom   13 type  1   force =     0.00012014    0.00077080    0.00068121
     atom   14 type  2   force =     0.00010192    0.00028713    0.00045329
     atom   15 type  2   force =     0.00004966    0.00019282    0.00024568
     atom   16 type  1   force =    -0.00010082   -0.00029512    0.00087372
     atom   17 type  2   force =     0.00015132    0.00014986    0.00033772
     atom   18 type  2   force =     0.00006455    0.00012528    0.00030536
     atom   19 type  1   force =    -0.00005109   -0.00064488    0.00036696
     atom   20 type  2   force =    -0.00006896   -0.00022409    0.00015715
     atom   21 type  1   force =    -0.00000296    0.00020133    0.00059308
     atom   22 type  2   force =     0.00000762   -0.00004700    0.00040794
     atom   23 type  2   force =    -0.00007053   -0.00009896    0.00015104
     atom   24 type  1   force =    -0.00003729    0.00089375    0.00054922
     atom   25 type  2   force =     0.00018110    0.00021205    0.00044561
     atom   26 type  2   force =     0.00002736    0.00015246    0.00011717
     atom   27 type  1   force =     0.00025824   -0.00023907    0.00062737
     atom   28 type  2   force =    -0.00001482    0.00014407    0.00029942
     atom   29 type  2   force =    -0.00004996    0.00015563    0.00025408
     atom   30 type  1   force =     0.00013538   -0.00056548    0.00019857
     atom   31 type  2   force =     0.00007893   -0.00030337    0.00041223
     atom   32 type  2   force =    -0.00002378   -0.00014628    0.00006300
     atom   33 type  1   force =     0.00010527   -0.00013349    0.00036148
     atom   34 type  2   force =     0.00009389   -0.00015541    0.00041096
     atom   35 type  2   force =    -0.00002169   -0.00012331    0.00008883
     atom   36 type  3   force =    -0.00000609    0.00005581    0.00006312

     Total force =     0.093225     Total SCF correction =     0.003432
     Energy error            =      1.7E-02 Ry
     Gradient error          =      3.9E-02 Ry/Bohr

     number of scf cycles    =   2
     number of bfgs steps    =   1

     energy             old  =   -2205.5287303933 Ry
     energy             new  =   -2205.5452864532 Ry

     CASE: energy            _new < energy            _old

     new trust radius        =       0.0715341512 bohr
     new conv_thr            =       0.0000000394 Ry


ATOMIC_POSITIONS (angstrom)
Mo            6.5969216488        1.7343880501        2.7909895667
S             8.1678196553        0.8230122811        4.4336085661
S             8.1786747185        0.8222666262        1.2657854708
Mo            8.1190489791        4.4923166736        2.7083717507
S             6.4827424810        3.7109477189        4.4075061184
S             6.5598823125        3.5222294890        1.1258070669
Mo            6.4931868046        7.2176185132        2.6639032870
S             8.0819857080        6.3405564651        4.2658593164
S             8.1017585558        6.3075286199        1.0960894358
Mo            8.1488127500        9.9136669926        2.8195826227
S             6.5004989969        8.9382740609        4.3747046127
S             6.6146981626        9.0499959929        1.1439034538
Mo            3.4296262129        1.7520178782        2.7695180234
S             4.9728177923        0.8087058262        4.3653696412
S             5.0430135835        0.8478479108        1.2136384034
Mo            4.9682651283        4.5086368698        2.6414911132
S             3.4317247928        3.6754241093        4.2768409708
S             3.4356777699        3.5421621405        1.0768991636
Mo            3.4651637986        7.2115965531        2.6316317890
S             4.9856667106        6.3180177418        1.0370082106
Mo            5.0089645815        9.9063370441        2.7444813870
S             3.4690403858        8.9396285847        4.3213177707
S             3.4089513888        9.0664114082        1.1049422988
Mo            0.2842118379        1.7445486930        2.8279581644
S             1.8689299755        0.8160926436        4.4023425662
S             1.8472128526        0.8539017969        1.2030013469
Mo            1.8519082159        4.4921313272        2.6746983771
S             0.2757072569        3.6544123541        4.3259042010
S             0.2330173576        3.5287029194        1.1647422526
Mo            0.2660026656        7.2240017842        2.7007211380
S             1.9037918999        6.3130301448        4.2406876335
S             1.8502765511        6.3159115289        1.0543500884
Mo            1.8575392415        9.9366684595        2.7682358101
S             0.2982304603        9.0382596915        4.3951011428
S             0.2671096954        9.0529398151        1.1665164399
H             6.3079727506        2.4894021466        5.0872383762



     Writing config-only to output data dir ./MoS2-V-O.save/
     NEW-OLD atomic charge density approx. for the potential

     negative rho (up, down):  1.490E-04 0.000E+00

     total cpu time spent up to now is      176.6 secs

     Self-consistent Calculation

     iteration #  1     ecut=    80.00 Ry     beta= 0.70
     Davidson diagonalization with overlap
     ethr =  1.00E-06,  avg # of iterations = 12.0

     negative rho (up, down):  1.323E-04 0.000E+00

     total cpu time spent up to now is      199.3 secs

     total energy              =   -2205.55618932 Ry
     estimated scf accuracy    <       0.00213231 Ry

     iteration #  2     ecut=    80.00 Ry     beta= 0.70
     Davidson diagonalization with overlap
     ethr =  6.95E-07,  avg # of iterations =  2.0

     negative rho (up, down):  1.243E-04 0.000E+00

     total cpu time spent up to now is      214.0 secs

     total energy              =   -2205.55625674 Ry
     estimated scf accuracy    <       0.00037020 Ry

     iteration #  3     ecut=    80.00 Ry     beta= 0.70
     Davidson diagonalization with overlap
     ethr =  1.21E-07,  avg # of iterations =  4.0

     negative rho (up, down):  1.179E-04 0.000E+00

     total cpu time spent up to now is      225.3 secs

     total energy              =   -2205.55630213 Ry
     estimated scf accuracy    <       0.00008806 Ry

     iteration #  4     ecut=    80.00 Ry     beta= 0.70
     Davidson diagonalization with overlap
     ethr =  2.87E-08,  avg # of iterations =  5.0

     negative rho (up, down):  1.134E-04 0.000E+00

     total cpu time spent up to now is      243.4 secs

     total energy              =   -2205.55631632 Ry
     estimated scf accuracy    <       0.00000677 Ry

     iteration #  5     ecut=    80.00 Ry     beta= 0.70
     Davidson diagonalization with overlap
     ethr =  2.21E-09,  avg # of iterations = 17.0

     negative rho (up, down):  1.111E-04 0.000E+00

     total cpu time spent up to now is      263.0 secs

     total energy              =   -2205.55631962 Ry
     estimated scf accuracy    <       0.00000222 Ry

     iteration #  6     ecut=    80.00 Ry     beta= 0.70
     Davidson diagonalization with overlap
     ethr =  7.23E-10,  avg # of iterations =  3.0

     negative rho (up, down):  1.111E-04 0.000E+00

     total cpu time spent up to now is      282.7 secs

     total energy              =   -2205.55631983 Ry
     estimated scf accuracy    <       0.00000032 Ry

     iteration #  7     ecut=    80.00 Ry     beta= 0.70
     Davidson diagonalization with overlap
     ethr =  1.03E-10,  avg # of iterations =  5.0

     negative rho (up, down):  1.131E-04 0.000E+00

     total cpu time spent up to now is      297.7 secs

     total energy              =   -2205.55631985 Ry
     estimated scf accuracy    <       0.00000006 Ry

     iteration #  8     ecut=    80.00 Ry     beta= 0.70
     Davidson diagonalization with overlap
     ethr =  1.94E-11,  avg # of iterations =  4.0

     negative rho (up, down):  1.384E-04 0.000E+00

     total cpu time spent up to now is      300.0 secs

     End of self-consistent calculation

          k = 0.0000 0.0000 0.0000 (105382 PWs)   bands (ev):

   -62.9254 -62.8778 -62.8440 -62.8383 -62.8235 -62.8005 -62.7843 -62.7673
   -62.7407 -62.6740 -62.5892 -62.5779 -37.2090 -37.1574 -37.1377 -37.1250
   -37.1070 -37.0907 -37.0864 -37.0735 -37.0520 -37.0406 -37.0327 -37.0236
   -37.0091 -37.0017 -36.9997 -36.9849 -36.9773 -36.9730 -36.9654 -36.9515
   -36.9231 -36.9027 -36.8959 -36.8684 -36.8587 -36.8515 -36.8385 -36.8256
   -36.8128 -36.8037 -36.7894 -36.7644 -36.7439 -36.7099 -36.5786 -36.5670
   -16.2021 -15.6692 -15.1083 -15.0572 -14.9129 -14.8407 -14.6765 -14.4633
   -14.4084 -14.3920 -14.3733 -14.3282 -14.2852 -14.2720 -14.1761 -14.1087
   -14.0793 -14.0698 -14.0074 -13.8550 -13.7981 -13.7863 -13.7718  -8.9055
    -7.5549  -7.4112  -7.2658  -7.2577  -7.2239  -7.1774  -7.1614  -7.0893
    -6.7966  -6.7595  -6.7162  -6.6777  -6.6094  -6.4967  -6.4354  -6.3802
    -6.2985  -6.2214  -6.1327  -5.9387  -5.9220  -5.8880  -5.8362  -5.7494
    -5.7437  -5.6902  -5.6591  -5.6235  -5.5923  -5.5446  -5.5227  -5.4535
    -5.3537  -5.3432  -5.1479  -5.1047  -5.0089  -4.9799  -4.9574  -4.9340
    -4.9206  -4.8090  -4.6698  -4.5034  -4.4136  -4.2942  -4.2508  -4.1974
    -4.1757  -4.0743  -4.0094  -3.8596  -3.8030  -3.7932  -3.7059  -3.6531
    -3.6091  -3.5708  -3.5256  -3.5041  -3.4529  -3.4425  -3.4087  -3.3494
    -3.3278  -3.1660  -3.1568  -2.8696  -2.8390  -2.7621  -2.7505  -2.6860
    -2.6800  -2.6642  -2.6300  -2.5606  -2.5227  -2.2248  -1.9876  -1.9644
    -1.8656  -0.8353  -0.6576  -0.4749  -0.1717  -0.1158  -0.0595  -0.0100
     0.0895   0.1681   0.1728   0.2470   0.3008   0.3183   0.4238   0.4958
     0.5326   0.5759   0.5996   0.6485   0.6739   0.6884   0.7191   0.7593
     0.8042   0.8695   0.8782   0.9110   0.9773   1.0410   1.0791   1.1821
     1.4066

     the Fermi energy is    -0.8420 ev

!    total energy              =   -2205.55631971 Ry
     estimated scf accuracy    <       0.00000002 Ry
     smearing contrib. (-TS)   =      -0.00653220 Ry
     internal energy E=F+TS    =   -2205.54978752 Ry

     The total energy is F=E-TS. E is the sum of the following terms:
     one-electron contribution =  -18051.96759991 Ry
     hartree contribution      =    9013.06711953 Ry
     xc contribution           =    -385.34978884 Ry
     ewald contribution        =    7218.70048170 Ry

     convergence has been achieved in   8 iterations

     negative rho (up, down):  1.384E-04 0.000E+00

     Forces acting on atoms (cartesian axes, Ry/au):

     atom    1 type  1   force =    -0.00252414   -0.00701884   -0.00469249
     atom    2 type  2   force =    -0.00199326    0.00207634   -0.00402636
     atom    3 type  2   force =    -0.00337365    0.00081060   -0.01860113
     atom    4 type  1   force =     0.00231365   -0.00005622    0.00471191
     atom    5 type  2   force =     0.00121127    0.01554354    0.01155666
     atom    6 type  2   force =     0.00403683    0.00187333    0.00677219
     atom    7 type  1   force =     0.00528079   -0.00323877   -0.00048559
     atom    8 type  2   force =    -0.00042488   -0.00377273    0.00696546
     atom    9 type  2   force =     0.01017110    0.00115436    0.00399173
     atom   10 type  1   force =     0.00068529    0.00475125   -0.00014779
     atom   11 type  2   force =     0.00228970   -0.00158499   -0.00637605
     atom   12 type  2   force =    -0.00378533    0.00076905   -0.00223283
     atom   13 type  1   force =     0.00211121    0.00011505   -0.00060687
     atom   14 type  2   force =     0.00203493   -0.00461070   -0.00001797
     atom   15 type  2   force =    -0.00775060   -0.00315619   -0.01028785
     atom   16 type  1   force =    -0.00211962   -0.00161533    0.00612584
     atom   17 type  2   force =    -0.00015907    0.00076999    0.00227163
     atom   18 type  2   force =    -0.00163719   -0.00112868    0.00761372
     atom   19 type  1   force =     0.00338836   -0.00537566    0.00340258
     atom   20 type  2   force =     0.00209069   -0.00669197   -0.00042013
     atom   21 type  1   force =    -0.00312358    0.00074265    0.00141980
     atom   22 type  2   force =     0.00046626   -0.00230710   -0.00118422
     atom   23 type  2   force =     0.00132011   -0.00106868    0.00251168
     atom   24 type  1   force =    -0.00388502   -0.00043386   -0.00342904
     atom   25 type  2   force =     0.00580348    0.00981949   -0.00405472
     atom   26 type  2   force =    -0.00342552   -0.00118901   -0.00360383
     atom   27 type  1   force =    -0.00104880   -0.00116232    0.00419418
     atom   28 type  2   force =     0.00032634   -0.00282726   -0.00452856
     atom   29 type  2   force =     0.00270081    0.00164460   -0.00681977
     atom   30 type  1   force =    -0.00069877   -0.00345863    0.00587888
     atom   31 type  2   force =     0.00085771    0.00085029    0.00651103
     atom   32 type  2   force =    -0.00450598    0.00289120    0.00692526
     atom   33 type  1   force =     0.00025170    0.00091925    0.00331994
     atom   34 type  2   force =    -0.00135959   -0.01813754   -0.01335990
     atom   35 type  2   force =    -0.00317304    0.00570520    0.00365709
     atom   36 type  3   force =    -0.00235217    0.01839828   -0.00295449
     The non-local contrib.  to forces
     atom    1 type  1   force =    -0.00082648    0.01736653   -0.01856283
     atom    2 type  2   force =    -0.00147188   -0.00964353   -0.25530495
     atom    3 type  2   force =    -0.00651485   -0.01211333    0.25938426
     atom    4 type  1   force =     0.00602234    0.01032442   -0.00691143
     atom    5 type  2   force =    -0.02844554   -0.29976527   -0.09461277
     atom    6 type  2   force =    -0.00036587   -0.00050055    0.27257383
     atom    7 type  1   force =    -0.02557103   -0.00479145   -0.01281342
     atom    8 type  2   force =     0.00220356    0.00264560   -0.25688490
     atom    9 type  2   force =     0.00483635   -0.01482846    0.27547131
     atom   10 type  1   force =     0.00369322   -0.00456004   -0.00408647
     atom   11 type  2   force =     0.01050146    0.00725422   -0.26026021
     atom   12 type  2   force =    -0.01269015   -0.01508130    0.25761098
     atom   13 type  1   force =    -0.00065522    0.02030902   -0.00639968
     atom   14 type  2   force =     0.01776475   -0.00854835   -0.24373052
     atom   15 type  2   force =    -0.00608330   -0.00907278    0.25820945
     atom   16 type  1   force =     0.00796133    0.04666393   -0.02606393
     atom   17 type  2   force =    -0.00160963   -0.03240276   -0.24694800
     atom   18 type  2   force =     0.00023879    0.00169900    0.26734008
     atom   19 type  1   force =     0.02371236   -0.00734149   -0.01340082
     atom   20 type  2   force =    -0.00133528   -0.02025822    0.26322397
     atom   21 type  1   force =     0.00096329    0.01386627    0.00131864
     atom   22 type  2   force =    -0.00417063    0.00281788   -0.25897736
     atom   23 type  2   force =     0.00929670   -0.01509144    0.26311614
     atom   24 type  1   force =     0.00372910    0.01317168   -0.01122548
     atom   25 type  2   force =     0.00169588   -0.00057591   -0.26542001
     atom   26 type  2   force =     0.00351545   -0.01109215    0.26659794
     atom   27 type  1   force =    -0.00107339    0.01544226    0.00890665
     atom   28 type  2   force =    -0.00343019   -0.02559548   -0.27102477
     atom   29 type  2   force =     0.00354842    0.00282799    0.26096203
     atom   30 type  1   force =     0.00043273    0.02052844    0.00898852
     atom   31 type  2   force =    -0.00652499    0.00170223   -0.25956396
     atom   32 type  2   force =    -0.00080606   -0.01573395    0.27195917
     atom   33 type  1   force =    -0.00169752    0.00254824    0.00429989
     atom   34 type  2   force =    -0.00537526   -0.01769723   -0.27784615
     atom   35 type  2   force =    -0.00023216   -0.01208626    0.26651459
     atom   36 type  3   force =     0.00580942    0.04548960   -0.02867206
     The ionic contribution  to forces
     atom    1 type  1   force =    -0.17674717    1.34502236    3.45674560
     atom    2 type  2   force =    -0.08361260    0.00830526   39.39332230
     atom    3 type  2   force =     0.15232372   -0.07416943  -36.62564630
     atom    4 type  1   force =    -0.84867340    0.75843095    0.45557838
     atom    5 type  2   force =    -0.58077744    2.81634184   37.93979219
     atom    6 type  2   force =     0.17529154   -0.29707348  -37.71352435
     atom    7 type  1   force =    -2.56191558   -3.10936127    2.25737895
     atom    8 type  2   force =    -1.09171051    0.01914475   37.53513508
     atom    9 type  2   force =     0.18967521   -0.05414616  -37.89574637
     atom   10 type  1   force =    -0.39412930   -0.76026787    5.14648067
     atom   11 type  2   force =    -0.48729883   -1.71871730   39.10663537
     atom   12 type  2   force =     0.31523559    0.47801874  -37.90996464
     atom   13 type  1   force =     0.16265181    0.79538767    2.50008529
     atom   14 type  2   force =    -0.27337410   -0.26130604   38.48928122
     atom   15 type  2   force =    -0.05565720   -0.03760506  -37.10756514
     atom   16 type  1   force =     0.72020740    4.08916850    0.69991355
     atom   17 type  2   force =     0.61047047    1.51498221   37.90754739
     atom   18 type  2   force =    -0.19074444   -0.46134422  -38.45742462
     atom   19 type  1   force =     2.53214946   -2.57094936    0.69516119
     atom   20 type  2   force =     0.23144006   -0.27471973  -38.48208305
[...]
     atom   27 type  1   force =     0.00064842    0.01212477    0.00416748
     atom   28 type  2   force =    -0.00105543   -0.01517069   -0.26830469
     atom   29 type  2   force =     0.00208685   -0.00432965    0.27022745
     atom   30 type  1   force =     0.00168684    0.02496448    0.00780354
     atom   31 type  2   force =    -0.00534807   -0.00260983   -0.26616766
     atom   32 type  2   force =     0.00039578   -0.01539623    0.26638057
     atom   33 type  1   force =    -0.00079148    0.00620050    0.00332267
     atom   34 type  2   force =    -0.00168569   -0.01101862   -0.27112438
     atom   35 type  2   force =    -0.00114357   -0.01400491    0.26597235
     atom   36 type  3   force =     0.01090991    0.05428822   -0.01953234
     The ionic contribution  to forces
     atom    1 type  1   force =    -0.35970912    2.07461506    2.13979873
     atom    2 type  2   force =    -0.22007896   -0.00876035   38.66688379
     atom    3 type  2   force =     0.10909738    0.08543384  -37.72074955
     atom    4 type  1   force =    -1.02201042   -0.92649643    1.83005904
     atom    5 type  2   force =    -0.48373632    1.69024076   39.50436254
     atom    6 type  2   force =    -0.03120276   -0.17741544  -36.89994056
     atom    7 type  1   force =    -3.47445685   -1.50538990    0.43934689
     atom    8 type  2   force =    -0.94488174    0.49492723   38.26264889
     atom    9 type  2   force =     0.27062997   -0.24845093  -38.36436298
     atom   10 type  1   force =    -0.39410312   -0.15077374    2.34081909
     atom   11 type  2   force =    -0.61470920   -1.28733786   38.33137994
     atom   12 type  2   force =    -0.03004032    0.27518852  -38.13875355
     atom   13 type  1   force =     0.36348741    0.52247842    1.78408839
     atom   14 type  2   force =     0.03761609   -0.27384493   38.13974676
     atom   15 type  2   force =    -0.09662350    0.03037239  -37.51775105
     atom   16 type  1   force =     0.90080651    2.53949269    4.54088172
     atom   17 type  2   force =     0.54590352    0.73816357   38.36294508
     atom   18 type  2   force =     0.06730520   -0.33134686  -37.84893535
     atom   19 type  1   force =     3.18258267   -1.07350720    3.13233066
     atom   20 type  2   force =     0.05244905   -0.11616540  -38.26574826
     atom   21 type  1   force =    -0.13689954   -0.39472889    1.11706079
     atom   22 type  2   force =     0.51577843   -1.27051352   38.37962052
     atom   23 type  2   force =    -0.13461760    0.20290223  -37.75909597
     atom   24 type  1   force =     0.06094778    0.37999496    1.95867982
     atom   25 type  2   force =     0.12119048   -0.02711036   38.58750744
     atom   26 type  2   force =    -0.01318831    0.07818235  -37.56909341
     atom   27 type  1   force =     0.05003539    0.06234210    0.30558600
     atom   28 type  2   force =    -0.00002520    0.16551503   38.11617183
     atom   29 type  2   force =    -0.08453252   -0.16411204  -37.57635705
     atom   30 type  1   force =     0.33657226   -0.27866315    1.01966702
     atom   31 type  2   force =     1.10072339    0.28480040   38.39594826
     atom   32 type  2   force =    -0.19074912   -0.06515424  -38.09980380
     atom   33 type  1   force =     0.70190742   -0.30738187    2.03596288
     atom   34 type  2   force =     0.00548038   -0.29463083   38.61955838
     atom   35 type  2   force =     0.05820983    0.20735723  -37.71679319
     atom   36 type  3   force =    -0.24915856   -0.93022283    7.46633026
     The local contribution  to forces
     atom    1 type  1   force =     0.36423577   -2.09243137   -2.11046653
     atom    2 type  2   force =     0.22179160    0.01758170  -38.43043724
     atom    3 type  2   force =    -0.10552929   -0.07367060   37.47444152
     atom    4 type  1   force =     1.01257519    0.91225634   -1.81901553
     atom    5 type  2   force =     0.52180613   -1.40415305  -39.30698237
     atom    6 type  2   force =     0.02905931    0.18297963   36.65208780
     atom    7 type  1   force =     3.49557044    1.49867293   -0.43660547
     atom    8 type  2   force =     0.94046011   -0.49647335  -38.02458671
     atom    9 type  2   force =    -0.26862731    0.25502270   38.11740555
     atom   10 type  1   force =     0.39261730    0.15119051   -2.33995858
     atom   11 type  2   force =     0.61022458    1.28160421  -38.09413130
     atom   12 type  2   force =     0.03592491   -0.25822712   37.89724194
     atom   13 type  1   force =    -0.36374381   -0.53344678   -1.77989788
     atom   14 type  2   force =    -0.04715934    0.27578213  -37.90748922
     atom   15 type  2   force =     0.09187074   -0.02120714   37.27337549
     atom   16 type  1   force =    -0.91095113   -2.59107290   -4.49672317
     atom   17 type  2   force =    -0.54675059   -0.71468864  -38.12892236
     atom   18 type  2   force =    -0.05673453    0.33317700   37.60641661
     atom   19 type  1   force =    -3.20576161    1.06434471   -3.10974242
     atom   20 type  2   force =    -0.05107427    0.12395819   38.02369459
     atom   21 type  1   force =     0.13494733    0.37908876   -1.11800131
     atom   22 type  2   force =    -0.51126107    1.27317961  -38.14445812
     atom   23 type  2   force =     0.12683547   -0.19110746   37.51654804
     atom   24 type  1   force =    -0.06293919   -0.39287099   -1.95921620
     atom   25 type  2   force =    -0.12267569    0.03429054  -38.34486349
     atom   26 type  2   force =     0.01080784   -0.06997828   37.32193894
     atom   27 type  1   force =    -0.05074134   -0.07475463   -0.30942264
     atom   28 type  2   force =     0.00182333   -0.15126516  -37.86857677
     atom   29 type  2   force =     0.08266428    0.16927459   37.32740725
     atom   30 type  1   force =    -0.33902882    0.25412965   -1.02733290
     atom   31 type  2   force =    -1.09560186   -0.28206462  -38.15093756
     atom   32 type  2   force =     0.18984404    0.07949804   37.85370047
     atom   33 type  1   force =    -0.70092372    0.30074073   -2.03917382
     atom   34 type  2   force =    -0.00414940    0.30501093  -38.36885130
     atom   35 type  2   force =    -0.05685607   -0.19509513   37.47241751
     atom   36 type  3   force =     0.23775552    0.87515627   -7.44918522
     The core correction contribution to forces
     atom    1 type  1   force =     0.00000000    0.00000000    0.00000000
     atom    2 type  2   force =     0.00020250   -0.00002982    0.02024969
     atom    3 type  2   force =     0.00036365    0.00034268   -0.02107503
     atom    4 type  1   force =     0.00000000    0.00000000    0.00000000
     atom    5 type  2   force =     0.00318767    0.01970033    0.01431690
     atom    6 type  2   force =    -0.00022911    0.00019718   -0.02105459
     atom    7 type  1   force =     0.00000000    0.00000000    0.00000000
     atom    8 type  2   force =    -0.00015652    0.00050469    0.02047896
     atom    9 type  2   force =     0.00054061    0.00040139   -0.02100959
     atom   10 type  1   force =     0.00000000    0.00000000    0.00000000
     atom   11 type  2   force =    -0.00013474   -0.00071861    0.02050303
     atom   12 type  2   force =     0.00046187    0.00109000   -0.02070927
     atom   13 type  1   force =     0.00000000    0.00000000    0.00000000
     atom   14 type  2   force =    -0.00065738   -0.00068742    0.01978385
     atom   15 type  2   force =    -0.00030647    0.00021201   -0.02082897
     atom   16 type  1   force =     0.00000000    0.00000000    0.00000000
     atom   17 type  2   force =    -0.00020984    0.00100810    0.02029746
     atom   18 type  2   force =     0.00057591   -0.00018861   -0.02068397
     atom   19 type  1   force =     0.00000000    0.00000000    0.00000000
     atom   20 type  2   force =     0.00007051    0.00034241   -0.02112434
     atom   21 type  1   force =     0.00000000    0.00000000    0.00000000
     atom   22 type  2   force =     0.00003777   -0.00007296    0.02034216
     atom   23 type  2   force =    -0.00066217    0.00059147   -0.02068200
     atom   24 type  1   force =     0.00000000    0.00000000    0.00000000
     atom   25 type  2   force =    -0.00011338    0.00021448    0.02061734
     atom   26 type  2   force =    -0.00018991    0.00033960   -0.02089657
     atom   27 type  1   force =     0.00000000    0.00000000    0.00000000
     atom   28 type  2   force =     0.00016254    0.00078618    0.02088137
     atom   29 type  2   force =    -0.00019364    0.00014454   -0.02093690
     atom   30 type  1   force =     0.00000000    0.00000000    0.00000000
     atom   31 type  2   force =     0.00019725    0.00042574    0.02085037
     atom   32 type  2   force =    -0.00024438    0.00077532   -0.02089732
     atom   33 type  1   force =     0.00000000    0.00000000    0.00000000
     atom   34 type  2   force =     0.00003466    0.00043601    0.02108152
     atom   35 type  2   force =     0.00000166    0.00083025   -0.02084604
     atom   36 type  3   force =     0.00000000    0.00000000    0.00000000
     The Hubbard contrib.    to forces
     atom    1 type  1   force =     0.00000000    0.00000000    0.00000000
     atom    2 type  2   force =     0.00000000    0.00000000    0.00000000
     atom    3 type  2   force =     0.00000000    0.00000000    0.00000000
     atom    4 type  1   force =     0.00000000    0.00000000    0.00000000
     atom    5 type  2   force =     0.00000000    0.00000000    0.00000000
     atom    6 type  2   force =     0.00000000    0.00000000    0.00000000
     atom    7 type  1   force =     0.00000000    0.00000000    0.00000000
     atom    8 type  2   force =     0.00000000    0.00000000    0.00000000
     atom    9 type  2   force =     0.00000000    0.00000000    0.00000000
     atom   10 type  1   force =     0.00000000    0.00000000    0.00000000
     atom   11 type  2   force =     0.00000000    0.00000000    0.00000000
     atom   12 type  2   force =     0.00000000    0.00000000    0.00000000
     atom   13 type  1   force =     0.00000000    0.00000000    0.00000000
     atom   14 type  2   force =     0.00000000    0.00000000    0.00000000
     atom   15 type  2   force =     0.00000000    0.00000000    0.00000000
     atom   16 type  1   force =     0.00000000    0.00000000    0.00000000
     atom   17 type  2   force =     0.00000000    0.00000000    0.00000000
     atom   18 type  2   force =     0.00000000    0.00000000    0.00000000
     atom   19 type  1   force =     0.00000000    0.00000000    0.00000000
     atom   20 type  2   force =     0.00000000    0.00000000    0.00000000
     atom   21 type  1   force =     0.00000000    0.00000000    0.00000000
     atom   22 type  2   force =     0.00000000    0.00000000    0.00000000
     atom   23 type  2   force =     0.00000000    0.00000000    0.00000000
     atom   24 type  1   force =     0.00000000    0.00000000    0.00000000
     atom   25 type  2   force =     0.00000000    0.00000000    0.00000000
     atom   26 type  2   force =     0.00000000    0.00000000    0.00000000
     atom   27 type  1   force =     0.00000000    0.00000000    0.00000000
     atom   28 type  2   force =     0.00000000    0.00000000    0.00000000
     atom   29 type  2   force =     0.00000000    0.00000000    0.00000000
     atom   30 type  1   force =     0.00000000    0.00000000    0.00000000
     atom   31 type  2   force =     0.00000000    0.00000000    0.00000000
     atom   32 type  2   force =     0.00000000    0.00000000    0.00000000
     atom   33 type  1   force =     0.00000000    0.00000000    0.00000000
     atom   34 type  2   force =     0.00000000    0.00000000    0.00000000
     atom   35 type  2   force =     0.00000000    0.00000000    0.00000000
     atom   36 type  3   force =     0.00000000    0.00000000    0.00000000
     The SCF correction term to forces
     atom    1 type  1   force =    -0.00000268    0.00000477   -0.00008060
     atom    2 type  2   force =     0.00001118   -0.00000729   -0.00003580
     atom    3 type  2   force =    -0.00000013    0.00001246   -0.00001744
     atom    4 type  1   force =    -0.00000217   -0.00001916   -0.00007749
     atom    5 type  2   force =    -0.00001058    0.00000718   -0.00003246
     atom    6 type  2   force =     0.00000391   -0.00001239   -0.00001724
     atom    7 type  1   force =    -0.00001302   -0.00000758   -0.00002727
     atom    8 type  2   force =    -0.00000007    0.00001456   -0.00002362
     atom    9 type  2   force =    -0.00000243    0.00000016    0.00000447
     atom   10 type  1   force =    -0.00000309    0.00001544   -0.00004746
     atom   11 type  2   force =     0.00000183   -0.00001124   -0.00001880
     atom   12 type  2   force =    -0.00000130    0.00001094   -0.00000438
     atom   13 type  1   force =    -0.00003038    0.00000348   -0.00007452
     atom   14 type  2   force =    -0.00001110    0.00000262   -0.00003388
     atom   15 type  2   force =    -0.00000556    0.00000703   -0.00001444
     atom   16 type  1   force =    -0.00000265   -0.00000958   -0.00004439
     atom   17 type  2   force =    -0.00000608   -0.00000153   -0.00002970
     atom   18 type  2   force =    -0.00000937   -0.00002088   -0.00000610
     atom   19 type  1   force =     0.00000106   -0.00001633   -0.00001884
     atom   20 type  2   force =     0.00000332   -0.00000088    0.00000592
     atom   21 type  1   force =    -0.00000629    0.00001757   -0.00005466
     atom   22 type  2   force =    -0.00000286   -0.00000199   -0.00001803
     atom   23 type  2   force =     0.00000346    0.00000657    0.00000141
     atom   24 type  1   force =     0.00001524    0.00000736   -0.00009063
     atom   25 type  2   force =     0.00000203   -0.00000045   -0.00003018
     atom   26 type  2   force =     0.00000788    0.00001860   -0.00000515
     atom   27 type  1   force =     0.00001861   -0.00002163   -0.00005416
     atom   28 type  2   force =     0.00001310   -0.00000354   -0.00003391
     atom   29 type  2   force =     0.00000325   -0.00001733   -0.00001157
     atom   30 type  1   force =     0.00001648    0.00000530   -0.00000444
     atom   31 type  2   force =    -0.00000024    0.00000187   -0.00002752
     atom   32 type  2   force =    -0.00000119   -0.00000442    0.00001441
     atom   33 type  1   force =    -0.00000278    0.00002332   -0.00002024
     atom   34 type  2   force =     0.00000356   -0.00000643   -0.00001524
     atom   35 type  2   force =    -0.00000217    0.00000212   -0.00000027
     atom   36 type  3   force =    -0.00000200    0.00000079   -0.00000553

     Total force =     0.007079     Total SCF correction =     0.000235
     Energy error            =      8.4E-05 Ry
     Gradient error          =      2.9E-03 Ry/Bohr

     bfgs converged in  19 scf cycles and  18 bfgs steps
     (criteria: energy <  1.0E-04 Ry, force <  1.0E-02 Ry/Bohr)

     End of BFGS Geometry Optimization

     Final energy             =   -2205.5778222033 Ry

     File ./MoS2-V-O.bfgs deleted, as requested
Begin final coordinates

ATOMIC_POSITIONS (angstrom)
Mo            6.5710727600        1.7424401258        2.7444109294
S             8.1328269470        0.8359995825        4.3665897295
S             8.1258642862        0.8368355291        1.1639178843
Mo            8.1247870965        4.5024033485        2.7470584915
S             6.4782618444        3.9931444555        4.5916153743
S             6.5363646100        3.5747299976        1.1803640227
Mo            6.5807310820        7.1680343950        2.6443323904
S             8.1362077166        6.3369981729        4.3154139179
S             8.1821663405        6.2947049594        1.0997307712
Mo            8.1408519733        9.9280215412        2.7564303791
S             6.5393099207        8.9176546549        4.3146580311
S             6.6037975433        9.0275741385        1.1120974942
Mo            3.4352579053        1.7324258437        2.7564536036
S             4.9909326047        0.7863421239        4.3380719166
S             5.0099443937        0.8128436118        1.1641908215
Mo            4.9544563762        4.5439919407        2.7294526928
S             3.4206893201        3.6195302512        4.3291440191
S             3.4383414416        3.5478437282        1.1330950131
Mo            3.4700045249        7.1437448768        2.6872396038
S             5.0107999615        6.2850359616        1.0748819002
Mo            5.0048417536        9.8761576103        2.7300293313
S             3.4630803277        8.9294626865        4.3253250711
S             3.4167214505        9.0005546754        1.1330215663
Mo            0.2533162431        1.7298114974        2.7648877533
S             1.8572247566        0.8299462840        4.3563681424
S             1.8456539823        0.8320349897        1.1691400155
Mo            1.8523523930        4.4694853788        2.7232736046
S             0.2581128288        3.5913494843        4.3257270027
S             0.2401609166        3.5509184019        1.1576022604
Mo            0.2905569580        7.2075659473        2.7278158220
S             1.9052657278        6.2830208396        4.3171696495
S             1.8702954914        6.2993023419        1.1126820551
Mo            1.8598765589        9.9260046951        2.7557836077
S             0.2803201465        9.0241964087        4.3436877125
S             0.2741609177        9.0442028879        1.1568167601
H             6.2222445776        2.6852774875        4.9422682357
End final coordinates



     Writing all to output data dir ./MoS2-V-O.save/
 
     init_run     :      2.37s CPU      2.66s WALL (       1 calls)
     electrons    :   1731.48s CPU   1929.35s WALL (      19 calls)
     update_pot   :     25.89s CPU     27.45s WALL (      18 calls)
     forces       :     26.17s CPU     30.58s WALL (      19 calls)

     Called by init_run:
     wfcinit      :      0.38s CPU      0.43s WALL (       1 calls)
     potinit      :      1.31s CPU      1.44s WALL (       1 calls)
     hinit0       :      0.16s CPU      0.18s WALL (       1 calls)

     Called by electrons:
     c_bands      :    220.56s CPU    224.63s WALL (     163 calls)
     sum_band     :     48.85s CPU     63.62s WALL (     163 calls)
     v_of_rho     :     74.61s CPU     91.26s WALL (     172 calls)
     newd         :     23.10s CPU     36.76s WALL (     172 calls)
     mix_rho      :   1372.87s CPU   1521.95s WALL (     163 calls)

     Called by c_bands:
     init_us_2    :      3.49s CPU      3.76s WALL (     327 calls)
     init_us_2:cp :      3.48s CPU      3.76s WALL (     327 calls)
     regterg      :    208.42s CPU    212.20s WALL (     163 calls)

     Called by *egterg:
     rdiaghg      :     15.64s CPU     15.84s WALL (     868 calls)
     h_psi        :    111.75s CPU    112.83s WALL (     897 calls)
     s_psi        :     13.41s CPU     13.45s WALL (     897 calls)
     g_psi        :      1.36s CPU      1.37s WALL (     733 calls)

     Called by h_psi:
     h_psi:calbec :     16.33s CPU     16.43s WALL (     897 calls)
     vloc_psi     :     79.07s CPU     79.93s WALL (     897 calls)
     add_vuspsi   :     13.44s CPU     13.55s WALL (     897 calls)

     General routines
     calbec       :     23.10s CPU     23.23s WALL (    1136 calls)
     fft          :     49.03s CPU     57.29s WALL (   11603 calls)
     ffts         :    619.85s CPU    764.07s WALL (  334319 calls)
     fftw         :     66.97s CPU     67.61s WALL (  100093 calls)
     interpolate  :      1.24s CPU      1.47s WALL (     172 calls)
 
     Parallel routines
 
     PWSCF        :  29m49.33s CPU  33m16.24s WALL

 
   This run was terminated on:  23:54:42   3Nov2023            

=------------------------------------------------------------------------------=
   JOB DONE.
=------------------------------------------------------------------------------=
