
     Program PWSCF v.7.2 starts on  4Nov2023 at 10: 3:42 

     This program is part of the open-source Quantum ESPRESSO suite
     for quantum simulation of materials; please cite
         "P. Giannozzi et al., J. Phys.:Condens. Matter 21 395502 (2009);
         "P. Giannozzi et al., J. Phys.:Condens. Matter 29 465901 (2017);
         "P. Giannozzi et al., J. Chem. Phys. 152 154105 (2020);
          URL http://www.quantum-espresso.org", 
     in publications or presentations arising from this work. More details at
     http://www.quantum-espresso.org/quote

     Parallel version (MPI & OpenMP), running on      48 processor cores
     Number of MPI processes:                48
     Threads/MPI process:                     1

     MPI processes distributed on     1 nodes
     63395 MiB available memory on the printing compute node when the environment starts
 
     Waiting for input...
     Reading input from standard input
Warning: card &CELL ignored
Warning: card CELL_DYNAMICS = 'BFGS', ignored
Warning: card CELL_DOFREE = '2DXY' ignored
Warning: card / ignored

     Current dimensions of program PWSCF are:
     Max number of different atomic species (ntypx) = 10
     Max number of k-points (npk) =  40000
     Max angular momentum in pseudopotentials (lmaxx) =  4

     IMPORTANT: XC functional enforced from input :
     Exchange-correlation= RVV10
                           (   1   4  13   4  26   0   0)
     Any further DFT definition will be discarded
     Please, verify this is what you really want


     gamma-point specific algorithms are used
     signal trapping enabled: kill the code with -SIGUSR1 to stop cleanly the simulation 
 
     R & G space division:  proc/nbgrp/npool/nimage =      48
     Subspace diagonalization in iterative solution of the eigenvalue problem:
     one sub-group per band group will be used
     scalapack distributed-memory algorithm (size of sub-group:  2*  2 procs)

 
     Parallelization info
     --------------------
     sticks:   dense  smooth     PW     G-vecs:    dense   smooth      PW
     Min         243     194     47                49060    35090    4376
     Max         246     196     50                49086    35128    4410
     Sum       11735    9389   2349              2355467  1685513  210763
 
     Using Slab Decomposition
 


     bravais-lattice index     =            0
     lattice parameter (alat)  =      17.8707  a.u.
     unit-cell volume          =   17436.2743 (a.u.)^3
     number of atoms/cell      =           36
     number of atomic types    =            3
     number of electrons       =       307.00
     number of Kohn-Sham states=          185
     kinetic-energy cutoff     =      80.0000  Ry
     charge density cutoff     =     400.0000  Ry
     scf convergence threshold =      1.0E-06
     mixing beta               =       0.7000
     number of iterations used =            8  local-TF  mixing
     energy convergence thresh.=      1.0E-04
     force convergence thresh. =      1.0E-02
     Exchange-correlation= RVV10
                           (   1   4  13   4  26   0   0)
     nstep                     =          200


     celldm(1)=  17.870686  celldm(2)=   0.000000  celldm(3)=   0.000000
     celldm(4)=   0.000000  celldm(5)=   0.000000  celldm(6)=   0.000000

     crystal axes: (cart. coord. in units of alat)
               a(1) = (   1.000000   0.000000   0.000000 )  
               a(2) = (   0.000000   1.155671   0.000000 )  
               a(3) = (   0.000000   0.000000   2.643601 )  

     reciprocal axes: (cart. coord. in units 2 pi/alat)
               b(1) = (  1.000000  0.000000  0.000000 )  
               b(2) = (  0.000000  0.865298  0.000000 )  
               b(3) = (  0.000000  0.000000  0.378272 )  


     PseudoPot. # 1 for Mo read from file:
     ../pseudo/Mo_ONCV_PBE-1.0.oncvpsp.upf
     MD5 check sum: 1b5d28e075c9ccadda658a603575cd1f
     Pseudo is Norm-conserving, Zval = 14.0
     Generated using ONCVPSP code by D. R. Hamann
     Using radial grid of 1526 points,  6 beta functions with: 
                l(1) =   0
                l(2) =   0
                l(3) =   1
                l(4) =   1
                l(5) =   2
                l(6) =   2

     PseudoPot. # 2 for S  read from file:
     ../pseudo/s_pbe_v1.4.uspp.F.UPF
     MD5 check sum: 88d86576ff6df21479756cfb9bdac1df
     Pseudo is Ultrasoft + core correction, Zval =  6.0
     Generated by new atomic code, or converted to UPF format
     Using radial grid of  907 points,  6 beta functions with: 
                l(1) =   0
                l(2) =   0
                l(3) =   1
                l(4) =   1
                l(5) =   2
                l(6) =   2
     Q(r) pseudized with  8 coefficients,  rinner =    1.300   1.300   1.300
                                                       1.300   1.300

     PseudoPot. # 3 for H  read from file:
     ../pseudo/H_ONCV_PBE-1.0.oncvpsp.upf
     MD5 check sum: 1790becc920ee074925cf490c71280fe
     Pseudo is Norm-conserving, Zval =  1.0
     Generated using ONCVPSP code by D. R. Hamann
     Using radial grid of 1166 points,  2 beta functions with: 
                l(1) =   0
                l(2) =   0

     atomic species   valence    mass     pseudopotential
        Mo            14.00    95.94000     Mo( 1.00)
        S              6.00    32.06500     S ( 1.00)
        H              1.00     1.00794     H ( 1.00)

     No symmetry found



   Cartesian axes

     site n.     atom                  positions (alat units)
         1           Mo  tau(   1) = (   0.6952221   0.1890506   0.2985846  )
         2           S   tau(   2) = (   0.8646417   0.0856217   0.4689279  )
         3           S   tau(   3) = (   0.8663890   0.0857843   0.1351291  )
         4           Mo  tau(   4) = (   0.8560186   0.4753274   0.2873942  )
         5           S   tau(   5) = (   0.6873294   0.3936244   0.4596353  )
         6           S   tau(   6) = (   0.6929804   0.3713468   0.1185692  )
         7           Mo  tau(   7) = (   0.6862796   0.7633098   0.2825370  )
         8           S   tau(   8) = (   0.8545980   0.6708292   0.4486168  )
         9           S   tau(   9) = (   0.8545123   0.6666874   0.1146125  )
        10           Mo  tau(  10) = (   0.8629403   1.0471007   0.3006803  )
        11           S   tau(  11) = (   0.6868280   0.9456650   0.4634891  )
        12           S   tau(  12) = (   0.6998113   0.9568511   0.1205389  )
        13           Mo  tau(  13) = (   0.3618216   0.1847309   0.2935964  )
        14           S   tau(  14) = (   0.5260962   0.0863870   0.4600448  )
        15           S   tau(  15) = (   0.5348379   0.0894875   0.1297123  )
        16           Mo  tau(  16) = (   0.5265817   0.4772436   0.2784130  )
        17           S   tau(  17) = (   0.3624753   0.3882513   0.4525556  )
        18           S   tau(  18) = (   0.3635411   0.3752055   0.1119148  )
        19           Mo  tau(  19) = (   0.3652268   0.7630864   0.2781795  )
        20           S   tau(  20) = (   0.5269494   0.6690381   0.1096838  )
        21           Mo  tau(  21) = (   0.5300192   1.0470394   0.2900995  )
        22           S   tau(  22) = (   0.3670346   0.9457522   0.4574073  )
        23           S   tau(  23) = (   0.3604225   0.9585725   0.1159032  )
        24           Mo  tau(  24) = (   0.0313099   0.1847895   0.3013130  )
        25           S   tau(  25) = (   0.1956761   0.0838230   0.4650863  )
        26           S   tau(  26) = (   0.1967693   0.0903508   0.1278874  )
        27           Mo  tau(  27) = (   0.1967578   0.4753919   0.2813011  )
        28           S   tau(  28) = (   0.0287851   0.3864324   0.4586755  )
        29           S   tau(  29) = (   0.0244514   0.3729871   0.1239344  )
        30           Mo  tau(  30) = (   0.0286728   0.7631204   0.2856894  )
        31           S   tau(  31) = (   0.2011512   0.6675435   0.4465001  )
        32           S   tau(  32) = (   0.1969214   0.6672839   0.1104564  )
        33           Mo  tau(  33) = (   0.1950294   1.0511147   0.2932237  )
        34           S   tau(  34) = (   0.0312912   0.9612169   0.4667423  )
        35           S   tau(  35) = (   0.0292670   0.9563028   0.1216485  )
        36           H   tau(  36) = (   1.0000000   1.0272628   0.5656742  )

     number of k points=     1  Gaussian smearing, width (Ry)=  0.0100
                       cart. coord. in units 2pi/alat
        k(    1) = (   0.0000000   0.0000000   0.0000000), wk =   2.0000000

     Dense  grid:  1177734 G-vectors     FFT dimensions: ( 120, 135, 320)

     Smooth grid:   842757 G-vectors     FFT dimensions: ( 108, 120, 270)

     Estimated max dynamical RAM per process >     146.59 MB

     Estimated total dynamical RAM >       6.87 GB

     Initial potential from superposition of free atoms

     starting charge     306.9873, renormalised to     307.0000

     negative rho (up, down):  1.411E-04 0.000E+00


---------------------------------------------------------------------------------
Carrying out rVV10 run using the following parameters:
Nqs =      20    Nr_points =    1024   r_max =   100.000
b_value =  6.30000    beta =  0.00901
     q_mesh =  0.00010000  0.00030000  0.00058939  0.00100810
               0.00161396  0.00249058  0.00375900  0.00559430
               0.00824984  0.01209221  0.01765183  0.02569619
               0.03733578  0.05417739  0.07854596  0.11380545
               0.16482331  0.23864234  0.34545298  0.50000000

Gradients computed in Reciprocal space

---------------------------------------------------------------------------------


     Starting wfcs are  213 randomized atomic wfcs

     total cpu time spent up to now is        3.5 secs

     Self-consistent Calculation

     iteration #  1     ecut=    80.00 Ry     beta= 0.70
     Davidson diagonalization with overlap
     ethr =  1.00E-02,  avg # of iterations =  2.0

     Threshold (ethr) on eigenvalues was too large:
     Diagonalizing with lowered threshold

     Davidson diagonalization with overlap
     ethr =  3.87E-04,  avg # of iterations =  4.0

     negative rho (up, down):  1.585E-08 0.000E+00

     total cpu time spent up to now is       26.8 secs

     total energy              =   -2205.57720731 Ry
     estimated scf accuracy    <       1.47777228 Ry

     iteration #  2     ecut=    80.00 Ry     beta= 0.70
     Davidson diagonalization with overlap
     ethr =  4.81E-04,  avg # of iterations =  2.0

     total cpu time spent up to now is       29.4 secs

     total energy              =   -2205.44793074 Ry
     estimated scf accuracy    <       0.61706276 Ry

     iteration #  3     ecut=    80.00 Ry     beta= 0.70
     Davidson diagonalization with overlap
     ethr =  2.01E-04,  avg # of iterations =  4.0

     total cpu time spent up to now is       31.9 secs

     total energy              =   -2205.48250886 Ry
     estimated scf accuracy    <       0.23287913 Ry

     iteration #  4     ecut=    80.00 Ry     beta= 0.70
     Davidson diagonalization with overlap
     ethr =  7.59E-05,  avg # of iterations =  8.0

     total cpu time spent up to now is       34.6 secs

     total energy              =   -2205.50299557 Ry
     estimated scf accuracy    <       0.03405635 Ry

     iteration #  5     ecut=    80.00 Ry     beta= 0.70
     Davidson diagonalization with overlap
     c_bands:  1 eigenvalues not converged
     ethr =  1.11E-05,  avg # of iterations = 20.0

     total cpu time spent up to now is       37.7 secs

     total energy              =   -2205.50342875 Ry
     estimated scf accuracy    <       0.01976371 Ry

     iteration #  6     ecut=    80.00 Ry     beta= 0.70
     Davidson diagonalization with overlap
     ethr =  6.44E-06,  avg # of iterations =  2.0

     total cpu time spent up to now is       40.2 secs

     total energy              =   -2205.50219665 Ry
     estimated scf accuracy    <       0.01602192 Ry

     iteration #  7     ecut=    80.00 Ry     beta= 0.70
     Davidson diagonalization with overlap
     ethr =  5.22E-06,  avg # of iterations =  2.0

     total cpu time spent up to now is       42.6 secs

     total energy              =   -2205.50049076 Ry
     estimated scf accuracy    <       0.00973958 Ry

     iteration #  8     ecut=    80.00 Ry     beta= 0.70
     Davidson diagonalization with overlap
     ethr =  3.17E-06,  avg # of iterations =  2.0

     negative rho (up, down):  1.126E-02 0.000E+00

     total cpu time spent up to now is       47.0 secs

     total energy              =   -2205.49964201 Ry
     estimated scf accuracy    <       0.00504659 Ry

     iteration #  9     ecut=    80.00 Ry     beta= 0.70
     Davidson diagonalization with overlap
     ethr =  1.64E-06,  avg # of iterations =  2.0

     negative rho (up, down):  2.215E-02 0.000E+00

     total cpu time spent up to now is       51.4 secs

     total energy              =   -2205.49930818 Ry
     estimated scf accuracy    <       0.00318012 Ry

     iteration # 10     ecut=    80.00 Ry     beta= 0.70
     Davidson diagonalization with overlap
     ethr =  1.04E-06,  avg # of iterations =  1.0

     negative rho (up, down):  2.863E-02 0.000E+00

     total cpu time spent up to now is       56.6 secs

     total energy              =   -2205.49927164 Ry
     estimated scf accuracy    <       0.00146292 Ry

     iteration # 11     ecut=    80.00 Ry     beta= 0.70
     Davidson diagonalization with overlap
     ethr =  4.77E-07,  avg # of iterations =  2.0

     negative rho (up, down):  2.600E-02 0.000E+00

     total cpu time spent up to now is       62.1 secs

     total energy              =   -2205.49939674 Ry
     estimated scf accuracy    <       0.00067597 Ry

     iteration # 12     ecut=    80.00 Ry     beta= 0.70
     Davidson diagonalization with overlap
     ethr =  2.20E-07,  avg # of iterations =  5.0

     negative rho (up, down):  1.013E-02 0.000E+00

     total cpu time spent up to now is       67.8 secs

     total energy              =   -2205.49938864 Ry
     estimated scf accuracy    <       0.00021451 Ry

     iteration # 13     ecut=    80.00 Ry     beta= 0.70
     Davidson diagonalization with overlap
     ethr =  6.99E-08,  avg # of iterations =  5.0

     negative rho (up, down):  2.706E-03 0.000E+00

     total cpu time spent up to now is       76.0 secs

     total energy              =   -2205.49947400 Ry
     estimated scf accuracy    <       0.00002748 Ry

     iteration # 14     ecut=    80.00 Ry     beta= 0.70
     Davidson diagonalization with overlap
     ethr =  8.95E-09,  avg # of iterations =  8.0

     negative rho (up, down):  1.317E-03 0.000E+00

     total cpu time spent up to now is       86.1 secs

     total energy              =   -2205.49947794 Ry
     estimated scf accuracy    <       0.00000628 Ry

     iteration # 15     ecut=    80.00 Ry     beta= 0.70
     Davidson diagonalization with overlap
     ethr =  2.05E-09,  avg # of iterations =  2.0

     negative rho (up, down):  4.435E-04 0.000E+00

     total cpu time spent up to now is       97.4 secs

     total energy              =   -2205.49947628 Ry
     estimated scf accuracy    <       0.00000307 Ry

     iteration # 16     ecut=    80.00 Ry     beta= 0.70
     Davidson diagonalization with overlap
     ethr =  1.00E-09,  avg # of iterations =  2.0

     negative rho (up, down):  3.031E-04 0.000E+00

     total cpu time spent up to now is      123.3 secs

     total energy              =   -2205.49947869 Ry
     estimated scf accuracy    <       0.00000120 Ry

     iteration # 17     ecut=    80.00 Ry     beta= 0.70
     Davidson diagonalization with overlap
     ethr =  3.92E-10,  avg # of iterations =  6.0

     negative rho (up, down):  1.373E-04 0.000E+00

     total cpu time spent up to now is      125.7 secs

     End of self-consistent calculation

          k = 0.0000 0.0000 0.0000 (105382 PWs)   bands (ev):

   -62.8392 -62.8269 -62.7972 -62.7912 -62.7795 -62.7707 -62.7686 -62.7621
   -62.7531 -62.6349 -62.6183 -62.5214 -37.1564 -37.1322 -37.0989 -37.0833
   -37.0695 -37.0485 -37.0388 -37.0229 -37.0078 -37.0028 -37.0001 -36.9845
   -36.9711 -36.9683 -36.9574 -36.9502 -36.9466 -36.9444 -36.9307 -36.9279
   -36.9256 -36.8851 -36.8590 -36.8505 -36.8364 -36.8309 -36.8158 -36.7875
   -36.7826 -36.7743 -36.7686 -36.7534 -36.6945 -36.6710 -36.5910 -36.5594
   -16.9941 -15.7744 -15.0686 -15.0423 -14.8916 -14.7750 -14.6648 -14.4227
   -14.4025 -14.3773 -14.3092 -14.2799 -14.2719 -14.1997 -14.1452 -14.0650
   -14.0443 -14.0222 -13.9420 -13.9077 -13.7649 -13.7420 -13.7212  -9.6638
    -7.6393  -7.3963  -7.3402  -7.2023  -7.1329  -7.1175  -7.0984  -7.0538
    -6.7828  -6.7303  -6.7231  -6.6874  -6.5571  -6.4856  -6.4288  -6.4106
    -6.3227  -6.2114  -6.1657  -5.9142  -5.8655  -5.8460  -5.7573  -5.7314
    -5.7071  -5.6589  -5.6247  -5.5777  -5.5589  -5.5218  -5.4476  -5.3755
    -5.3523  -5.3209  -5.1849  -5.0899  -5.0770  -5.0485  -4.9001  -4.8942
    -4.8435  -4.7650  -4.5727  -4.5346  -4.4022  -4.2785  -4.2445  -4.1981
    -4.1670  -4.0901  -3.9627  -3.8608  -3.7348  -3.6927  -3.6673  -3.6409
    -3.6073  -3.5316  -3.5037  -3.4299  -3.4198  -3.4054  -3.3853  -3.3053
    -3.2966  -3.2152  -3.0755  -2.8522  -2.8069  -2.7774  -2.7401  -2.6711
    -2.6479  -2.6003  -2.5835  -2.5435  -2.4929  -2.1928  -1.9453  -1.9246
    -1.8979  -0.6729  -0.6428  -0.6044  -0.1319  -0.1104  -0.0053   0.0023
     0.1645   0.1708   0.2366   0.2876   0.3005   0.3757   0.4697   0.5000
     0.5163   0.6174   0.6464   0.6726   0.6869   0.7062   0.7295   0.8047
     0.8387   0.8553   0.9348   0.9774   1.0017   1.0692   1.1315   1.3417
     1.4534

     the Fermi energy is    -0.7370 ev

!    total energy              =   -2205.49947829 Ry
     estimated scf accuracy    <       0.00000029 Ry
     smearing contrib. (-TS)   =      -0.01018865 Ry
     internal energy E=F+TS    =   -2205.48928964 Ry

     The total energy is F=E-TS. E is the sum of the following terms:
     one-electron contribution =  -18051.04360761 Ry
     hartree contribution      =    9012.87358793 Ry
     xc contribution           =    -385.49981695 Ry
     ewald contribution        =    7218.18054699 Ry

     convergence has been achieved in  17 iterations

     negative rho (up, down):  1.373E-04 0.000E+00

     Forces acting on atoms (cartesian axes, Ry/au):

     atom    1 type  1   force =     0.01157901   -0.02459866    0.00549552
     atom    2 type  2   force =    -0.01558523    0.01859899    0.00107984
     atom    3 type  2   force =    -0.01181371    0.00874611   -0.00398445
     atom    4 type  1   force =     0.00887918   -0.00367460    0.00066051
     atom    5 type  2   force =    -0.00204752   -0.00472545   -0.00646246
     atom    6 type  2   force =     0.00321524    0.01072418    0.00091360
     atom    7 type  1   force =     0.00654557   -0.00223764   -0.00770717
     atom    8 type  2   force =    -0.00285343   -0.00911076    0.01674432
     atom    9 type  2   force =     0.01760832    0.00352748    0.00904134
     atom   10 type  1   force =    -0.02234278    0.01100754   -0.04280020
     atom   11 type  2   force =     0.00263187   -0.00280370   -0.00528541
     atom   12 type  2   force =    -0.00053434    0.00127467    0.00665864
     atom   13 type  1   force =     0.00617293    0.00513230   -0.00560043
     atom   14 type  2   force =     0.00790420    0.00126399    0.01137635
     atom   15 type  2   force =    -0.01188159    0.00226781   -0.00891999
     atom   16 type  1   force =     0.00054490    0.00278058    0.00062346
     atom   17 type  2   force =     0.00641586    0.00204402    0.00158777
     atom   18 type  2   force =    -0.00551699   -0.00626737    0.01416512
     atom   19 type  1   force =     0.00208381   -0.00003142   -0.00171125
     atom   20 type  2   force =     0.00315284   -0.00579899    0.00094660
     atom   21 type  1   force =    -0.00440919    0.00737416    0.00107237
     atom   22 type  2   force =     0.00381670   -0.00467235   -0.00219530
     atom   23 type  2   force =    -0.00089778    0.00196919    0.00876403
     atom   24 type  1   force =    -0.00931356   -0.00272046   -0.02264121
     atom   25 type  2   force =     0.01795413    0.02103245    0.00780529
     atom   26 type  2   force =    -0.01179282   -0.00268632   -0.00513811
     atom   27 type  1   force =    -0.00443564   -0.00564904    0.00847775
     atom   28 type  2   force =     0.00056939   -0.00095815   -0.00574238
     atom   29 type  2   force =     0.00299364    0.00189086   -0.00319571
     atom   30 type  1   force =    -0.00890240   -0.02195752   -0.03014379
     atom   31 type  2   force =     0.00534787   -0.00433820    0.01526392
     atom   32 type  2   force =    -0.01472610    0.00339086    0.00631500
     atom   33 type  1   force =     0.01619652    0.00548152   -0.00339531
     atom   34 type  2   force =     0.07873495   -0.17792189   -0.24073491
     atom   35 type  2   force =    -0.00860147    0.00666593    0.01635604
     atom   36 type  3   force =    -0.06669239    0.16497987    0.26231059
     The non-local contrib.  to forces
     atom    1 type  1   force =    -0.00492474    0.03757475   -0.01328315
     atom    2 type  2   force =    -0.00952956    0.00267872   -0.25393485
     atom    3 type  2   force =    -0.01515427   -0.00631895    0.27226603
     atom    4 type  1   force =    -0.00469979    0.00645113    0.00372223
     atom    5 type  2   force =     0.00641240   -0.03355900   -0.25310706
     atom    6 type  2   force =    -0.00127098    0.01037205    0.26108367
     atom    7 type  1   force =    -0.03332522   -0.01385201   -0.01476676
     atom    8 type  2   force =     0.00145008   -0.01000158   -0.24823190
     atom    9 type  2   force =     0.01841130   -0.00873693    0.27990148
     atom   10 type  1   force =    -0.00141546    0.00064528    0.00131248
     atom   11 type  2   force =     0.01919536    0.00858953   -0.25452205
     atom   12 type  2   force =    -0.01192838   -0.01281603    0.26253647
     atom   13 type  1   force =     0.00243813    0.02575896   -0.00865314
     atom   14 type  2   force =     0.01105478   -0.01000739   -0.26212343
     atom   15 type  2   force =    -0.01367292   -0.00460096    0.26185509
     atom   16 type  1   force =    -0.00044197    0.04216149   -0.01560824
     atom   17 type  2   force =     0.00223113   -0.03025698   -0.24938311
     atom   18 type  2   force =    -0.00540638   -0.00516150    0.27197457
     atom   19 type  1   force =     0.02952294   -0.01829406   -0.01104848
     atom   20 type  2   force =    -0.00008485   -0.01963817    0.26453198
     atom   21 type  1   force =     0.00206322    0.02424262    0.00697358
     atom   22 type  2   force =    -0.00806438    0.00556088   -0.25670810
     atom   23 type  2   force =     0.00631540   -0.01073360    0.26742428
     atom   24 type  1   force =     0.00514152    0.01968876   -0.01123238
     atom   25 type  2   force =     0.00590593   -0.00039355   -0.25410639
     atom   26 type  2   force =    -0.00187394   -0.01908591    0.26461402
     atom   27 type  1   force =     0.00189193    0.00999707    0.00813705
     atom   28 type  2   force =    -0.00350267   -0.02563960   -0.27222792
     atom   29 type  2   force =     0.00684913    0.00023373    0.26459764
     atom   30 type  1   force =     0.00121821    0.01306488   -0.01150095
     atom   31 type  2   force =    -0.00202786   -0.00642596   -0.24671169
     atom   32 type  2   force =    -0.01333746   -0.01118276    0.27492844
     atom   33 type  1   force =    -0.00239770    0.00331884   -0.00190510
     atom   34 type  2   force =    -0.00666226    0.03637581   -0.10141506
     atom   35 type  2   force =    -0.00266239   -0.00846805    0.27864883
     atom   36 type  3   force =     0.02814105   -0.05634282   -0.08298717
     The ionic contribution  to forces
     atom    1 type  1   force =     0.27804514    0.37843999    5.62885435
     atom    2 type  2   force =    -0.89777593    0.78622997   39.12624994
     atom    3 type  2   force =    -0.19035004    0.06432766  -36.15027262
     atom    4 type  1   force =     0.05282661    0.55783615    0.65078920
     atom    5 type  2   force =    -0.99560834    1.51930193   38.75144484
     atom    6 type  2   force =     0.33453908   -0.48939145  -38.01931470
     atom    7 type  1   force =    -2.74155882   -2.92428213    2.47275175
     atom    8 type  2   force =    -1.05260857   -0.13367186   37.34953261
     atom    9 type  2   force =     0.32724680   -0.07102733  -38.02396068
     atom   10 type  1   force =    -1.50006295   -0.25283504    4.92419103
     atom   11 type  2   force =    -0.80061298   -1.67999688   39.06593652
     atom   12 type  2   force =     0.40638924    0.68017749  -37.89998503
     atom   13 type  1   force =     0.56455564    1.10872751    2.80596996
     atom   14 type  2   force =     0.04133397    0.05551281   38.50660242
     atom   15 type  2   force =     0.15173656   -0.04057803  -36.81627298
     atom   16 type  1   force =    -0.02975486    3.93673109    0.50088797
     atom   17 type  2   force =     0.83499258    1.52130411   37.93764266
     atom   18 type  2   force =    -0.15244636   -0.63649889  -38.55670045
     atom   19 type  1   force =     2.81363338   -2.56416075    0.58523512
     atom   20 type  2   force =     0.22647021   -0.21668123  -38.47548194
     atom   21 type  1   force =    -0.00095936    0.06515683    1.07196099
     atom   22 type  2   force =     0.60929828   -1.76486398   38.38528499
     atom   23 type  2   force =    -0.05947654    0.65567684  -38.32260261
     atom   24 type  1   force =    -0.51954051    1.45464008    5.62380982
     atom   25 type  2   force =     0.88314835    0.54161722   39.16404345
     atom   26 type  2   force =    -0.25853454    0.10548325  -37.38177802
     atom   27 type  1   force =     0.06972301    0.38521907   -2.26493285
     atom   28 type  2   force =     0.05739741    1.05479115   38.19996690
     atom   29 type  2   force =    -0.26377286   -0.41139069  -37.27122470
     atom   30 type  1   force =    -0.30616797   -1.23870677   -0.33629198
     atom   31 type  2   force =     1.29848042   -0.18574315   37.29823676
     atom   32 type  2   force =    -0.46423309   -0.03729574  -38.65063405
     atom   33 type  1   force =     1.17356019   -0.80179467    1.56084699
     atom   34 type  2   force =     0.86493088   -2.76729667   37.38597509
     atom   35 type  2   force =    -0.29186936    0.45476413  -37.92765489
     atom   36 type  3   force =    -0.46297466    0.89027799    9.10089414
     The local contribution  to forces
     atom    1 type  1   force =    -0.26152901   -0.44075083   -5.60950828
     atom    2 type  2   force =     0.89176054   -0.77059266  -38.89059567
     atom    3 type  2   force =     0.19299626   -0.04952261   35.89519280
     atom    4 type  1   force =    -0.03919572   -0.56791132   -0.65328452
     atom    5 type  2   force =     0.98784130   -1.49239779  -38.52473547
     atom    6 type  2   force =    -0.33019897    0.49073391   37.78001578
     atom    7 type  1   force =     2.78136855    2.93588414   -2.46506691
     atom    8 type  2   force =     1.04845874    0.13401178  -37.10424707
     atom    9 type  2   force =    -0.32731972    0.08279970   37.77437656
     atom   10 type  1   force =     1.47915854    0.26313687   -4.96769030
     atom   11 type  2   force =     0.78520280    1.66934588  -38.83658319
     atom   12 type  2   force =    -0.39609337   -0.66721102   37.66507810
     atom   13 type  1   force =    -0.56081633   -1.12940416   -2.80236303
     atom   14 type  2   force =    -0.04392739   -0.04429040  -38.25338466
     atom   15 type  2   force =    -0.15071589    0.04709555   36.56627286
     atom   16 type  1   force =     0.03068799   -3.97590932   -0.48408549
     atom   17 type  2   force =    -0.83087354   -1.49068007  -37.70647937
     atom   18 type  2   force =     0.15208647    0.63565981   38.31992886
     atom   19 type  1   force =    -2.84100909    2.58237403   -0.57529670
     atom   20 type  2   force =    -0.22337467    0.22989793   38.23318319
     atom   21 type  1   force =    -0.00550556   -0.08199534   -1.07732888
     atom   22 type  2   force =    -0.59782033    1.75520414  -38.15073975
     atom   23 type  2   force =     0.05278880   -0.64397235   38.08498136
     atom   24 type  1   force =     0.50509581   -1.47708627   -5.63460371
     atom   25 type  2   force =    -0.87134656   -0.52034042  -38.92199017
     atom   26 type  2   force =     0.24883271   -0.09011967   37.13310422
     atom   27 type  1   force =    -0.07604594   -0.40085061    2.26583960
     atom   28 type  2   force =    -0.05356645   -1.03197832  -37.95393112
     atom   29 type  2   force =     0.26049705    0.41349055   37.02421153
     atom   30 type  1   force =     0.29605519    1.20383896    0.31834186
     atom   31 type  2   force =    -1.29142613    0.18768068  -37.05605660
     atom   32 type  2   force =     0.46242318    0.05125257   38.40326896
     atom   33 type  1   force =    -1.15502874    0.80388068   -1.56164749
     atom   34 type  2   force =    -0.78147403    2.55784029  -37.53359682
     atom   35 type  2   force =     0.28596791   -0.44050484   37.68704863
     atom   36 type  3   force =     0.36814573   -0.66896706   -8.75554299
     The core correction contribution to forces
     atom    1 type  1   force =     0.00000000    0.00000000    0.00000000
     atom    2 type  2   force =    -0.00003326    0.00025306    0.01969210
     atom    3 type  2   force =     0.00067965    0.00022691   -0.02099613
     atom    4 type  1   force =     0.00000000    0.00000000    0.00000000
     atom    5 type  2   force =    -0.00067011    0.00191504    0.02031157
     atom    6 type  2   force =     0.00018265   -0.00102500   -0.02076284
     atom    7 type  1   force =     0.00000000    0.00000000    0.00000000
     atom    8 type  2   force =    -0.00013893    0.00060456    0.02001758
     atom    9 type  2   force =    -0.00072057    0.00051435   -0.02110516
     atom   10 type  1   force =     0.00000000    0.00000000    0.00000000
     atom   11 type  2   force =    -0.00112137   -0.00075239    0.02020974
     atom   12 type  2   force =     0.00110793    0.00113777   -0.02080757
     atom   13 type  1   force =     0.00000000    0.00000000    0.00000000
     atom   14 type  2   force =    -0.00057663    0.00003504    0.02058907
     atom   15 type  2   force =     0.00074622    0.00033920   -0.02060760
     atom   16 type  1   force =     0.00000000    0.00000000    0.00000000
     atom   17 type  2   force =     0.00003724    0.00163044    0.02017047
     atom   18 type  2   force =     0.00021314   -0.00033540   -0.02092028
     atom   19 type  1   force =     0.00000000    0.00000000    0.00000000
     atom   20 type  2   force =     0.00012358    0.00067543   -0.02112639
     atom   21 type  1   force =     0.00000000    0.00000000    0.00000000
     atom   22 type  2   force =     0.00038363   -0.00060747    0.02030499
     atom   23 type  2   force =    -0.00049459    0.00097625   -0.02087770
     atom   24 type  1   force =     0.00000000    0.00000000    0.00000000
     atom   25 type  2   force =     0.00026027    0.00014780    0.02020116
     atom   26 type  2   force =    -0.00018432    0.00106041   -0.02091831
     atom   27 type  1   force =     0.00000000    0.00000000    0.00000000
     atom   28 type  2   force =     0.00024460    0.00185726    0.02080032
     atom   29 type  2   force =    -0.00058250   -0.00046712   -0.02064180
     atom   30 type  1   force =     0.00000000    0.00000000    0.00000000
     atom   31 type  2   force =     0.00032848    0.00021036    0.02012726
     atom   32 type  2   force =     0.00043284    0.00064700   -0.02107001
     atom   33 type  1   force =     0.00000000    0.00000000    0.00000000
     atom   34 type  2   force =     0.00197343   -0.00495072    0.00854047
     atom   35 type  2   force =    -0.00007095    0.00085485   -0.02150840
     atom   36 type  3   force =     0.00000000    0.00000000    0.00000000
     The Hubbard contrib.    to forces
     atom    1 type  1   force =     0.00000000    0.00000000    0.00000000
     atom    2 type  2   force =     0.00000000    0.00000000    0.00000000
     atom    3 type  2   force =     0.00000000    0.00000000    0.00000000
     atom    4 type  1   force =     0.00000000    0.00000000    0.00000000
     atom    5 type  2   force =     0.00000000    0.00000000    0.00000000
     atom    6 type  2   force =     0.00000000    0.00000000    0.00000000
     atom    7 type  1   force =     0.00000000    0.00000000    0.00000000
     atom    8 type  2   force =     0.00000000    0.00000000    0.00000000
     atom    9 type  2   force =     0.00000000    0.00000000    0.00000000
     atom   10 type  1   force =     0.00000000    0.00000000    0.00000000
     atom   11 type  2   force =     0.00000000    0.00000000    0.00000000
     atom   12 type  2   force =     0.00000000    0.00000000    0.00000000
     atom   13 type  1   force =     0.00000000    0.00000000    0.00000000
     atom   14 type  2   force =     0.00000000    0.00000000    0.00000000
     atom   15 type  2   force =     0.00000000    0.00000000    0.00000000
     atom   16 type  1   force =     0.00000000    0.00000000    0.00000000
     atom   17 type  2   force =     0.00000000    0.00000000    0.00000000
     atom   18 type  2   force =     0.00000000    0.00000000    0.00000000
     atom   19 type  1   force =     0.00000000    0.00000000    0.00000000
     atom   20 type  2   force =     0.00000000    0.00000000    0.00000000
     atom   21 type  1   force =     0.00000000    0.00000000    0.00000000
     atom   22 type  2   force =     0.00000000    0.00000000    0.00000000
     atom   23 type  2   force =     0.00000000    0.00000000    0.00000000
     atom   24 type  1   force =     0.00000000    0.00000000    0.00000000
     atom   25 type  2   force =     0.00000000    0.00000000    0.00000000
     atom   26 type  2   force =     0.00000000    0.00000000    0.00000000
     atom   27 type  1   force =     0.00000000    0.00000000    0.00000000
     atom   28 type  2   force =     0.00000000    0.00000000    0.00000000
     atom   29 type  2   force =     0.00000000    0.00000000    0.00000000
     atom   30 type  1   force =     0.00000000    0.00000000    0.00000000
     atom   31 type  2   force =     0.00000000    0.00000000    0.00000000
     atom   32 type  2   force =     0.00000000    0.00000000    0.00000000
     atom   33 type  1   force =     0.00000000    0.00000000    0.00000000
     atom   34 type  2   force =     0.00000000    0.00000000    0.00000000
     atom   35 type  2   force =     0.00000000    0.00000000    0.00000000
     atom   36 type  3   force =     0.00000000    0.00000000    0.00000000
     The SCF correction term to forces
     atom    1 type  1   force =    -0.00001197    0.00013452   -0.00054289
     atom    2 type  2   force =    -0.00000659    0.00002700   -0.00030717
     atom    3 type  2   force =     0.00001511    0.00003020   -0.00015002
     atom    4 type  1   force =    -0.00005150   -0.00005347   -0.00054188
     atom    5 type  2   force =    -0.00002236    0.00001146   -0.00035183
     atom    6 type  2   force =    -0.00003613    0.00003177   -0.00008379
     atom    7 type  1   force =     0.00006147    0.00000946   -0.00060074
     atom    8 type  2   force =    -0.00001434   -0.00005656   -0.00030239
     atom    9 type  2   force =    -0.00000907   -0.00002521   -0.00014633
     atom   10 type  1   force =    -0.00002250    0.00005753   -0.00058889
     atom   11 type  2   force =    -0.00003153    0.00000726   -0.00030193
     atom   12 type  2   force =    -0.00000935   -0.00001645   -0.00013880
     atom   13 type  1   force =    -0.00000410    0.00004709   -0.00052970
     atom   14 type  2   force =     0.00001989    0.00001103   -0.00028253
     atom   15 type  2   force =     0.00002484    0.00000914   -0.00014283
     atom   16 type  1   force =     0.00005415   -0.00020559   -0.00054626
     atom   17 type  2   force =     0.00002886    0.00004361   -0.00033837
     atom   18 type  2   force =     0.00003656    0.00006571   -0.00009307
     atom   19 type  1   force =    -0.00006300    0.00004645   -0.00057668
     atom   20 type  2   force =     0.00001898   -0.00005585   -0.00013573
     atom   21 type  1   force =    -0.00000708   -0.00003286   -0.00050880
     atom   22 type  2   force =     0.00001990    0.00003118   -0.00031291
     atom   23 type  2   force =    -0.00003044    0.00001915   -0.00013678
     atom   24 type  1   force =    -0.00000997    0.00003408   -0.00059042
     atom   25 type  2   force =    -0.00001344   -0.00000150   -0.00031823
     atom   26 type  2   force =    -0.00003231   -0.00002730   -0.00013549
     atom   27 type  1   force =    -0.00000422   -0.00001746   -0.00054153
     atom   28 type  2   force =    -0.00000308    0.00000846   -0.00032604
     atom   29 type  2   force =     0.00000325    0.00002149   -0.00011386
     atom   30 type  1   force =    -0.00000742   -0.00015749   -0.00066821
     atom   31 type  2   force =    -0.00000662   -0.00006303   -0.00030729
     atom   32 type  2   force =    -0.00001117   -0.00003311   -0.00015382
     atom   33 type  1   force =     0.00006318    0.00007377   -0.00066518
     atom   34 type  2   force =    -0.00003264    0.00010650   -0.00021407
     atom   35 type  2   force =     0.00003374    0.00001694   -0.00015361
     atom   36 type  3   force =    -0.00000408    0.00000886   -0.00002887

     Total force =     0.455159     Total SCF correction =     0.002329

     BFGS Geometry Optimization
     Energy error            =      0.0E+00 Ry
     Gradient error          =      2.6E-01 Ry/Bohr

     number of scf cycles    =   1
     number of bfgs steps    =   0

     energy             new  =   -2205.4994782887 Ry

     new trust radius        =       0.3169748841 bohr
     new conv_thr            =       0.0000010000 Ry


ATOMIC_POSITIONS (angstrom)
Mo            6.5806757591        1.7747891788        2.8265511333
S             8.1684619912        0.8195461876        4.4351097817
S             8.1869815418        0.8158699874        1.2757749473
Mo            8.0998612230        4.4931124288        2.7181679196
S             6.4988257585        3.7199108848        4.3432408612
S             6.5550512316        3.5174125466        1.1217636844
Mo            6.4934454626        7.2172531753        2.6678060281
S             8.0802177596        6.3390497877        4.2513222766
S             8.0902355713        6.3065689785        1.0886474696
Mo            8.1487957588        9.9080053538        2.8208128714
S             6.4965603225        8.9414431591        4.3803086134
S             6.6176644366        9.0493857402        1.1434309037
Mo            3.4249262376        1.7496717472        2.7735075440
S             4.9793482151        0.8176100863        4.3565531977
S             5.0515462861        0.8474621796        1.2219382078
Mo            4.9800450293        4.5146494211        2.6332144699
S             3.4312367871        3.6726813369        4.2805497905
S             3.4350011170        3.5449121510        1.0658475426
Mo            3.4549644452        7.2163079115        2.6297713092
S             4.9849026031        6.3238635908        1.0377546488
Mo            5.0099306746        9.9055022866        2.7439684364
S             3.4729778257        8.9412787654        4.3244296086
S             3.4079540800        9.0660320357        1.1007060265
Mo            0.2911619639        1.7460699276        2.8374634974
S             1.8599631309        0.8038239025        4.4023398222
S             1.8545595416        0.8530043799        1.2066818831
Mo            1.8583440704        4.4926774193        2.6646836121
S             0.2725151587        3.6538917937        4.3345453640
S             0.2328153741        3.5282498281        1.1703267875
Mo            0.2664412024        7.2050266731        2.6857450186
S             1.9050682192        6.3105031569        4.2305214413
S             1.8544454966        6.3121381792        1.0479010366
Mo            1.8529174894        9.9430398513        2.7711495305
S             0.3375776421        8.9958456171        4.2864780355
S             0.2722196973        9.0470531727        1.1590560245
H             9.4214679080        9.8018813664        5.4882534940



     Writing config-only to output data dir ./MoS2-V-O.save/
     NEW-OLD atomic charge density approx. for the potential

     negative rho (up, down):  1.507E-04 0.000E+00

     total cpu time spent up to now is      129.2 secs

     Self-consistent Calculation

     iteration #  1     ecut=    80.00 Ry     beta= 0.70
     Davidson diagonalization with overlap
     c_bands:  1 eigenvalues not converged
     ethr =  1.00E-06,  avg # of iterations = 20.0

     negative rho (up, down):  7.693E-04 0.000E+00

     total cpu time spent up to now is      144.2 secs

     total energy              =   -2205.54982416 Ry
     estimated scf accuracy    <       0.03158029 Ry

     iteration #  2     ecut=    80.00 Ry     beta= 0.70
     Davidson diagonalization with overlap
     ethr =  1.03E-05,  avg # of iterations =  3.0

     negative rho (up, down):  1.216E-03 0.000E+00

     total cpu time spent up to now is      161.3 secs

     total energy              =   -2205.55058168 Ry
     estimated scf accuracy    <       0.00634863 Ry

     iteration #  3     ecut=    80.00 Ry     beta= 0.70
     Davidson diagonalization with overlap
     ethr =  2.07E-06,  avg # of iterations =  5.0

     negative rho (up, down):  1.799E-03 0.000E+00

     total cpu time spent up to now is      174.9 secs

     total energy              =   -2205.55098457 Ry
     estimated scf accuracy    <       0.00693420 Ry

     iteration #  4     ecut=    80.00 Ry     beta= 0.70
     Davidson diagonalization with overlap
     ethr =  2.07E-06,  avg # of iterations =  2.0

     negative rho (up, down):  2.103E-03 0.000E+00

     total cpu time spent up to now is      187.5 secs

     total energy              =   -2205.55124860 Ry
     estimated scf accuracy    <       0.00025644 Ry

     iteration #  5     ecut=    80.00 Ry     beta= 0.70
     Davidson diagonalization with overlap
     ethr =  8.35E-08,  avg # of iterations =  5.0

     negative rho (up, down):  2.118E-03 0.000E+00

     total cpu time spent up to now is      198.2 secs

     total energy              =   -2205.55127261 Ry
     estimated scf accuracy    <       0.00008525 Ry

     iteration #  6     ecut=    80.00 Ry     beta= 0.70
     Davidson diagonalization with overlap
     ethr =  2.78E-08,  avg # of iterations =  5.0

     negative rho (up, down):  1.921E-03 0.000E+00

     total cpu time spent up to now is      210.2 secs

     total energy              =   -2205.55127698 Ry
     estimated scf accuracy    <       0.00002380 Ry

     iteration #  7     ecut=    80.00 Ry     beta= 0.70
     Davidson diagonalization with overlap
     ethr =  7.75E-09,  avg # of iterations =  5.0

     negative rho (up, down):  1.539E-03 0.000E+00

     total cpu time spent up to now is      220.5 secs

     total energy              =   -2205.55127781 Ry
     estimated scf accuracy    <       0.00000661 Ry

     iteration #  8     ecut=    80.00 Ry     beta= 0.70
     Davidson diagonalization with overlap
     c_bands:  1 eigenvalues not converged
     ethr =  2.15E-09,  avg # of iterations = 20.0

     negative rho (up, down):  1.075E-03 0.000E+00

     total cpu time spent up to now is      230.9 secs

     total energy              =   -2205.55127657 Ry
     estimated scf accuracy    <       0.00000240 Ry

     iteration #  9     ecut=    80.00 Ry     beta= 0.70
     Davidson diagonalization with overlap
     ethr =  7.82E-10,  avg # of iterations =  2.0

     negative rho (up, down):  1.368E-04 0.000E+00

     total cpu time spent up to now is      233.0 secs

     End of self-consistent calculation

          k = 0.0000 0.0000 0.0000 (105382 PWs)   bands (ev):

   -62.8495 -62.8194 -62.8102 -62.7988 -62.7957 -62.7848 -62.7803 -62.7748
   -62.7669 -62.6879 -62.6724 -62.6065 -37.1778 -37.1308 -37.1124 -37.0937
   -37.0856 -37.0604 -37.0527 -37.0347 -37.0233 -37.0204 -37.0109 -37.0009
   -36.9904 -36.9830 -36.9793 -36.9724 -36.9668 -36.9607 -36.9521 -36.9496
   -36.9446 -36.9063 -36.8743 -36.8708 -36.8608 -36.8493 -36.8460 -36.8341
   -36.8249 -36.8227 -36.8027 -36.7788 -36.7763 -36.7354 -36.6373 -36.6326
   -16.2152 -15.6152 -15.0966 -15.0449 -14.9158 -14.7945 -14.6606 -14.4440
   -14.4306 -14.3929 -14.3449 -14.3055 -14.2925 -14.2331 -14.1621 -14.0852
   -14.0697 -14.0612 -13.9739 -13.9265 -13.8014 -13.7734 -13.7497  -8.7490
    -7.6734  -7.4325  -7.3986  -7.2346  -7.1682  -7.1546  -7.0878  -7.0411
    -6.8222  -6.7601  -6.7398  -6.7100  -6.5521  -6.5021  -6.4590  -6.4209
    -6.3042  -6.2235  -6.1952  -5.9346  -5.9050  -5.8662  -5.7771  -5.7634
    -5.7568  -5.6868  -5.6686  -5.6146  -5.5944  -5.5580  -5.4818  -5.4003
    -5.3691  -5.3313  -5.1874  -5.1427  -5.1066  -5.0550  -4.9283  -4.9194
    -4.8752  -4.7986  -4.5983  -4.4853  -4.3661  -4.3179  -4.2739  -4.2305
    -4.2006  -4.1311  -3.9985  -3.8805  -3.7555  -3.7139  -3.6914  -3.6615
    -3.6300  -3.5472  -3.5187  -3.4686  -3.4660  -3.4333  -3.4261  -3.3357
    -3.3309  -3.2423  -3.0915  -2.8596  -2.8296  -2.7832  -2.7498  -2.7038
    -2.6806  -2.6377  -2.6188  -2.5730  -2.5326  -2.2235  -1.9827  -1.9567
    -1.9385  -0.7513  -0.7121  -0.6577  -0.1427  -0.1185  -0.0140   0.0006
     0.1434   0.1703   0.2691   0.3001   0.3051   0.3505   0.4652   0.4803
     0.5014   0.5888   0.6200   0.6350   0.6663   0.6849   0.7307   0.7929
     0.8043   0.8366   0.9151   0.9487   0.9749   1.0367   1.0973   1.3715
     1.4431

     the Fermi energy is    -0.8075 ev

!    total energy              =   -2205.55127497 Ry
     estimated scf accuracy    <       0.00000099 Ry
     smearing contrib. (-TS)   =      -0.00988724 Ry
     internal energy E=F+TS    =   -2205.54138773 Ry

     The total energy is F=E-TS. E is the sum of the following terms:
     one-electron contribution =  -18064.14487381 Ry
     hartree contribution      =    9019.14871345 Ry
     xc contribution           =    -385.38317444 Ry
     ewald contribution        =    7224.83794707 Ry

     convergence has been achieved in   9 iterations

     negative rho (up, down):  1.368E-04 0.000E+00

     Forces acting on atoms (cartesian axes, Ry/au):

     atom    1 type  1   force =     0.00221173   -0.01161819   -0.00198329
     atom    2 type  2   force =    -0.00484465    0.00305659    0.00208477
     atom    3 type  2   force =    -0.01132706    0.00932386   -0.01082150
     atom    4 type  1   force =     0.00480744   -0.00136997    0.00150011
     atom    5 type  2   force =    -0.00039848   -0.00565340   -0.00655486
     atom    6 type  2   force =     0.00204061    0.00595493    0.00259310
     atom    7 type  1   force =     0.00136799   -0.00565427   -0.00238935
     atom    8 type  2   force =    -0.00290463   -0.00881444    0.01192537
     atom    9 type  2   force =     0.01098385    0.00195159    0.00386340
     atom   10 type  1   force =    -0.01004237    0.00700424   -0.02529609
     atom   11 type  2   force =     0.00494966   -0.00079942   -0.00716005
     atom   12 type  2   force =    -0.00486152    0.00081423    0.00029046
     atom   13 type  1   force =     0.00426165    0.00482305   -0.00387008
     atom   14 type  2   force =     0.00575619    0.00032692    0.00906342
     atom   15 type  2   force =    -0.00862539    0.00144738   -0.00747576
     atom   16 type  1   force =     0.00007179    0.00434607    0.00255126
     atom   17 type  2   force =     0.00593481    0.00155273    0.00177098
     atom   18 type  2   force =    -0.00348901   -0.00455984    0.01105258
     atom   19 type  1   force =     0.00526806   -0.00371690   -0.00161452
     atom   20 type  2   force =     0.00243652   -0.00407369   -0.00060930
     atom   21 type  1   force =    -0.00323762    0.00407397    0.00138627
     atom   22 type  2   force =     0.00267655   -0.00272986   -0.00033278
     atom   23 type  2   force =     0.00149289    0.00066675    0.00471482
     atom   24 type  1   force =    -0.00703974   -0.00273306   -0.00977662
     atom   25 type  2   force =     0.00904807    0.01207414    0.00378082
     atom   26 type  2   force =    -0.00732546    0.00015017   -0.00610461
     atom   27 type  1   force =    -0.00076199   -0.00263511    0.00699215
     atom   28 type  2   force =     0.00008257   -0.00268930   -0.00505093
     atom   29 type  2   force =     0.00266870    0.00131207   -0.00431900
     atom   30 type  1   force =    -0.00341859   -0.03175664   -0.02698296
     atom   31 type  2   force =     0.00458310   -0.00647591    0.01099428
     atom   32 type  2   force =    -0.00834173    0.00221622    0.00383975
     atom   33 type  1   force =     0.02272034    0.00549053   -0.01612352
     atom   34 type  2   force =    -0.02934912    0.04638785    0.07924147
     atom   35 type  2   force =    -0.00637408    0.00792379    0.00143272
     atom   36 type  3   force =     0.01897892   -0.02561705   -0.02261251
     The non-local contrib.  to forces
     atom    1 type  1   force =    -0.00040291    0.03325065   -0.01501866
     atom    2 type  2   force =     0.00187338   -0.00870443   -0.24508971
     atom    3 type  2   force =    -0.01236955   -0.00622734    0.26609137
     atom    4 type  1   force =    -0.00068237    0.00633456    0.00362973
     atom    5 type  2   force =     0.00682372   -0.03371995   -0.25343780
     atom    6 type  2   force =    -0.00182790    0.00655833    0.26370234
     atom    7 type  1   force =    -0.02883081   -0.01022593   -0.01711580
     atom    8 type  2   force =     0.00207693   -0.00984552   -0.25215686
     atom    9 type  2   force =     0.00970546   -0.01015068    0.27320433
     atom   10 type  1   force =    -0.00338191    0.00053671    0.00544326
     atom   11 type  2   force =     0.01611551    0.00866649   -0.25668817
     atom   12 type  2   force =    -0.01383726   -0.01409639    0.25919832
     atom   13 type  1   force =     0.00191960    0.02545151   -0.00919252
     atom   14 type  2   force =     0.00919105   -0.01067126   -0.26282988
     atom   15 type  2   force =    -0.01078881   -0.00516859    0.26214286
     atom   16 type  1   force =    -0.00151331    0.03797999   -0.02117708
     atom   17 type  2   force =     0.00124364   -0.02772709   -0.24874823
     atom   18 type  2   force =    -0.00342501   -0.00312346    0.27072050
     atom   19 type  1   force =     0.02684890   -0.01331814   -0.01466324
     atom   20 type  2   force =    -0.00059672   -0.01849704    0.26530241
     atom   21 type  1   force =     0.00237695    0.02475174    0.00492649
     atom   22 type  2   force =    -0.00807134    0.00609086   -0.25691469
     atom   23 type  2   force =     0.00782993   -0.01315886    0.26485772
     atom   24 type  1   force =     0.00374237    0.01779024   -0.01091890
     atom   25 type  2   force =     0.00003656   -0.00523450   -0.25553773
     atom   26 type  2   force =    -0.00080093   -0.01428593    0.26286039
     atom   27 type  1   force =    -0.00097706    0.00816899    0.00763531
     atom   28 type  2   force =    -0.00360027   -0.02518336   -0.27308871
     atom   29 type  2   force =     0.00618962   -0.00072747    0.26422247
     atom   30 type  1   force =    -0.00081519    0.01947115   -0.00778938
     atom   31 type  2   force =    -0.00187416   -0.00692375   -0.25206113
     atom   32 type  2   force =    -0.00567318   -0.01286988    0.27216648
     atom   33 type  1   force =    -0.00456243    0.00385088    0.00060994
     atom   34 type  2   force =    -0.09952246    0.19003590    0.13776125
     atom   35 type  2   force =    -0.00175809   -0.01033771    0.27277495
     atom   36 type  3   force =     0.01133307   -0.02297245   -0.03381533
     The ionic contribution  to forces
     atom    1 type  1   force =     0.05608531    0.68594722    5.83073474
     atom    2 type  2   force =    -0.61815775    0.49143954   39.26246688
     atom    3 type  2   force =    -0.16350024    0.13331535  -36.26270369
     atom    4 type  1   force =    -0.17982873    0.46160037    0.82600160
     atom    5 type  2   force =    -1.00056475    1.50705940   38.70685799
     atom    6 type  2   force =     0.28225172   -0.52920485  -37.92728475
     atom    7 type  1   force =    -2.85749496   -2.92564000    2.48684814
     atom    8 type  2   force =    -1.10034887   -0.06453447   37.55845038
     atom    9 type  2   force =     0.16741632   -0.15363109  -38.05909204
     atom   10 type  1   force =    -1.22259676   -0.09794877    4.69457850
     atom   11 type  2   force =    -0.64524741   -1.65433598   39.12937830
     atom   12 type  2   force =     0.25863469    0.60789504  -37.91871293
     atom   13 type  1   force =     0.51004676    1.06145825    2.82450421
     atom   14 type  2   force =    -0.01964569    0.06171762   38.64246131
     atom   15 type  2   force =     0.15596789    0.01496572  -36.86664151
     atom   16 type  1   force =     0.02155523    3.88147059    0.58641835
     atom   17 type  2   force =     0.84407385    1.49791398   37.99024483
     atom   18 type  2   force =    -0.12737468   -0.58229261  -38.48079523
     atom   19 type  1   force =     2.89134051   -2.65646199    0.60893278
     atom   20 type  2   force =     0.19574550   -0.22178988  -38.46589655
     atom   21 type  1   force =    -0.01730149   -0.00702468    1.31156560
     atom   22 type  2   force =     0.60685338   -1.73895773   38.50048777
     atom   23 type  2   force =    -0.02646409    0.61643745  -38.30848493
     atom   24 type  1   force =    -0.33480103    1.19731070    5.45037177
     atom   25 type  2   force =     0.66474526    0.42055660   39.24261680
     atom   26 type  2   force =    -0.20811405    0.11838481  -37.36296732
     atom   27 type  1   force =     0.24365343    0.37424324   -1.92133836
     atom   28 type  2   force =     0.06087983    0.93368126   38.26390338
     atom   29 type  2   force =    -0.23909978   -0.40149480  -37.32244030
     atom   30 type  1   force =    -0.29842251   -1.57823233   -1.18277104
     atom   31 type  2   force =     1.31814533   -0.17141779   37.43633637
     atom   32 type  2   force =    -0.29085904   -0.10061894  -38.65011468
     atom   33 type  1   force =     1.18206875   -0.29587350    1.78303283
     atom   34 type  2   force =     0.29287671   -1.76419825   37.15126326
     atom   35 type  2   force =    -0.19219381    0.51237961  -37.87443990
     atom   36 type  3   force =    -0.21032480    0.36588092    8.31622742
     The local contribution  to forces
     atom    1 type  1   force =    -0.05382192   -0.73025910   -5.81700540
     atom    2 type  2   force =     0.61165573   -0.48005486  -39.03412881
     atom    3 type  2   force =     0.16392289   -0.11795778   36.00659053
     atom    4 type  1   force =     0.18516889   -0.46930357   -0.82740569
     atom    5 type  2   force =     0.99391385   -1.48074175  -38.47984464
     atom    6 type  2   force =    -0.27869815    0.52963761   37.68709246
     atom    7 type  1   force =     2.88736158    2.92977444   -2.47145155
     atom    8 type  2   force =     1.09551709    0.06470254  -37.31398424
     atom    9 type  2   force =    -0.16571794    0.16504620   37.81065738
     atom   10 type  1   force =     1.21583545    0.10423675   -4.72482684
     atom   11 type  2   force =     0.63477853    1.64553922  -38.89960512
     atom   12 type  2   force =    -0.25083574   -0.59415161   37.68048007
     atom   13 type  1   force =    -0.50743116   -1.08157827   -2.81851900
     atom   14 type  2   force =     0.01672985   -0.05072789  -38.39066351
     atom   15 type  2   force =    -0.15448161   -0.00867085   36.61765564
     atom   16 type  1   force =    -0.02016212   -3.91505173   -0.56199143
     atom   17 type  2   force =    -0.83937704   -1.46992450  -37.75948330
     atom   18 type  2   force =     0.12729229    0.58142031   38.24215704
     atom   19 type  1   force =    -2.91303412    2.66568886   -0.59520163
     atom   20 type  2   force =    -0.19304963    0.23542887   38.22127314
     atom   21 type  1   force =     0.01140676   -0.01379132   -1.31441862
     atom   22 type  2   force =    -0.59639648    1.73053900  -38.26386243
     atom   23 type  2   force =     0.02072477   -0.60391433   38.06926597
     atom   24 type  1   force =     0.32409003   -1.21728477   -5.44865076
     atom   25 type  2   force =    -0.65596387   -0.40341988  -39.00301178
     atom   26 type  2   force =     0.20187065   -0.10468576   37.11476995
     atom   27 type  1   force =    -0.24310235   -0.38475156    1.92138647
     atom   28 type  2   force =    -0.05742544   -0.91271795  -38.01629504
     atom   29 type  2   force =     0.23613020    0.40407832   37.07463669
     atom   30 type  1   force =     0.29621971    1.52658136    1.16424477
     atom   31 type  2   force =    -1.31173362    0.17143477  -37.19319270
     atom   32 type  2   force =     0.28821258    0.11497262   38.40293351
     atom   33 type  1   force =    -1.15441975    0.29704814   -1.79924509
     atom   34 type  2   force =    -0.22871170    1.63252416  -37.20702852
     atom   35 type  2   force =     0.18765875   -0.49517533   37.62424522
     atom   36 type  3   force =     0.21796814   -0.36853832   -8.30489191
     The core correction contribution to forces
     atom    1 type  1   force =     0.00000000    0.00000000    0.00000000
     atom    2 type  2   force =    -0.00034861    0.00053378    0.01939835
     atom    3 type  2   force =     0.00056509    0.00027080   -0.02085526
     atom    4 type  1   force =     0.00000000    0.00000000    0.00000000
     atom    5 type  2   force =    -0.00067321    0.00188438    0.02029539
     atom    6 type  2   force =     0.00022210   -0.00090136   -0.02081508
     atom    7 type  1   force =     0.00000000    0.00000000    0.00000000
     atom    8 type  2   force =    -0.00013265    0.00063969    0.02016176
     atom    9 type  2   force =    -0.00038438    0.00049586   -0.02092144
     atom   10 type  1   force =     0.00000000    0.00000000    0.00000000
     atom   11 type  2   force =    -0.00087181   -0.00071878    0.02034095
     atom   12 type  2   force =     0.00107798    0.00117250   -0.02074166
     atom   13 type  1   force =     0.00000000    0.00000000    0.00000000
     atom   14 type  2   force =    -0.00054601    0.00008131    0.02063586
     atom   15 type  2   force =     0.00063872    0.00038916   -0.02062003
     atom   16 type  1   force =     0.00000000    0.00000000    0.00000000
     atom   17 type  2   force =     0.00007468    0.00147886    0.02015771
     atom   18 type  2   force =     0.00008176   -0.00039950   -0.02091541
     atom   19 type  1   force =     0.00000000    0.00000000    0.00000000
     atom   20 type  2   force =     0.00013434    0.00064414   -0.02117760
     atom   21 type  1   force =     0.00000000    0.00000000    0.00000000
     atom   22 type  2   force =     0.00036953   -0.00063281    0.02037001
     atom   23 type  2   force =    -0.00055775    0.00110030   -0.02081860
     atom   24 type  1   force =     0.00000000    0.00000000    0.00000000
     atom   25 type  2   force =     0.00039785    0.00031148    0.02028068
     atom   26 type  2   force =    -0.00019781    0.00081566   -0.02083402
     atom   27 type  1   force =     0.00000000    0.00000000    0.00000000
     atom   28 type  2   force =     0.00024866    0.00173482    0.02088989
     atom   29 type  2   force =    -0.00052898   -0.00038330   -0.02066108
     atom   30 type  1   force =     0.00000000    0.00000000    0.00000000
     atom   31 type  2   force =     0.00023396    0.00034081    0.02027733
     atom   32 type  2   force =     0.00015056    0.00065942   -0.02098404
     atom   33 type  1   force =     0.00000000    0.00000000    0.00000000
     atom   34 type  2   force =     0.00611212   -0.01225241   -0.00232609
     atom   35 type  2   force =    -0.00002001    0.00096021   -0.02117278
     atom   36 type  3   force =     0.00000000    0.00000000    0.00000000
     The Hubbard contrib.    to forces
     atom    1 type  1   force =     0.00000000    0.00000000    0.00000000
     atom    2 type  2   force =     0.00000000    0.00000000    0.00000000
     atom    3 type  2   force =     0.00000000    0.00000000    0.00000000
     atom    4 type  1   force =     0.00000000    0.00000000    0.00000000
     atom    5 type  2   force =     0.00000000    0.00000000    0.00000000
     atom    6 type  2   force =     0.00000000    0.00000000    0.00000000
     atom    7 type  1   force =     0.00000000    0.00000000    0.00000000
     atom    8 type  2   force =     0.00000000    0.00000000    0.00000000
     atom    9 type  2   force =     0.00000000    0.00000000    0.00000000
     atom   10 type  1   force =     0.00000000    0.00000000    0.00000000
     atom   11 type  2   force =     0.00000000    0.00000000    0.00000000
     atom   12 type  2   force =     0.00000000    0.00000000    0.00000000
     atom   13 type  1   force =     0.00000000    0.00000000    0.00000000
     atom   14 type  2   force =     0.00000000    0.00000000    0.00000000
     atom   15 type  2   force =     0.00000000    0.00000000    0.00000000
     atom   16 type  1   force =     0.00000000    0.00000000    0.00000000
     atom   17 type  2   force =     0.00000000    0.00000000    0.00000000
     atom   18 type  2   force =     0.00000000    0.00000000    0.00000000
     atom   19 type  1   force =     0.00000000    0.00000000    0.00000000
     atom   20 type  2   force =     0.00000000    0.00000000    0.00000000
     atom   21 type  1   force =     0.00000000    0.00000000    0.00000000
     atom   22 type  2   force =     0.00000000    0.00000000    0.00000000
     atom   23 type  2   force =     0.00000000    0.00000000    0.00000000
     atom   24 type  1   force =     0.00000000    0.00000000    0.00000000
     atom   25 type  2   force =     0.00000000    0.00000000    0.00000000
     atom   26 type  2   force =     0.00000000    0.00000000    0.00000000
     atom   27 type  1   force =     0.00000000    0.00000000    0.00000000
     atom   28 type  2   force =     0.00000000    0.00000000    0.00000000
     atom   29 type  2   force =     0.00000000    0.00000000    0.00000000
     atom   30 type  1   force =     0.00000000    0.00000000    0.00000000
     atom   31 type  2   force =     0.00000000    0.00000000    0.00000000
     atom   32 type  2   force =     0.00000000    0.00000000    0.00000000
     atom   33 type  1   force =     0.00000000    0.00000000    0.00000000
     atom   34 type  2   force =     0.00000000    0.00000000    0.00000000
     atom   35 type  2   force =     0.00000000    0.00000000    0.00000000
     atom   36 type  3   force =     0.00000000    0.00000000    0.00000000
     The SCF correction term to forces
     atom    1 type  1   force =     0.00035064   -0.00055914   -0.00066983
     atom    2 type  2   force =     0.00013200   -0.00015964   -0.00053781
     atom    3 type  2   force =     0.00005414   -0.00007936    0.00007969
     atom    4 type  1   force =     0.00014906   -0.00000352   -0.00070139
     atom    5 type  2   force =     0.00010130   -0.00013769   -0.00040167
     atom    6 type  2   force =     0.00009223   -0.00013700   -0.00007774
     atom    7 type  1   force =     0.00033157    0.00043504   -0.00064601
     atom    8 type  2   force =    -0.00001773    0.00022112   -0.00052153
     atom    9 type  2   force =    -0.00003621    0.00018912    0.00003929
     atom   10 type  1   force =     0.00010024    0.00017736   -0.00046689
     atom   11 type  2   force =     0.00017424    0.00004744   -0.00056187
     atom   12 type  2   force =     0.00009820   -0.00000751    0.00009079
     atom   13 type  1   force =    -0.00027416   -0.00051063   -0.00063864
     atom   14 type  2   force =     0.00002638   -0.00007505   -0.00051622
     atom   15 type  2   force =     0.00003783   -0.00007025    0.00001140
     atom   16 type  1   force =     0.00019138   -0.00005497   -0.00067445
     atom   17 type  2   force =    -0.00008094   -0.00019071   -0.00037590
     atom   18 type  2   force =    -0.00006399   -0.00016677   -0.00009019
     atom   19 type  1   force =     0.00011216    0.00037218   -0.00065830
     atom   20 type  2   force =     0.00020242    0.00013802   -0.00008656
     atom   21 type  1   force =     0.00027955    0.00013605   -0.00066306
     atom   22 type  2   force =    -0.00007914    0.00022863   -0.00038931
     atom   23 type  2   force =    -0.00004057    0.00020000   -0.00008122
     atom   24 type  1   force =    -0.00007172   -0.00055143   -0.00055460
     atom   25 type  2   force =    -0.00016834   -0.00014175   -0.00054302
     atom   26 type  2   force =    -0.00008393   -0.00008080    0.00009052
     atom   27 type  1   force =    -0.00033663   -0.00029796   -0.00066713
     atom   28 type  2   force =    -0.00002082   -0.00020625   -0.00043632
     atom   29 type  2   force =    -0.00002297   -0.00016288   -0.00005266
     atom   30 type  1   force =    -0.00040122    0.00042100   -0.00064317
     atom   31 type  2   force =    -0.00018902    0.00008786   -0.00034146
     atom   32 type  2   force =    -0.00017326    0.00007082   -0.00013738
     atom   33 type  1   force =    -0.00036683    0.00046281   -0.00049706
     atom   34 type  2   force =    -0.00010439    0.00027626   -0.00040429
     atom   35 type  2   force =    -0.00006153    0.00009482    0.00004937
     atom   36 type  3   force =     0.00000190    0.00001061   -0.00010856

     Total force =     0.130294     Total SCF correction =     0.003255
     Energy error            =      5.2E-02 Ry
     Gradient error          =      7.9E-02 Ry/Bohr

     number of scf cycles    =   2
     number of bfgs steps    =   1

     energy             old  =   -2205.4994782887 Ry
     energy             new  =   -2205.5512749709 Ry

     CASE: energy            _new < energy            _old

     new trust radius        =       0.0703249176 bohr
     new conv_thr            =       0.0000000792 Ry


ATOMIC_POSITIONS (angstrom)
Mo            6.5819316251        1.7689740444        2.8257677129
S             8.1659221494        0.8213378362        4.4360812829
S             8.1815747768        0.8202994428        1.2707671135
Mo            8.1022393968        4.4924100242        2.7188644570
S             6.4986003258        3.7172376089        4.3401200918
S             6.5560487429        3.5203524430        1.1229627986
Mo            6.4942089363        7.2146332042        2.6665529497
S             8.0788350854        6.3348441523        4.2571075878
S             8.0956113116        6.3075327375        1.0905997738
Mo            8.1437460308        9.9114286145        2.8083838845
S             6.4988683338        8.9410190483        4.3769379961
S             6.6154417903        9.0497835800        1.1437067368
Mo            3.4269977618        1.7519761421        2.7716264710
S             4.9821368533        0.8177860585        4.3609209736
S             5.0473668300        0.8481694256        1.2183455481
Mo            4.9800894405        4.5166861153        2.6343882907
S             3.4340745403        3.6734316693        4.2813895369
S             3.4332951635        3.5427029691        1.0711802233
Mo            3.4574054387        7.2146167122        2.6290000578
S             4.9860788322        6.3218856256        1.0374979589
Mo            5.0083629692        9.9075143790        2.7446220862
S             3.4742775563        8.9399363220        4.3242308683
S             3.4086136981        9.0663777907        1.1030395863
Mo            0.2877591221        1.7447681559        2.8325281964
S             1.8644659041        0.8097694358        4.4042278890
S             1.8509732342        0.8530146971        1.2037944813
Mo            1.8579017610        4.4913569880        2.6680467704
S             0.2725650013        3.6526479637        4.3321241524
S             0.2340937688        3.5288873962        1.1682934419
Mo            0.2646942049        7.1901091833        2.6728219931
S             1.9072681346        6.3074641481        4.2358513228
S             1.8503336562        6.3132193514        1.0497837387
Mo            1.8636007423        9.9456553683        2.7637429516
S             0.3259285512        9.0131033416        4.3173224354
S             0.2691349786        9.0508009504        1.1600606949
H             9.4286603636        9.7937912626        5.4836307649



     Writing config-only to output data dir ./MoS2-V-O.save/
     NEW-OLD atomic charge density approx. for the potential

     negative rho (up, down):  1.421E-04 0.000E+00

     total cpu time spent up to now is      236.6 secs

     Self-consistent Calculation

     iteration #  1     ecut=    80.00 Ry     beta= 0.70
     Davidson diagonalization with overlap
     ethr =  1.00E-06,  avg # of iterations =  9.0

     negative rho (up, down):  7.473E-05 0.000E+00

     total cpu time spent up to now is      252.2 secs

     total energy              =   -2205.56177714 Ry
     estimated scf accuracy    <       0.00174107 Ry

     iteration #  2     ecut=    80.00 Ry     beta= 0.70
     Davidson diagonalization with overlap
     ethr =  5.67E-07,  avg # of iterations =  2.0

     negative rho (up, down):  6.117E-05 0.000E+00

     total cpu time spent up to now is      265.0 secs

     total energy              =   -2205.56182893 Ry
     estimated scf accuracy    <       0.00053412 Ry

     iteration #  3     ecut=    80.00 Ry     beta= 0.70
     Davidson diagonalization with overlap
     ethr =  1.74E-07,  avg # of iterations =  3.0

     negative rho (up, down):  4.745E-05 0.000E+00

     total cpu time spent up to now is      281.0 secs

     total energy              =   -2205.56185468 Ry
     estimated scf accuracy    <       0.00043499 Ry

     iteration #  4     ecut=    80.00 Ry     beta= 0.70
     Davidson diagonalization with overlap
     ethr =  1.42E-07,  avg # of iterations =  2.0

     negative rho (up, down):  4.334E-05 0.000E+00

     total cpu time spent up to now is      294.6 secs

     total energy              =   -2205.56187907 Ry
     estimated scf accuracy    <       0.00002512 Ry

     iteration #  5     ecut=    80.00 Ry     beta= 0.70
     Davidson diagonalization with overlap
     ethr =  8.18E-09,  avg # of iterations =  9.0

     negative rho (up, down):  4.386E-05 0.000E+00

     total cpu time spent up to now is      309.0 secs

     total energy              =   -2205.56188987 Ry
     estimated scf accuracy    <       0.00000874 Ry

     iteration #  6     ecut=    80.00 Ry     beta= 0.70
     Davidson diagonalization with overlap
     ethr =  2.85E-09,  avg # of iterations =  2.0

     negative rho (up, down):  4.590E-05 0.000E+00

     total cpu time spent up to now is      319.7 secs

     total energy              =   -2205.56189027 Ry
     estimated scf accuracy    <       0.00000283 Ry

     iteration #  7     ecut=    80.00 Ry     beta= 0.70
     Davidson diagonalization with overlap
     ethr =  9.23E-10,  avg # of iterations =  6.0

     negative rho (up, down):  4.951E-05 0.000E+00

     total cpu time spent up to now is      333.4 secs

     total energy              =   -2205.56189071 Ry
     estimated scf accuracy    <       0.00000113 Ry

     iteration #  8     ecut=    80.00 Ry     beta= 0.70
     Davidson diagonalization with overlap
     ethr =  3.68E-10,  avg # of iterations =  5.0

     negative rho (up, down):  6.401E-05 0.000E+00

     total cpu time spent up to now is      344.8 secs

     total energy              =   -2205.56189078 Ry
     estimated scf accuracy    <       0.00000043 Ry

     iteration #  9     ecut=    80.00 Ry     beta= 0.70
     Davidson diagonalization with overlap
     ethr =  1.42E-10,  avg # of iterations =  5.0

     negative rho (up, down):  8.632E-05 0.000E+00

     total cpu time spent up to now is      357.9 secs

     total energy              =   -2205.56189079 Ry
     estimated scf accuracy    <       0.00000010 Ry

     iteration # 10     ecut=    80.00 Ry     beta= 0.70
     Davidson diagonalization with overlap
     ethr =  3.21E-11,  avg # of iterations =  4.0

     negative rho (up, down):  1.371E-04 0.000E+00

     total cpu time spent up to now is      360.3 secs

     End of self-consistent calculation

          k = 0.0000 0.0000 0.0000 (105382 PWs)   bands (ev):

   -62.8477 -62.8233 -62.8086 -62.7940 -62.7933 -62.7836 -62.7821 -62.7739
   -62.7599 -62.6826 -62.6670 -62.6031 -37.1730 -37.1242 -37.1112 -37.0912
   -37.0820 -37.0600 -37.0534 -37.0317 -37.0225 -37.0124 -37.0095 -36.9943
   -36.9877 -36.9785 -36.9758 -36.9705 -36.9644 -36.9596 -36.9503 -36.9468
   -36.9414 -36.9032 -36.8693 -36.8674 -36.8571 -36.8478 -36.8416 -36.8285
   -36.8206 -36.8200 -36.7974 -36.7773 -36.7733 -36.7328 -36.6318 -36.6282
   -16.2179 -15.6281 -15.0921 -15.0490 -14.9139 -14.7925 -14.6557 -14.4390
   -14.4249 -14.3854 -14.3480 -14.3074 -14.2929 -14.2356 -14.1566 -14.0860
   -14.0665 -14.0614 -13.9720 -13.9217 -13.8062 -13.7740 -13.7420  -8.8199
    -7.6506  -7.4223  -7.3655  -7.2304  -7.1628  -7.1535  -7.0896  -7.0458
    -6.8042  -6.7565  -6.7370  -6.7024  -6.5499  -6.4960  -6.4530  -6.4223
    -6.3129  -6.2297  -6.1956  -5.9211  -5.8954  -5.8617  -5.7712  -5.7590
    -5.7475  -5.6844  -5.6548  -5.6132  -5.5931  -5.5584  -5.4789  -5.3972
    -5.3568  -5.3208  -5.1710  -5.1251  -5.0965  -5.0532  -4.9236  -4.9203
    -4.8792  -4.7947  -4.5916  -4.4858  -4.3828  -4.2998  -4.2827  -4.2236
    -4.2056  -4.1394  -4.0045  -3.8808  -3.7491  -3.7127  -3.6846  -3.6618
    -3.6287  -3.5408  -3.5174  -3.4699  -3.4606  -3.4362  -3.4252  -3.3347
    -3.3200  -3.2427  -3.0968  -2.8539  -2.8273  -2.7759  -2.7308  -2.7031
    -2.6709  -2.6331  -2.6166  -2.5705  -2.5320  -2.2190  -1.9826  -1.9524
    -1.9377  -0.7468  -0.7075  -0.6555  -0.1333  -0.1312  -0.0079  -0.0019
     0.1380   0.1622   0.2698   0.3038   0.3135   0.3524   0.4679   0.4857
     0.5076   0.5894   0.6265   0.6405   0.6725   0.6981   0.7173   0.7849
     0.8119   0.8341   0.9280   0.9470   0.9881   1.0377   1.0984   1.3755
     1.4626

     the Fermi energy is    -0.8034 ev

!    total energy              =   -2205.56189069 Ry
     estimated scf accuracy    <       0.00000004 Ry
     smearing contrib. (-TS)   =      -0.00991409 Ry
     internal energy E=F+TS    =   -2205.55197660 Ry

     The total energy is F=E-TS. E is the sum of the following terms:
     one-electron contribution =  -18059.11971903 Ry
     hartree contribution      =    9016.73870978 Ry
     xc contribution           =    -385.37786976 Ry
     ewald contribution        =    7222.20690241 Ry

     convergence has been achieved in  10 iterations

     negative rho (up, down):  1.371E-04 0.000E+00

     Forces acting on atoms (cartesian axes, Ry/au):

     atom    1 type  1   force =    -0.00057595   -0.00703399   -0.00249027
     atom    2 type  2   force =    -0.00478550    0.00248362   -0.00185301
     atom    3 type  2   force =    -0.01013646    0.00804965   -0.01283525
     atom    4 type  1   force =     0.00297368   -0.00069414    0.00106083
     atom    5 type  2   force =     0.00016113   -0.00592674   -0.00576650
     atom    6 type  2   force =     0.00163605    0.00452410    0.00275966
     atom    7 type  1   force =     0.00271909   -0.00481242    0.00001434
     atom    8 type  2   force =    -0.00157509   -0.00769366    0.00804234
     atom    9 type  2   force =     0.00767769   -0.00069704    0.00041268
     atom   10 type  1   force =    -0.00498317    0.00719342   -0.00997024
     atom   11 type  2   force =     0.00457696   -0.00044857   -0.00862703
     atom   12 type  2   force =    -0.00614895   -0.00009396   -0.00257184
     atom   13 type  1   force =     0.00279030    0.00256910   -0.00140101
     atom   14 type  2   force =     0.00433633    0.00044609    0.00660192
     atom   15 type  2   force =    -0.00702546    0.00136491   -0.00650434
     atom   16 type  1   force =     0.00044068    0.00301286    0.00200620
     atom   17 type  2   force =     0.00548964    0.00122907    0.00220875
     atom   18 type  2   force =    -0.00264088   -0.00291478    0.00894894
     atom   19 type  1   force =     0.00256340   -0.00320195    0.00127720
     atom   20 type  2   force =     0.00233579   -0.00378080   -0.00218301
     atom   21 type  1   force =    -0.00197744    0.00258850    0.00242808
     atom   22 type  2   force =     0.00236043   -0.00239159   -0.00157449
     atom   23 type  2   force =     0.00276565   -0.00007987    0.00145243
     atom   24 type  1   force =    -0.00447942   -0.00239572   -0.00585173
     atom   25 type  2   force =     0.00805329    0.01089804   -0.00088498
     atom   26 type  2   force =    -0.00467909    0.00095389   -0.00629878
     atom   27 type  1   force =     0.00079577   -0.00212054    0.00548765
     atom   28 type  2   force =    -0.00015621   -0.00391754   -0.00409693
     atom   29 type  2   force =     0.00246664    0.00122203   -0.00409113
     atom   30 type  1   force =    -0.00231026   -0.01569579   -0.01090548
     atom   31 type  2   force =     0.00256467   -0.00417555    0.00686145
     atom   32 type  2   force =    -0.00529146   -0.00046075    0.00144381
     atom   33 type  1   force =     0.00856409    0.00314934   -0.00071168
     atom   34 type  2   force =    -0.02015409    0.03060959    0.04760995
     atom   35 type  2   force =    -0.00356013    0.00442186    0.00232842
     atom   36 type  3   force =     0.01520830   -0.01618068   -0.01232696
     The non-local contrib.  to forces
     atom    1 type  1   force =    -0.00032920    0.03192616   -0.01501469
     atom    2 type  2   force =     0.00070616   -0.00760357   -0.24741561
     atom    3 type  2   force =    -0.01111470   -0.00776466    0.26423438
     atom    4 type  1   force =     0.00017043    0.00727563    0.00301078
     atom    5 type  2   force =     0.00748178   -0.03409853   -0.25338376
     atom    6 type  2   force =    -0.00218061    0.00486600    0.26438406
     atom    7 type  1   force =    -0.02829539   -0.01023188   -0.01779682
     atom    8 type  2   force =     0.00129967   -0.01007851   -0.25366688
     atom    9 type  2   force =     0.00748662   -0.01236413    0.27098345
     atom   10 type  1   force =    -0.00484105    0.00101350    0.00377303
     atom   11 type  2   force =     0.01504280    0.00889370   -0.25703520
     atom   12 type  2   force =    -0.01466168   -0.01461940    0.25786949
     atom   13 type  1   force =     0.00260579    0.02655317   -0.00938672
     atom   14 type  2   force =     0.00802718   -0.01060557   -0.26391374
     atom   15 type  2   force =    -0.00945866   -0.00555334    0.26216600
     atom   16 type  1   force =    -0.00165345    0.03878710   -0.02215166
     atom   17 type  2   force =     0.00090490   -0.02790186   -0.24859735
     atom   18 type  2   force =    -0.00262890   -0.00216029    0.26962515
     atom   19 type  1   force =     0.02662228   -0.01283816   -0.01483566
     atom   20 type  2   force =    -0.00069862   -0.01788187    0.26393020
     atom   21 type  1   force =     0.00175472    0.02539605    0.00403429
     atom   22 type  2   force =    -0.00663898    0.00601964   -0.25669399
     atom   23 type  2   force =     0.00878208   -0.01366770    0.26276207
[...]
     atom   27 type  1   force =     0.00001821    0.00739052    0.00266033
     atom   28 type  2   force =     0.00077263   -0.01501199   -0.27026446
     atom   29 type  2   force =    -0.00108010   -0.01029237    0.26967822
     atom   30 type  1   force =    -0.00044919    0.00899657   -0.01475075
     atom   31 type  2   force =    -0.00749273   -0.00292821   -0.25900161
     atom   32 type  2   force =     0.00098767   -0.01174957    0.27024978
     atom   33 type  1   force =     0.00526605    0.00640403   -0.00679297
     atom   34 type  2   force =    -0.02185599    0.19363836    0.13165893
     atom   35 type  2   force =    -0.00157475   -0.01312462    0.27560349
     atom   36 type  3   force =     0.00418586   -0.02872082   -0.04894220
     The ionic contribution  to forces
     atom    1 type  1   force =    -0.32778913    0.64969576    2.06399870
     atom    2 type  2   force =    -0.42736712    0.37771137   38.73152894
     atom    3 type  2   force =     0.08025881   -0.13721166  -37.62624062
     atom    4 type  1   force =    -0.35265332    0.42125162    0.07887113
     atom    5 type  2   force =    -0.87486223    1.28562004   38.34472785
     atom    6 type  2   force =     0.07803318   -0.29821955  -38.18231311
     atom    7 type  1   force =    -3.28273691   -1.74661168    1.40522587
     atom    8 type  2   force =    -1.23768867    0.21769506   38.23433181
     atom    9 type  2   force =     0.15039033    0.14233491  -38.27366097
     atom   10 type  1   force =    -0.46677601   -1.05711504    2.79804103
     atom   11 type  2   force =    -0.67004623   -1.69461758   38.35451948
     atom   12 type  2   force =     0.13853368    0.24381061  -37.91279657
     atom   13 type  1   force =     0.33021598    0.67676225    2.80799754
     atom   14 type  2   force =     0.03830352   -0.08099536   38.55593435
     atom   15 type  2   force =    -0.03524360   -0.21134269  -37.40448074
     atom   16 type  1   force =    -0.03536106    3.96619820    1.73343739
     atom   17 type  2   force =     0.91091801    1.31865392   38.39936436
     atom   18 type  2   force =    -0.10831516   -0.30818217  -38.02262535
     atom   19 type  1   force =     3.27218680   -1.74829124    2.09513009
     atom   20 type  2   force =    -0.05957861    0.15733164  -38.27619134
     atom   21 type  1   force =    -0.03088306   -0.70571281    1.38105558
     atom   22 type  2   force =     0.65930306   -1.67416654   38.51227099
     atom   23 type  2   force =    -0.22132857    0.23483271  -37.70993750
     atom   24 type  1   force =    -0.02657956    0.44857958    2.08710519
     atom   25 type  2   force =     0.38861479    0.35874165   38.97777748
     atom   26 type  2   force =    -0.03180084   -0.18242012  -37.49248576
     atom   27 type  1   force =     0.39233712    0.44330325    0.50305833
     atom   28 type  2   force =    -0.02797338    0.64046765   38.13041055
     atom   29 type  2   force =     0.03226464   -0.17202665  -37.73970794
     atom   30 type  1   force =     0.07321682    0.49915037    2.08360713
     atom   31 type  2   force =     1.18145742    0.24133212   38.32353228
     atom   32 type  2   force =    -0.10422631    0.15925907  -38.15771218
     atom   33 type  1   force =     0.50234787   -1.16932810    4.02408729
     atom   34 type  2   force =     0.10287267   -1.95014852   37.39621399
     atom   35 type  2   force =     0.07249500    0.15085830  -36.75074494
     atom   36 type  3   force =    -0.08253995    0.50279964    8.52666968
     The local contribution  to forces
     atom    1 type  1   force =     0.33334864   -0.67789060   -2.05783981
     atom    2 type  2   force =     0.42373511   -0.36477737  -38.50093143
     atom    3 type  2   force =    -0.07636306    0.14634788   37.37956578
     atom    4 type  1   force =     0.35218323   -0.42815074   -0.08174306
     atom    5 type  2   force =     0.87231287   -1.26251991  -38.11242007
     atom    6 type  2   force =    -0.07998823    0.30145428   37.93942413
     atom    7 type  1   force =     3.31000485    1.75110652   -1.39377020
     atom    8 type  2   force =     1.22897611   -0.21510095  -37.99641727
     atom    9 type  2   force =    -0.15129569   -0.13096748   38.02454784
     atom   10 type  1   force =     0.47353870    1.05039565   -2.79518242
     atom   11 type  2   force =     0.65952428    1.68834484  -38.12253614
     atom   12 type  2   force =    -0.13149842   -0.23037254   37.67058339
     atom   13 type  1   force =    -0.33455541   -0.70488358   -2.80188427
     atom   14 type  2   force =    -0.03732966    0.09246558  -38.30967768
     atom   15 type  2   force =     0.03459104    0.21916432   37.16128707
     atom   16 type  1   force =     0.03468640   -4.01227898   -1.70567142
     atom   17 type  2   force =    -0.90816061   -1.29504441  -38.16694409
     atom   18 type  2   force =     0.10947779    0.31137976   37.77898319
     atom   19 type  1   force =    -3.30060914    1.75343819   -2.08237532
     atom   20 type  2   force =     0.05893776   -0.14703063   38.03113131
     atom   21 type  1   force =     0.03106834    0.68154162   -1.38392872
     atom   22 type  2   force =    -0.64835317    1.66776091  -38.27914330
     atom   23 type  2   force =     0.21337600   -0.22108162   37.46766260
     atom   24 type  1   force =     0.02648983   -0.46546895   -2.08831710
     atom   25 type  2   force =    -0.38540676   -0.34385788  -38.74470761
     atom   26 type  2   force =     0.02833967    0.19154436   37.24648028
     atom   27 type  1   force =    -0.39255284   -0.45124992   -0.50561795
     atom   28 type  2   force =     0.02701651   -0.62720874  -37.88016419
     atom   29 type  2   force =    -0.03171265    0.18215231   37.49175737
     atom   30 type  1   force =    -0.07313175   -0.50764453   -2.06801116
     atom   31 type  2   force =    -1.17412064   -0.23811851  -38.08610285
     atom   32 type  2   force =     0.10503277   -0.14825014   37.90906952
     atom   33 type  1   force =    -0.50754169    1.16291527   -4.01788021
     atom   34 type  2   force =    -0.08168685    1.77103954  -37.52407484
     atom   35 type  2   force =    -0.07129044   -0.13903620   36.49761799
     atom   36 type  3   force =     0.08090390   -0.47604259   -8.47900855
     The core correction contribution to forces
     atom    1 type  1   force =     0.00000000    0.00000000    0.00000000
     atom    2 type  2   force =    -0.00040168    0.00105274    0.01991533
     atom    3 type  2   force =     0.00025172    0.00041627   -0.02098140
     atom    4 type  1   force =     0.00000000    0.00000000    0.00000000
     atom    5 type  2   force =    -0.00031633    0.00116665    0.02025885
     atom    6 type  2   force =    -0.00002655   -0.00020494   -0.02074884
     atom    7 type  1   force =     0.00000000    0.00000000    0.00000000
     atom    8 type  2   force =    -0.00063910    0.00024342    0.02054313
     atom    9 type  2   force =     0.00028600    0.00058224   -0.02108540
     atom   10 type  1   force =     0.00000000    0.00000000    0.00000000
     atom   11 type  2   force =    -0.00058500   -0.00084746    0.02011052
     atom   12 type  2   force =     0.00060507    0.00094373   -0.02079543
     atom   13 type  1   force =     0.00000000    0.00000000    0.00000000
     atom   14 type  2   force =     0.00009373    0.00023258    0.02075680
     atom   15 type  2   force =    -0.00012467    0.00025990   -0.02070462
     atom   16 type  1   force =     0.00000000    0.00000000    0.00000000
     atom   17 type  2   force =     0.00039118    0.00124750    0.02023024
     atom   18 type  2   force =     0.00000925   -0.00024481   -0.02071801
     atom   19 type  1   force =     0.00000000    0.00000000    0.00000000
     atom   20 type  2   force =    -0.00008864    0.00052865   -0.02118275
     atom   21 type  1   force =     0.00000000    0.00000000    0.00000000
     atom   22 type  2   force =     0.00064652   -0.00082635    0.02020258
     atom   23 type  2   force =    -0.00071871    0.00093998   -0.02078338
     atom   24 type  1   force =     0.00000000    0.00000000    0.00000000
     atom   25 type  2   force =     0.00032805    0.00116763    0.02012723
     atom   26 type  2   force =    -0.00015870    0.00036079   -0.02099000
     atom   27 type  1   force =     0.00000000    0.00000000    0.00000000
     atom   28 type  2   force =    -0.00006356    0.00104493    0.02093178
     atom   29 type  2   force =     0.00007382    0.00037329   -0.02087090
     atom   30 type  1   force =     0.00000000    0.00000000    0.00000000
     atom   31 type  2   force =     0.00048805    0.00028400    0.02054247
     atom   32 type  2   force =    -0.00024448    0.00059762   -0.02108916
     atom   33 type  1   force =     0.00000000    0.00000000    0.00000000
     atom   34 type  2   force =     0.00139314   -0.01261408   -0.00409202
     atom   35 type  2   force =     0.00014013    0.00082849   -0.02124966
     atom   36 type  3   force =     0.00000000    0.00000000    0.00000000
     The Hubbard contrib.    to forces
     atom    1 type  1   force =     0.00000000    0.00000000    0.00000000
     atom    2 type  2   force =     0.00000000    0.00000000    0.00000000
     atom    3 type  2   force =     0.00000000    0.00000000    0.00000000
     atom    4 type  1   force =     0.00000000    0.00000000    0.00000000
     atom    5 type  2   force =     0.00000000    0.00000000    0.00000000
     atom    6 type  2   force =     0.00000000    0.00000000    0.00000000
     atom    7 type  1   force =     0.00000000    0.00000000    0.00000000
     atom    8 type  2   force =     0.00000000    0.00000000    0.00000000
     atom    9 type  2   force =     0.00000000    0.00000000    0.00000000
     atom   10 type  1   force =     0.00000000    0.00000000    0.00000000
     atom   11 type  2   force =     0.00000000    0.00000000    0.00000000
     atom   12 type  2   force =     0.00000000    0.00000000    0.00000000
     atom   13 type  1   force =     0.00000000    0.00000000    0.00000000
     atom   14 type  2   force =     0.00000000    0.00000000    0.00000000
     atom   15 type  2   force =     0.00000000    0.00000000    0.00000000
     atom   16 type  1   force =     0.00000000    0.00000000    0.00000000
     atom   17 type  2   force =     0.00000000    0.00000000    0.00000000
     atom   18 type  2   force =     0.00000000    0.00000000    0.00000000
     atom   19 type  1   force =     0.00000000    0.00000000    0.00000000
     atom   20 type  2   force =     0.00000000    0.00000000    0.00000000
     atom   21 type  1   force =     0.00000000    0.00000000    0.00000000
     atom   22 type  2   force =     0.00000000    0.00000000    0.00000000
     atom   23 type  2   force =     0.00000000    0.00000000    0.00000000
     atom   24 type  1   force =     0.00000000    0.00000000    0.00000000
     atom   25 type  2   force =     0.00000000    0.00000000    0.00000000
     atom   26 type  2   force =     0.00000000    0.00000000    0.00000000
     atom   27 type  1   force =     0.00000000    0.00000000    0.00000000
     atom   28 type  2   force =     0.00000000    0.00000000    0.00000000
     atom   29 type  2   force =     0.00000000    0.00000000    0.00000000
     atom   30 type  1   force =     0.00000000    0.00000000    0.00000000
     atom   31 type  2   force =     0.00000000    0.00000000    0.00000000
     atom   32 type  2   force =     0.00000000    0.00000000    0.00000000
     atom   33 type  1   force =     0.00000000    0.00000000    0.00000000
     atom   34 type  2   force =     0.00000000    0.00000000    0.00000000
     atom   35 type  2   force =     0.00000000    0.00000000    0.00000000
     atom   36 type  3   force =     0.00000000    0.00000000    0.00000000
     The SCF correction term to forces
     atom    1 type  1   force =    -0.00002321    0.00003431    0.00005868
     atom    2 type  2   force =    -0.00001232    0.00000593    0.00001367
     atom    3 type  2   force =    -0.00000658   -0.00000077    0.00000906
     atom    4 type  1   force =    -0.00009099   -0.00000026    0.00002298
     atom    5 type  2   force =    -0.00002231    0.00001157   -0.00000314
     atom    6 type  2   force =    -0.00001544    0.00002460    0.00003141
     atom    7 type  1   force =    -0.00009344   -0.00003880    0.00001371
     atom    8 type  2   force =    -0.00005924   -0.00000780    0.00000791
     atom    9 type  2   force =    -0.00005200   -0.00000419    0.00000166
     atom   10 type  1   force =    -0.00005242   -0.00000248    0.00002580
     atom   11 type  2   force =    -0.00001350   -0.00002124   -0.00001356
     atom   12 type  2   force =    -0.00000930   -0.00003415    0.00002959
     atom   13 type  1   force =     0.00003507    0.00002778    0.00006891
     atom   14 type  2   force =    -0.00000101    0.00000983    0.00001943
     atom   15 type  2   force =     0.00000697    0.00000413    0.00002201
     atom   16 type  1   force =     0.00002240    0.00006288    0.00003706
     atom   17 type  2   force =     0.00002897    0.00000335    0.00000081
     atom   18 type  2   force =     0.00002087    0.00002852    0.00002306
     atom   19 type  1   force =     0.00011177   -0.00003410    0.00000876
     atom   20 type  2   force =     0.00000723    0.00000250    0.00005010
     atom   21 type  1   force =     0.00001625   -0.00005101    0.00004631
     atom   22 type  2   force =     0.00001610   -0.00001024    0.00000459
     atom   23 type  2   force =     0.00001431   -0.00003223    0.00001653
     atom   24 type  1   force =    -0.00001104    0.00000762    0.00004458
     atom   25 type  2   force =     0.00001199    0.00000081    0.00002618
     atom   26 type  2   force =     0.00000151   -0.00000018    0.00000972
     atom   27 type  1   force =     0.00007081   -0.00000723    0.00000932
     atom   28 type  2   force =    -0.00000591   -0.00000866    0.00001708
     atom   29 type  2   force =    -0.00000464    0.00000711    0.00000268
     atom   30 type  1   force =    -0.00002103   -0.00001955   -0.00002481
     atom   31 type  2   force =     0.00004653   -0.00000472    0.00001499
     atom   32 type  2   force =     0.00004412   -0.00000615   -0.00001549
     atom   33 type  1   force =     0.00003398    0.00001062    0.00003495
     atom   34 type  2   force =    -0.00000612    0.00002244    0.00004960
     atom   35 type  2   force =    -0.00000419    0.00001313   -0.00001720
     atom   36 type  3   force =    -0.00000012   -0.00000037    0.00000234

     Total force =     0.006945     Total SCF correction =     0.000317
     Energy error            =      9.6E-05 Ry
     Gradient error          =      2.6E-03 Ry/Bohr

     bfgs converged in  17 scf cycles and  16 bfgs steps
     (criteria: energy <  1.0E-04 Ry, force <  1.0E-02 Ry/Bohr)

     End of BFGS Geometry Optimization

     Final energy             =   -2205.5802211099 Ry

     File ./MoS2-V-O.bfgs deleted, as requested
Begin final coordinates

ATOMIC_POSITIONS (angstrom)
Mo            6.5544591024        1.7630337532        2.7507676045
S             8.1146122781        0.8673664253        4.3677692021
S             8.1366206380        0.8393211923        1.1690332511
Mo            8.1214406966        4.4820438467        2.6993528554
S             6.5201059943        3.6677280635        4.3035703584
S             6.5528973857        3.5614830031        1.0978684021
Mo            6.5486641755        7.1802284165        2.6477702123
S             8.0736055578        6.2808421487        4.2966212722
S             8.1643406112        6.3051319036        1.0867551431
Mo            8.1181303637        9.9542207749        2.7774844384
S             6.5141393508        8.9264913799        4.3213908619
S             6.5877530412        9.0423724803        1.1205085086
Mo            3.4256566496        1.7620073042        2.7649179919
S             4.9950736461        0.8162385904        4.3440182226
S             4.9836908757        0.8340492871        1.1736444782
Mo            4.9958715193        4.5371424093        2.6515438122
S             3.4723874869        3.6737316748        4.3096614951
S             3.4331647306        3.5580487192        1.1102387308
Mo            3.4354007285        7.1799102240        2.6614882146
S             4.9878657472        6.3237158362        1.0486089394
Mo            4.9897321056        9.8981737285        2.7358540681
S             3.4740979316        8.9267781339        4.3349704341
S             3.3850765870        9.0401219191        1.1348742512
Mo            0.2642800424        1.7383853351        2.7661512825
S             1.8616259861        0.8735942359        4.3854245795
S             1.8506583768        0.8349120118        1.1807775671
Mo            1.8658357536        4.4844195005        2.7078788385
S             0.2626804633        3.6040993261        4.3068058632
S             0.2701417654        3.5448809413        1.1374083515
Mo            0.2609366765        7.1794633474        2.7273363356
S             1.9025087394        6.2847918966        4.3053935657
S             1.8231415744        6.3042663289        1.0952374322
Mo            1.8593937430        9.9567262063        2.7991842242
S             0.2475339686        9.1063480239        4.3981176732
S             0.2682436022        9.0528019195        1.2102536135
H             9.6073391171        9.8106539004        5.5976407447
End final coordinates



     Writing all to output data dir ./MoS2-V-O.save/
 
     init_run     :      3.08s CPU      3.37s WALL (       1 calls)
     electrons    :   1626.19s CPU   1818.39s WALL (      17 calls)
     update_pot   :     23.14s CPU     24.61s WALL (      16 calls)
     forces       :     23.61s CPU     27.72s WALL (      17 calls)

     Called by init_run:
     wfcinit      :      0.38s CPU      0.44s WALL (       1 calls)
     potinit      :      2.03s CPU      2.15s WALL (       1 calls)
     hinit0       :      0.16s CPU      0.18s WALL (       1 calls)

     Called by electrons:
     c_bands      :    209.26s CPU    212.65s WALL (     159 calls)
     sum_band     :     47.33s CPU     62.47s WALL (     159 calls)
     v_of_rho     :     76.57s CPU     93.59s WALL (     168 calls)
     newd         :     22.71s CPU     36.81s WALL (     168 calls)
     mix_rho      :   1278.51s CPU   1421.52s WALL (     159 calls)

     Called by c_bands:
     init_us_2    :      3.37s CPU      3.62s WALL (     319 calls)
     init_us_2:cp :      3.37s CPU      3.62s WALL (     319 calls)
     regterg      :    197.35s CPU    200.48s WALL (     159 calls)

     Called by *egterg:
     rdiaghg      :     15.66s CPU     15.87s WALL (     912 calls)
     h_psi        :    105.41s CPU    106.45s WALL (     937 calls)
     s_psi        :     12.94s CPU     12.98s WALL (     937 calls)
     g_psi        :      1.20s CPU      1.21s WALL (     777 calls)

     Called by h_psi:
     h_psi:calbec :     15.86s CPU     15.96s WALL (     937 calls)
     vloc_psi     :     73.96s CPU     74.79s WALL (     937 calls)
     add_vuspsi   :     12.99s CPU     13.09s WALL (     937 calls)

     General routines
     calbec       :     22.31s CPU     22.45s WALL (    1164 calls)
     fft          :     49.30s CPU     57.56s WALL (   11241 calls)
     ffts         :    573.98s CPU    712.31s WALL (  313069 calls)
     fftw         :     63.73s CPU     64.39s WALL (   93709 calls)
     interpolate  :      1.20s CPU      1.45s WALL (     168 calls)
 
     Parallel routines
 
     PWSCF        :  27m59.04s CPU  31m19.61s WALL

 
   This run was terminated on:  10:35: 1   4Nov2023            

=------------------------------------------------------------------------------=
   JOB DONE.
=------------------------------------------------------------------------------=
