
     Program PWSCF v.7.2 starts on  4Nov2023 at  8:36:49 

     This program is part of the open-source Quantum ESPRESSO suite
     for quantum simulation of materials; please cite
         "P. Giannozzi et al., J. Phys.:Condens. Matter 21 395502 (2009);
         "P. Giannozzi et al., J. Phys.:Condens. Matter 29 465901 (2017);
         "P. Giannozzi et al., J. Chem. Phys. 152 154105 (2020);
          URL http://www.quantum-espresso.org", 
     in publications or presentations arising from this work. More details at
     http://www.quantum-espresso.org/quote

     Parallel version (MPI & OpenMP), running on      48 processor cores
     Number of MPI processes:                48
     Threads/MPI process:                     1

     MPI processes distributed on     1 nodes
     20229 MiB available memory on the printing compute node when the environment starts
 
     Waiting for input...
     Reading input from standard input
Warning: card &CELL ignored
Warning: card CELL_DYNAMICS = 'BFGS', ignored
Warning: card CELL_DOFREE = '2DXY' ignored
Warning: card / ignored

     Current dimensions of program PWSCF are:
     Max number of different atomic species (ntypx) = 10
     Max number of k-points (npk) =  40000
     Max angular momentum in pseudopotentials (lmaxx) =  4

     IMPORTANT: XC functional enforced from input :
     Exchange-correlation= RVV10
                           (   1   4  13   4  26   0   0)
     Any further DFT definition will be discarded
     Please, verify this is what you really want


     gamma-point specific algorithms are used
     signal trapping enabled: kill the code with -SIGUSR1 to stop cleanly the simulation 
 
     R & G space division:  proc/nbgrp/npool/nimage =      48
     Subspace diagonalization in iterative solution of the eigenvalue problem:
     one sub-group per band group will be used
     scalapack distributed-memory algorithm (size of sub-group:  2*  2 procs)

 
     Parallelization info
     --------------------
     sticks:   dense  smooth     PW     G-vecs:    dense   smooth      PW
     Min         243     194     47                49060    35090    4376
     Max         246     196     50                49086    35128    4410
     Sum       11735    9389   2349              2355467  1685513  210763
 
     Using Slab Decomposition
 


     bravais-lattice index     =            0
     lattice parameter (alat)  =      17.8707  a.u.
     unit-cell volume          =   17436.2743 (a.u.)^3
     number of atoms/cell      =           36
     number of atomic types    =            3
     number of electrons       =       307.00
     number of Kohn-Sham states=          185
     kinetic-energy cutoff     =      80.0000  Ry
     charge density cutoff     =     400.0000  Ry
     scf convergence threshold =      1.0E-06
     mixing beta               =       0.7000
     number of iterations used =            8  local-TF  mixing
     energy convergence thresh.=      1.0E-04
     force convergence thresh. =      1.0E-02
     Exchange-correlation= RVV10
                           (   1   4  13   4  26   0   0)
     nstep                     =          200


     celldm(1)=  17.870686  celldm(2)=   0.000000  celldm(3)=   0.000000
     celldm(4)=   0.000000  celldm(5)=   0.000000  celldm(6)=   0.000000

     crystal axes: (cart. coord. in units of alat)
               a(1) = (   1.000000   0.000000   0.000000 )  
               a(2) = (   0.000000   1.155671   0.000000 )  
               a(3) = (   0.000000   0.000000   2.643601 )  

     reciprocal axes: (cart. coord. in units 2 pi/alat)
               b(1) = (  1.000000  0.000000  0.000000 )  
               b(2) = (  0.000000  0.865298  0.000000 )  
               b(3) = (  0.000000  0.000000  0.378272 )  


     PseudoPot. # 1 for Mo read from file:
     ../pseudo/Mo_ONCV_PBE-1.0.oncvpsp.upf
     MD5 check sum: 1b5d28e075c9ccadda658a603575cd1f
     Pseudo is Norm-conserving, Zval = 14.0
     Generated using ONCVPSP code by D. R. Hamann
     Using radial grid of 1526 points,  6 beta functions with: 
                l(1) =   0
                l(2) =   0
                l(3) =   1
                l(4) =   1
                l(5) =   2
                l(6) =   2

     PseudoPot. # 2 for S  read from file:
     ../pseudo/s_pbe_v1.4.uspp.F.UPF
     MD5 check sum: 88d86576ff6df21479756cfb9bdac1df
     Pseudo is Ultrasoft + core correction, Zval =  6.0
     Generated by new atomic code, or converted to UPF format
     Using radial grid of  907 points,  6 beta functions with: 
                l(1) =   0
                l(2) =   0
                l(3) =   1
                l(4) =   1
                l(5) =   2
                l(6) =   2
     Q(r) pseudized with  8 coefficients,  rinner =    1.300   1.300   1.300
                                                       1.300   1.300

     PseudoPot. # 3 for H  read from file:
     ../pseudo/H_ONCV_PBE-1.0.oncvpsp.upf
     MD5 check sum: 1790becc920ee074925cf490c71280fe
     Pseudo is Norm-conserving, Zval =  1.0
     Generated using ONCVPSP code by D. R. Hamann
     Using radial grid of 1166 points,  2 beta functions with: 
                l(1) =   0
                l(2) =   0

     atomic species   valence    mass     pseudopotential
        Mo            14.00    95.94000     Mo( 1.00)
        S              6.00    32.06500     S ( 1.00)
        H              1.00     1.00794     H ( 1.00)

     No symmetry found



   Cartesian axes

     site n.     atom                  positions (alat units)
         1           Mo  tau(   1) = (   0.6952221   0.1890506   0.2985846  )
         2           S   tau(   2) = (   0.8646417   0.0856217   0.4689279  )
         3           S   tau(   3) = (   0.8663890   0.0857843   0.1351291  )
         4           Mo  tau(   4) = (   0.8560186   0.4753274   0.2873942  )
         5           S   tau(   5) = (   0.6873294   0.3936244   0.4596353  )
         6           S   tau(   6) = (   0.6929804   0.3713468   0.1185692  )
         7           Mo  tau(   7) = (   0.6862796   0.7633098   0.2825370  )
         8           S   tau(   8) = (   0.8545980   0.6708292   0.4486168  )
         9           S   tau(   9) = (   0.8545123   0.6666874   0.1146125  )
        10           Mo  tau(  10) = (   0.8629403   1.0471007   0.3006803  )
        11           S   tau(  11) = (   0.6868280   0.9456650   0.4634891  )
        12           S   tau(  12) = (   0.6998113   0.9568511   0.1205389  )
        13           Mo  tau(  13) = (   0.3618216   0.1847309   0.2935964  )
        14           S   tau(  14) = (   0.5260962   0.0863870   0.4600448  )
        15           S   tau(  15) = (   0.5348379   0.0894875   0.1297123  )
        16           Mo  tau(  16) = (   0.5265817   0.4772436   0.2784130  )
        17           S   tau(  17) = (   0.3624753   0.3882513   0.4525556  )
        18           S   tau(  18) = (   0.3635411   0.3752055   0.1119148  )
        19           Mo  tau(  19) = (   0.3652268   0.7630864   0.2781795  )
        20           S   tau(  20) = (   0.5269494   0.6690381   0.1096838  )
        21           Mo  tau(  21) = (   0.5300192   1.0470394   0.2900995  )
        22           S   tau(  22) = (   0.3670346   0.9457522   0.4574073  )
        23           S   tau(  23) = (   0.3604225   0.9585725   0.1159032  )
        24           Mo  tau(  24) = (   0.0313099   0.1847895   0.3013130  )
        25           S   tau(  25) = (   0.1956761   0.0838230   0.4650863  )
        26           S   tau(  26) = (   0.1967693   0.0903508   0.1278874  )
        27           Mo  tau(  27) = (   0.1967578   0.4753919   0.2813011  )
        28           S   tau(  28) = (   0.0287851   0.3864324   0.4586755  )
        29           S   tau(  29) = (   0.0244514   0.3729871   0.1239344  )
        30           Mo  tau(  30) = (   0.0286728   0.7631204   0.2856894  )
        31           S   tau(  31) = (   0.2011512   0.6675435   0.4465001  )
        32           S   tau(  32) = (   0.1969214   0.6672839   0.1104564  )
        33           Mo  tau(  33) = (   0.1950294   1.0511147   0.2932237  )
        34           S   tau(  34) = (   0.0312912   0.9612169   0.4667423  )
        35           S   tau(  35) = (   0.0292670   0.9563028   0.1216485  )
        36           H   tau(  36) = (   0.7777778   0.0000000   0.5407634  )

     number of k points=     1  Gaussian smearing, width (Ry)=  0.0100
                       cart. coord. in units 2pi/alat
        k(    1) = (   0.0000000   0.0000000   0.0000000), wk =   2.0000000

     Dense  grid:  1177734 G-vectors     FFT dimensions: ( 120, 135, 320)

     Smooth grid:   842757 G-vectors     FFT dimensions: ( 108, 120, 270)

     Estimated max dynamical RAM per process >     146.59 MB

     Estimated total dynamical RAM >       6.87 GB

     Initial potential from superposition of free atoms

     starting charge     306.9873, renormalised to     307.0000

     negative rho (up, down):  1.419E-04 0.000E+00


---------------------------------------------------------------------------------
Carrying out rVV10 run using the following parameters:
Nqs =      20    Nr_points =    1024   r_max =   100.000
b_value =  6.30000    beta =  0.00901
     q_mesh =  0.00010000  0.00030000  0.00058939  0.00100810
               0.00161396  0.00249058  0.00375900  0.00559430
               0.00824984  0.01209221  0.01765183  0.02569619
               0.03733578  0.05417739  0.07854596  0.11380545
               0.16482331  0.23864234  0.34545298  0.50000000

Gradients computed in Reciprocal space

---------------------------------------------------------------------------------


     Starting wfcs are  213 randomized atomic wfcs

     total cpu time spent up to now is        2.8 secs

     Self-consistent Calculation

     iteration #  1     ecut=    80.00 Ry     beta= 0.70
     Davidson diagonalization with overlap
     ethr =  1.00E-02,  avg # of iterations =  2.0

     Threshold (ethr) on eigenvalues was too large:
     Diagonalizing with lowered threshold

     Davidson diagonalization with overlap
     ethr =  3.83E-04,  avg # of iterations =  4.0

     negative rho (up, down):  2.199E-08 0.000E+00

     total cpu time spent up to now is       26.1 secs

     total energy              =   -2205.60339117 Ry
     estimated scf accuracy    <       1.46284975 Ry

     iteration #  2     ecut=    80.00 Ry     beta= 0.70
     Davidson diagonalization with overlap
     ethr =  4.76E-04,  avg # of iterations =  2.0

     total cpu time spent up to now is       28.6 secs

     total energy              =   -2205.47724268 Ry
     estimated scf accuracy    <       0.59327757 Ry

     iteration #  3     ecut=    80.00 Ry     beta= 0.70
     Davidson diagonalization with overlap
     ethr =  1.93E-04,  avg # of iterations =  2.0

     total cpu time spent up to now is       31.1 secs

     total energy              =   -2205.51391250 Ry
     estimated scf accuracy    <       0.19624829 Ry

     iteration #  4     ecut=    80.00 Ry     beta= 0.70
     Davidson diagonalization with overlap
     ethr =  6.39E-05,  avg # of iterations =  5.0

     total cpu time spent up to now is       33.7 secs

     total energy              =   -2205.53354936 Ry
     estimated scf accuracy    <       0.03667087 Ry

     iteration #  5     ecut=    80.00 Ry     beta= 0.70
     Davidson diagonalization with overlap
     c_bands:  1 eigenvalues not converged
     ethr =  1.19E-05,  avg # of iterations = 20.0

     total cpu time spent up to now is       36.7 secs

     total energy              =   -2205.53429397 Ry
     estimated scf accuracy    <       0.01902281 Ry

     iteration #  6     ecut=    80.00 Ry     beta= 0.70
     Davidson diagonalization with overlap
     ethr =  6.20E-06,  avg # of iterations = 12.0

     total cpu time spent up to now is       39.3 secs

     total energy              =   -2205.53338813 Ry
     estimated scf accuracy    <       0.01508745 Ry

     iteration #  7     ecut=    80.00 Ry     beta= 0.70
     Davidson diagonalization with overlap
     ethr =  4.91E-06,  avg # of iterations =  1.0

     total cpu time spent up to now is       41.6 secs

     total energy              =   -2205.53134898 Ry
     estimated scf accuracy    <       0.00959698 Ry

     iteration #  8     ecut=    80.00 Ry     beta= 0.70
     Davidson diagonalization with overlap
     ethr =  3.13E-06,  avg # of iterations =  2.0

     negative rho (up, down):  8.655E-03 0.000E+00

     total cpu time spent up to now is       45.8 secs

     total energy              =   -2205.53090718 Ry
     estimated scf accuracy    <       0.00458068 Ry

     iteration #  9     ecut=    80.00 Ry     beta= 0.70
     Davidson diagonalization with overlap
     ethr =  1.49E-06,  avg # of iterations =  2.0

     negative rho (up, down):  2.351E-02 0.000E+00

     total cpu time spent up to now is       50.8 secs

     total energy              =   -2205.53057991 Ry
     estimated scf accuracy    <       0.00296103 Ry

     iteration # 10     ecut=    80.00 Ry     beta= 0.70
     Davidson diagonalization with overlap
     ethr =  9.65E-07,  avg # of iterations =  2.0

     negative rho (up, down):  3.020E-02 0.000E+00

     total cpu time spent up to now is       55.6 secs

     total energy              =   -2205.53064613 Ry
     estimated scf accuracy    <       0.00128468 Ry

     iteration # 11     ecut=    80.00 Ry     beta= 0.70
     Davidson diagonalization with overlap
     ethr =  4.18E-07,  avg # of iterations =  2.0

     negative rho (up, down):  1.937E-02 0.000E+00

     total cpu time spent up to now is       60.9 secs

     total energy              =   -2205.53077879 Ry
     estimated scf accuracy    <       0.00048515 Ry

     iteration # 12     ecut=    80.00 Ry     beta= 0.70
     Davidson diagonalization with overlap
     ethr =  1.58E-07,  avg # of iterations =  2.0

     negative rho (up, down):  7.762E-03 0.000E+00

     total cpu time spent up to now is       67.0 secs

     total energy              =   -2205.53073681 Ry
     estimated scf accuracy    <       0.00023293 Ry

     iteration # 13     ecut=    80.00 Ry     beta= 0.70
     Davidson diagonalization with overlap
     c_bands:  1 eigenvalues not converged
     ethr =  7.59E-08,  avg # of iterations = 20.0

     negative rho (up, down):  2.688E-03 0.000E+00

     total cpu time spent up to now is       74.0 secs

     total energy              =   -2205.53081141 Ry
     estimated scf accuracy    <       0.00001881 Ry

     iteration # 14     ecut=    80.00 Ry     beta= 0.70
     Davidson diagonalization with overlap
     ethr =  6.13E-09,  avg # of iterations =  5.0

     negative rho (up, down):  6.566E-04 0.000E+00

     total cpu time spent up to now is       87.6 secs

     total energy              =   -2205.53081468 Ry
     estimated scf accuracy    <       0.00000351 Ry

     iteration # 15     ecut=    80.00 Ry     beta= 0.70
     Davidson diagonalization with overlap
     ethr =  1.14E-09,  avg # of iterations =  5.0

     negative rho (up, down):  2.368E-04 0.000E+00

     total cpu time spent up to now is       99.8 secs

     total energy              =   -2205.53081489 Ry
     estimated scf accuracy    <       0.00000105 Ry

     iteration # 16     ecut=    80.00 Ry     beta= 0.70
     Davidson diagonalization with overlap
     ethr =  3.41E-10,  avg # of iterations =  5.0

     negative rho (up, down):  1.375E-04 0.000E+00

     total cpu time spent up to now is      102.2 secs

     End of self-consistent calculation

          k = 0.0000 0.0000 0.0000 (105382 PWs)   bands (ev):

   -62.8546 -62.8454 -62.8339 -62.8215 -62.8158 -62.8132 -62.8096 -62.8012
   -62.7663 -62.6710 -62.6476 -62.6298 -37.1906 -37.1324 -37.1200 -37.1129
   -37.1030 -37.0899 -37.0617 -37.0528 -37.0433 -37.0380 -37.0188 -37.0172
   -37.0094 -37.0051 -36.9994 -36.9941 -36.9899 -36.9822 -36.9795 -36.9702
   -36.9276 -36.9155 -36.9002 -36.8751 -36.8684 -36.8509 -36.8468 -36.8286
   -36.8242 -36.8118 -36.8056 -36.8014 -36.7923 -36.7589 -36.6404 -36.6148
   -16.3766 -15.6946 -15.1494 -15.0501 -14.9283 -14.8373 -14.6814 -14.4640
   -14.4343 -14.4180 -14.3677 -14.3420 -14.3194 -14.2555 -14.1565 -14.1199
   -14.0858 -14.0653 -13.9963 -13.9188 -13.8075 -13.7992 -13.7640  -9.0944
    -7.6106  -7.4562  -7.3022  -7.2500  -7.2405  -7.1543  -7.1350  -7.0291
    -6.8204  -6.7704  -6.7503  -6.6822  -6.5918  -6.5112  -6.4642  -6.4082
    -6.3370  -6.2748  -6.0865  -5.9619  -5.9398  -5.8670  -5.8158  -5.7745
    -5.7529  -5.7025  -5.6441  -5.6272  -5.5754  -5.5389  -5.5087  -5.4348
    -5.4242  -5.3393  -5.2479  -5.1459  -5.0439  -4.9980  -4.9649  -4.9291
    -4.8930  -4.7886  -4.6536  -4.5288  -4.4178  -4.3022  -4.2806  -4.2189
    -4.2002  -4.0332  -4.0154  -3.8844  -3.8208  -3.7567  -3.7172  -3.6776
    -3.6608  -3.5891  -3.5320  -3.4784  -3.4751  -3.4430  -3.4076  -3.3567
    -3.3446  -3.1806  -3.1161  -2.8958  -2.8657  -2.7833  -2.7448  -2.6975
    -2.6811  -2.6510  -2.6407  -2.5925  -2.5112  -2.2456  -2.0048  -1.9719
    -1.8686  -0.8062  -0.7099  -0.5732  -0.1722  -0.1110  -0.0957  -0.0209
     0.0335   0.1484   0.1886   0.2493   0.2916   0.3190   0.3501   0.4850
     0.5220   0.5595   0.5864   0.6271   0.6608   0.6789   0.7279   0.7706
     0.7890   0.8341   0.8411   0.9221   0.9809   0.9972   1.0633   1.2875
     1.4025

     the Fermi energy is    -0.8320 ev

!    total energy              =   -2205.53081511 Ry
     estimated scf accuracy    <       0.00000034 Ry
     smearing contrib. (-TS)   =      -0.00811483 Ry
     internal energy E=F+TS    =   -2205.52270028 Ry

     The total energy is F=E-TS. E is the sum of the following terms:
     one-electron contribution =  -18056.01451966 Ry
     hartree contribution      =    9014.99914246 Ry
     xc contribution           =    -385.39731909 Ry
     ewald contribution        =    7220.88999601 Ry

     convergence has been achieved in  16 iterations

     negative rho (up, down):  1.375E-04 0.000E+00

     Forces acting on atoms (cartesian axes, Ry/au):

     atom    1 type  1   force =     0.00431147   -0.02135941   -0.00092586
     atom    2 type  2   force =    -0.02067906    0.03170165    0.01979574
     atom    3 type  2   force =    -0.01030987    0.01022342   -0.00266169
     atom    4 type  1   force =     0.00926347   -0.00549123   -0.00091379
     atom    5 type  2   force =    -0.00210174   -0.00308772   -0.00679842
     atom    6 type  2   force =     0.00239626    0.01240580    0.00122871
     atom    7 type  1   force =     0.00415135   -0.00786952   -0.01336723
     atom    8 type  2   force =     0.00175824   -0.00539416    0.01810681
     atom    9 type  2   force =     0.01270393    0.00705227    0.01189526
     atom   10 type  1   force =     0.00165975   -0.00797022   -0.05884678
     atom   11 type  2   force =     0.00134508    0.00171954    0.00053072
     atom   12 type  2   force =     0.00014171    0.00175508    0.00604489
     atom   13 type  1   force =     0.00500820    0.00646097   -0.00358060
     atom   14 type  2   force =     0.00682806    0.00144045    0.00976311
     atom   15 type  2   force =    -0.01160331    0.00281188   -0.00907154
     atom   16 type  1   force =    -0.00134205    0.00595619    0.00302277
     atom   17 type  2   force =     0.00577897    0.00056684    0.00227528
     atom   18 type  2   force =    -0.00489503   -0.00662940    0.01339370
     atom   19 type  1   force =     0.00403867   -0.01318983   -0.00320065
     atom   20 type  2   force =     0.00434596   -0.00509298    0.00135831
     atom   21 type  1   force =    -0.00186239    0.00687938   -0.00128231
     atom   22 type  2   force =    -0.00270822   -0.00155979   -0.00140161
     atom   23 type  2   force =    -0.00206459    0.00305755    0.00690677
     atom   24 type  1   force =     0.02427760    0.01354965   -0.05897905
     atom   25 type  2   force =     0.01985075    0.01865539    0.00794024
     atom   26 type  2   force =    -0.01459882   -0.00003293   -0.00422792
     atom   27 type  1   force =    -0.00266122   -0.00144287    0.00774448
     atom   28 type  2   force =     0.00247950    0.00228896   -0.00447793
     atom   29 type  2   force =     0.00354748   -0.00330716   -0.00164878
     atom   30 type  1   force =    -0.00645867    0.01181124   -0.00715890
     atom   31 type  2   force =     0.00179654   -0.00043070    0.01658880
     atom   32 type  2   force =    -0.00967344    0.00613688    0.00725652
     atom   33 type  1   force =     0.00941657   -0.00184799   -0.01034186
     atom   34 type  2   force =     0.00285992   -0.04313038   -0.00806014
     atom   35 type  2   force =    -0.00828608    0.00586644    0.01558337
     atom   36 type  3   force =    -0.02871500   -0.02250329    0.04750958
     The non-local contrib.  to forces
     atom    1 type  1   force =    -0.00060294    0.03596613   -0.01038453
     atom    2 type  2   force =    -0.16244521   -0.13089355   -0.06720791
     atom    3 type  2   force =    -0.01588688   -0.00371198    0.27312794
     atom    4 type  1   force =    -0.00096558    0.01432734    0.00454340
     atom    5 type  2   force =     0.00588306   -0.03571429   -0.25091123
     atom    6 type  2   force =    -0.00270513    0.00902400    0.26296427
     atom    7 type  1   force =    -0.02803466   -0.00836845   -0.01904699
     atom    8 type  2   force =     0.00632433   -0.00694336   -0.25460018
     atom    9 type  2   force =     0.00794126   -0.00930887    0.27742420
     atom   10 type  1   force =     0.00268028   -0.00052466   -0.00148096
     atom   11 type  2   force =     0.01404218    0.01620144   -0.22718412
     atom   12 type  2   force =    -0.00920034   -0.01614680    0.26362527
     atom   13 type  1   force =    -0.00031147    0.02460476   -0.00569284
     atom   14 type  2   force =     0.01099329   -0.00969145   -0.25320327
     atom   15 type  2   force =    -0.01165269   -0.00210687    0.25991332
     atom   16 type  1   force =    -0.00373736    0.03937718   -0.02145044
     atom   17 type  2   force =     0.00295802   -0.03015430   -0.25172910
     atom   18 type  2   force =    -0.00581518   -0.00492084    0.27332795
     atom   19 type  1   force =     0.02060268   -0.00303454   -0.01465451
     atom   20 type  2   force =    -0.00041897   -0.02195506    0.26501333
     atom   21 type  1   force =     0.00113755    0.01640766    0.00641550
     atom   22 type  2   force =    -0.00955712    0.00505114   -0.25736895
     atom   23 type  2   force =     0.00648636   -0.01231226    0.26909910
     atom   24 type  1   force =     0.00285193    0.01993441   -0.01232998
     atom   25 type  2   force =     0.02023987    0.00736171   -0.24941429
     atom   26 type  2   force =    -0.00780583   -0.00855553    0.26706715
     atom   27 type  1   force =     0.00071403    0.01401604    0.00799803
     atom   28 type  2   force =    -0.00107670   -0.01837700   -0.26676311
     atom   29 type  2   force =     0.00888670   -0.00196336    0.26667034
     atom   30 type  1   force =     0.00188265    0.01344914    0.00799165
     atom   31 type  2   force =    -0.00926823    0.00039573   -0.25257956
     atom   32 type  2   force =    -0.00591615   -0.01205927    0.27238083
     atom   33 type  1   force =    -0.00037942    0.00353310    0.00551503
     atom   34 type  2   force =    -0.00737379   -0.03645825   -0.26438874
     atom   35 type  2   force =    -0.00411312   -0.01075319    0.27307976
     atom   36 type  3   force =     0.03865167    0.03800001   -0.03178360
     The ionic contribution  to forces
     atom    1 type  1   force =     0.18957963    0.69918189    5.16834119
     atom    2 type  2   force =     0.47246989    1.52984791   38.36112919
     atom    3 type  2   force =    -0.13045534    0.05115736  -36.21635987
     atom    4 type  1   force =     0.12373473    0.70037164    0.63401298
     atom    5 type  2   force =    -1.00669258    1.65613296   38.73398238
     atom    6 type  2   force =     0.33481608   -0.45662588  -38.05109242
     atom    7 type  1   force =    -2.66977196   -2.98469723    2.47831567
     atom    8 type  2   force =    -0.96613416   -0.04140986   37.38918422
     atom    9 type  2   force =     0.34816300   -0.05496922  -38.00891432
     atom   10 type  1   force =    -0.77723727   -0.74000739    4.80882389
     atom   11 type  2   force =    -0.79129220   -2.14266046   38.96575483
     atom   12 type  2   force =     0.42279531    0.63755467  -37.93650435
     atom   13 type  1   force =     0.38373250    1.09624324    2.78462720
     atom   14 type  2   force =    -0.33209392    0.13759635   38.40775903
     atom   15 type  2   force =     0.10760495   -0.04015852  -36.87635783
     atom   16 type  1   force =    -0.08247879    4.02894593    0.47706605
     atom   17 type  2   force =     0.78533521    1.55602788   37.94195388
     atom   18 type  2   force =    -0.16992767   -0.62284044  -38.56300173
     atom   19 type  1   force =     2.67870085   -2.53063218    0.65447127
     atom   20 type  2   force =     0.21611609   -0.21163762  -38.47523139
     atom   21 type  1   force =    -0.30116594   -0.12152455    0.85158218
     atom   22 type  2   force =     0.39026848   -1.79065579   38.42613336
     atom   23 type  2   force =    -0.10205839    0.64145802  -38.30594508
     atom   24 type  1   force =    -0.27879425    1.37036497    5.61616626
     atom   25 type  2   force =     0.75099640    0.32260129   39.25729572
     atom   26 type  2   force =    -0.26854931    0.07887276  -37.35990943
     atom   27 type  1   force =     0.05209628    0.46093319   -2.23396272
     atom   28 type  2   force =     0.11434458    1.10792673   38.20592611
     atom   29 type  2   force =    -0.24559663   -0.39373144  -37.27703866
     atom   30 type  1   force =    -0.25285247   -1.04202253   -0.07233772
     atom   31 type  2   force =     1.24157682   -0.08105337   37.34065542
     atom   32 type  2   force =    -0.47472335   -0.01625531  -38.62426673
     atom   33 type  1   force =     0.91062782   -0.92943503    1.97527259
     atom   34 type  2   force =     0.46462605   -1.63329374   39.30523326
     atom   35 type  2   force =    -0.26405639    0.43981378  -37.85955235
     atom   36 type  3   force =    -0.87370408   -0.68142001    8.07678794
     The local contribution  to forces
     atom    1 type  1   force =    -0.18464190   -0.75653885   -5.15810313
     atom    2 type  2   force =    -0.34199123   -1.37720110  -38.28133422
     atom    3 type  2   force =     0.13534544   -0.03728710   35.96191187
     atom    4 type  1   force =    -0.11337615   -0.72020572   -0.63880015
     atom    5 type  2   force =     0.99938545   -1.62560452  -38.50974484
     atom    6 type  2   force =    -0.32999080    0.46098924   37.81043521
     atom    7 type  1   force =     2.70196658    2.98520590   -2.47191090
     atom    8 type  2   force =     0.96188424    0.04231309  -37.13651276
     atom    9 type  2   force =    -0.34308873    0.07071042   37.76454395
     atom   10 type  1   force =     0.77629429    0.73258999   -4.86537702
     atom   11 type  2   force =     0.77953237    2.12988752  -38.75639270
     atom   12 type  2   force =    -0.41442031   -0.62091051   37.69993599
     atom   13 type  1   force =    -0.37842652   -1.11437793   -2.78177854
     atom   14 type  2   force =     0.32884335   -0.12654691  -38.16451398
     atom   15 type  2   force =    -0.10820614    0.04488750   36.62811758
     atom   16 type  1   force =     0.08474882   -4.06239589   -0.45190410
     atom   17 type  2   force =    -0.78250225   -1.52690243  -37.70791917
     atom   18 type  2   force =     0.17063841    0.62151690   38.32426427
     atom   19 type  1   force =    -2.69543639    2.52047702   -0.64232596
     atom   20 type  2   force =    -0.21158549    0.22766295   38.23290165
     atom   21 type  1   force =     0.29808408    0.11199522   -0.85855160
     atom   22 type  2   force =    -0.38372998    1.78457818  -38.19030693
     atom   23 type  2   force =     0.09400700   -0.62721339   38.06492750
     atom   24 type  1   force =     0.30023925   -1.37672742   -5.66204353
     atom   25 type  2   force =    -0.75094053   -0.31077962  -39.01972021
     atom   26 type  2   force =     0.26163544   -0.07086528   37.10985350
     atom   27 type  1   force =    -0.05548516   -0.47627384    2.23437924
     atom   28 type  2   force =    -0.11100354   -1.08891857  -37.96383064
     atom   29 type  2   force =     0.24093046    0.39278268   37.02965019
     atom   30 type  1   force =     0.24464850    1.04033573    0.05784939
     atom   31 type  2   force =    -1.23104715    0.08016961  -37.09165511
     atom   32 type  2   force =     0.47091972    0.03375356   38.38032859
     atom   33 type  1   force =    -0.90082897    0.92397397   -1.99041748
     atom   34 type  2   force =    -0.45525268    1.62570267  -39.06917882
     atom   35 type  2   force =     0.25990777   -0.42419860   37.62344579
     atom   36 type  3   force =     0.80634776    0.62092067   -7.99745009
     The core correction contribution to forces
     atom    1 type  1   force =     0.00000000    0.00000000    0.00000000
     atom    2 type  2   force =     0.01130131    0.00993279    0.00756499
     atom    3 type  2   force =     0.00071278    0.00006524   -0.02110884
     atom    4 type  1   force =     0.00000000    0.00000000    0.00000000
     atom    5 type  2   force =    -0.00067206    0.00207783    0.02019704
     atom    6 type  2   force =     0.00028022   -0.00096679   -0.02087863
     atom    7 type  1   force =     0.00000000    0.00000000    0.00000000
     atom    8 type  2   force =    -0.00023571    0.00063021    0.02039237
     atom    9 type  2   force =    -0.00021432    0.00058367   -0.02100483
     atom   10 type  1   force =     0.00000000    0.00000000    0.00000000
     atom   11 type  2   force =    -0.00092456   -0.00165274    0.01870666
     atom   12 type  2   force =     0.00096432    0.00129973   -0.02083489
     atom   13 type  1   force =     0.00000000    0.00000000    0.00000000
     atom   14 type  2   force =    -0.00090374    0.00006002    0.02004957
     atom   15 type  2   force =     0.00064175    0.00016629   -0.02051669
     atom   16 type  1   force =     0.00000000    0.00000000    0.00000000
     atom   17 type  2   force =    -0.00002776    0.00162199    0.02029841
     atom   18 type  2   force =     0.00019829   -0.00034728   -0.02099973
     atom   19 type  1   force =     0.00000000    0.00000000    0.00000000
     atom   20 type  2   force =     0.00012989    0.00082047   -0.02115212
     atom   21 type  1   force =     0.00000000    0.00000000    0.00000000
     atom   22 type  2   force =     0.00029468   -0.00058410    0.02042247
     atom   23 type  2   force =    -0.00052030    0.00106162   -0.02093210
     atom   24 type  1   force =     0.00000000    0.00000000    0.00000000
     atom   25 type  2   force =    -0.00047577   -0.00052417    0.02010938
     atom   26 type  2   force =     0.00010589    0.00050979   -0.02101450
     atom   27 type  1   force =     0.00000000    0.00000000    0.00000000
     atom   28 type  2   force =     0.00022000    0.00165073    0.02052396
     atom   29 type  2   force =    -0.00066451   -0.00036838   -0.02072106
     atom   30 type  1   force =     0.00000000    0.00000000    0.00000000
     atom   31 type  2   force =     0.00055851    0.00007454    0.02046472
     atom   32 type  2   force =     0.00005925    0.00071890   -0.02096071
     atom   33 type  1   force =     0.00000000    0.00000000    0.00000000
     atom   34 type  2   force =     0.00085860    0.00091493    0.02059196
     atom   35 type  2   force =    -0.00000059    0.00096099   -0.02118771
     atom   36 type  3   force =     0.00000000    0.00000000    0.00000000
     The Hubbard contrib.    to forces
     atom    1 type  1   force =     0.00000000    0.00000000    0.00000000
     atom    2 type  2   force =     0.00000000    0.00000000    0.00000000
     atom    3 type  2   force =     0.00000000    0.00000000    0.00000000
     atom    4 type  1   force =     0.00000000    0.00000000    0.00000000
     atom    5 type  2   force =     0.00000000    0.00000000    0.00000000
     atom    6 type  2   force =     0.00000000    0.00000000    0.00000000
     atom    7 type  1   force =     0.00000000    0.00000000    0.00000000
     atom    8 type  2   force =     0.00000000    0.00000000    0.00000000
     atom    9 type  2   force =     0.00000000    0.00000000    0.00000000
     atom   10 type  1   force =     0.00000000    0.00000000    0.00000000
     atom   11 type  2   force =     0.00000000    0.00000000    0.00000000
     atom   12 type  2   force =     0.00000000    0.00000000    0.00000000
     atom   13 type  1   force =     0.00000000    0.00000000    0.00000000
     atom   14 type  2   force =     0.00000000    0.00000000    0.00000000
     atom   15 type  2   force =     0.00000000    0.00000000    0.00000000
     atom   16 type  1   force =     0.00000000    0.00000000    0.00000000
     atom   17 type  2   force =     0.00000000    0.00000000    0.00000000
     atom   18 type  2   force =     0.00000000    0.00000000    0.00000000
     atom   19 type  1   force =     0.00000000    0.00000000    0.00000000
     atom   20 type  2   force =     0.00000000    0.00000000    0.00000000
     atom   21 type  1   force =     0.00000000    0.00000000    0.00000000
     atom   22 type  2   force =     0.00000000    0.00000000    0.00000000
     atom   23 type  2   force =     0.00000000    0.00000000    0.00000000
     atom   24 type  1   force =     0.00000000    0.00000000    0.00000000
     atom   25 type  2   force =     0.00000000    0.00000000    0.00000000
     atom   26 type  2   force =     0.00000000    0.00000000    0.00000000
     atom   27 type  1   force =     0.00000000    0.00000000    0.00000000
     atom   28 type  2   force =     0.00000000    0.00000000    0.00000000
     atom   29 type  2   force =     0.00000000    0.00000000    0.00000000
     atom   30 type  1   force =     0.00000000    0.00000000    0.00000000
     atom   31 type  2   force =     0.00000000    0.00000000    0.00000000
     atom   32 type  2   force =     0.00000000    0.00000000    0.00000000
     atom   33 type  1   force =     0.00000000    0.00000000    0.00000000
     atom   34 type  2   force =     0.00000000    0.00000000    0.00000000
     atom   35 type  2   force =     0.00000000    0.00000000    0.00000000
     atom   36 type  3   force =     0.00000000    0.00000000    0.00000000
     The SCF correction term to forces
     atom    1 type  1   force =    -0.00002331    0.00002819   -0.00076308
     atom    2 type  2   force =    -0.00001382    0.00001238   -0.00033999
     atom    3 type  2   force =    -0.00002586   -0.00000332   -0.00021647
     atom    4 type  1   force =    -0.00012952    0.00001229   -0.00065371
     atom    5 type  2   force =    -0.00000561    0.00001708   -0.00030544
     atom    6 type  2   force =    -0.00000411   -0.00001798   -0.00018341
     atom    7 type  1   force =    -0.00000860   -0.00001295   -0.00070870
     atom    8 type  2   force =    -0.00008046    0.00001253   -0.00034052
     atom    9 type  2   force =    -0.00009727    0.00003304   -0.00013743
     atom   10 type  1   force =    -0.00007755   -0.00003139   -0.00079637
     atom   11 type  2   force =    -0.00001271   -0.00005944   -0.00033763
     atom   12 type  2   force =     0.00000274   -0.00004523   -0.00016082
     atom   13 type  1   force =     0.00001368   -0.00001232   -0.00072010
     atom   14 type  2   force =    -0.00001091    0.00001922   -0.00031192
     atom   15 type  2   force =     0.00000882    0.00002026   -0.00021158
     atom   16 type  1   force =     0.00012529    0.00002574   -0.00067242
     atom   17 type  2   force =     0.00001576   -0.00002951   -0.00031242
     atom   18 type  2   force =     0.00001114   -0.00004097   -0.00018074
     atom   19 type  1   force =     0.00017154   -0.00000334   -0.00067514
     atom   20 type  2   force =     0.00010445    0.00001307   -0.00015684
     atom   21 type  1   force =     0.00008192   -0.00000217   -0.00071208
     atom   22 type  2   force =     0.00001573    0.00004757   -0.00026524
     atom   23 type  2   force =     0.00002075    0.00006034   -0.00022633
     atom   24 type  1   force =    -0.00001932   -0.00002552   -0.00075549
     atom   25 type  2   force =     0.00003079   -0.00000704   -0.00031405
     atom   26 type  2   force =     0.00001500    0.00000210   -0.00020833
     atom   27 type  1   force =     0.00001363   -0.00012148   -0.00065375
     atom   28 type  2   force =    -0.00000484    0.00000385   -0.00031795
     atom   29 type  2   force =    -0.00000853   -0.00002989   -0.00019327
     atom   30 type  1   force =    -0.00013733    0.00004568   -0.00064591
     atom   31 type  2   force =    -0.00002341   -0.00002043   -0.00028035
     atom   32 type  2   force =    -0.00001291   -0.00002422   -0.00020915
     atom   33 type  1   force =    -0.00000284    0.00007675   -0.00069569
     atom   34 type  2   force =     0.00000174    0.00000081   -0.00030148
     atom   35 type  2   force =    -0.00002374    0.00004023   -0.00018581
     atom   36 type  3   force =    -0.00001034   -0.00000718   -0.00002834

     Total force =     0.143980     Total SCF correction =     0.002768

     BFGS Geometry Optimization
     Energy error            =      0.0E+00 Ry
     Gradient error          =      5.9E-02 Ry/Bohr

     number of scf cycles    =   1
     number of bfgs steps    =   0

     energy             new  =   -2205.5308151143 Ry

     new trust radius        =       0.0652037050 bohr
     new conv_thr            =       0.0000010000 Ry


ATOMIC_POSITIONS (angstrom)
Mo            6.5768299400        1.7765033159        2.8231530894
S             8.1657664501        0.8264798137        4.4450138090
S             8.1877773394        0.8166517459        1.2764749221
Mo            8.1000645820        4.4921511114        2.7173348341
S             6.4987970632        3.7207775381        4.3430630801
S             6.5546178422        3.5183024210        1.1219304359
Mo            6.4921784941        7.2142729152        2.6648108499
S             8.0826581503        6.3410165246        4.2520432751
S             8.0876402781        6.3084342182        1.0901576977
Mo            8.1614973527        9.8979627522        2.8123213846
S             6.4958793816        8.9438367540        4.3833863794
S             6.6180221915        9.0496399633        1.1431061202
Mo            3.4243098861        1.7503748485        2.7745763890
S             4.9787787463        0.8177034603        4.3556995077
S             5.0516935448        0.8477500926        1.2218580111
Mo            4.9790465007        4.5163298819        2.6344841304
S             3.4308997585        3.6718996424        4.2809136059
S             3.4353302441        3.5447205692        1.0654393216
Mo            3.4559989128        7.2093447813        2.6289831495
S             4.9855339777        6.3242371991        1.0379725193
Mo            5.0112783844        9.9052404647        2.7427223891
S             3.4695249865        8.9429258632        4.3248496145
S             3.4073366312        9.0666079687        1.0997232065
Mo            0.3089376423        1.7546796987        2.8182343414
S             1.8609667791        0.8025660157        4.4024112336
S             1.8530746735        0.8544084898        1.2071635340
Mo            1.8592830503        4.4949032277        2.6642955841
S             0.2735259421        3.6556100914        4.3352144784
S             0.2331084552        3.5254991511        1.1711453874
Mo            0.2677343708        7.2228963337        2.6979081009
S             1.9031889341        6.3125709208        4.2312225371
S             1.8571192491        6.3135913076        1.0483992659
Mo            1.8493296991        9.9391612416        2.7674735733
S             0.2974263020        9.0671742150        4.4096042248
S             0.2723865975        9.0466300992        1.1586471416
H             7.3400624563       -0.0119082273        5.1390104519



     Writing config-only to output data dir ./MoS2-V-O.save/
     NEW-OLD atomic charge density approx. for the potential

     negative rho (up, down):  1.427E-04 0.000E+00

     total cpu time spent up to now is      105.8 secs

     Self-consistent Calculation

     iteration #  1     ecut=    80.00 Ry     beta= 0.70
     Davidson diagonalization with overlap
     ethr =  1.00E-06,  avg # of iterations =  8.0

     negative rho (up, down):  1.944E-04 0.000E+00

     total cpu time spent up to now is      120.1 secs

     total energy              =   -2205.54669505 Ry
     estimated scf accuracy    <       0.00310361 Ry

     iteration #  2     ecut=    80.00 Ry     beta= 0.70
     Davidson diagonalization with overlap
     ethr =  1.01E-06,  avg # of iterations =  2.0

     negative rho (up, down):  2.026E-04 0.000E+00

     total cpu time spent up to now is      131.9 secs

     total energy              =   -2205.54683858 Ry
     estimated scf accuracy    <       0.00122847 Ry

     iteration #  3     ecut=    80.00 Ry     beta= 0.70
     Davidson diagonalization with overlap
     ethr =  4.00E-07,  avg # of iterations =  2.0

     negative rho (up, down):  2.358E-04 0.000E+00

     total cpu time spent up to now is      148.0 secs

     total energy              =   -2205.54689606 Ry
     estimated scf accuracy    <       0.00025684 Ry

     iteration #  4     ecut=    80.00 Ry     beta= 0.70
     Davidson diagonalization with overlap
     ethr =  8.37E-08,  avg # of iterations =  5.0

     negative rho (up, down):  2.370E-04 0.000E+00

     total cpu time spent up to now is      165.0 secs

     total energy              =   -2205.54692833 Ry
     estimated scf accuracy    <       0.00001326 Ry

     iteration #  5     ecut=    80.00 Ry     beta= 0.70
     Davidson diagonalization with overlap
     ethr =  4.32E-09,  avg # of iterations =  9.0

     negative rho (up, down):  2.269E-04 0.000E+00

     total cpu time spent up to now is      185.2 secs

     total energy              =   -2205.54693544 Ry
     estimated scf accuracy    <       0.00000663 Ry

     iteration #  6     ecut=    80.00 Ry     beta= 0.70
     Davidson diagonalization with overlap
     ethr =  2.16E-09,  avg # of iterations =  2.0

     negative rho (up, down):  2.086E-04 0.000E+00

     total cpu time spent up to now is      198.3 secs

     total energy              =   -2205.54693579 Ry
     estimated scf accuracy    <       0.00000125 Ry

     iteration #  7     ecut=    80.00 Ry     beta= 0.70
     Davidson diagonalization with overlap
     ethr =  4.09E-10,  avg # of iterations =  5.0

     negative rho (up, down):  1.379E-04 0.000E+00

     total cpu time spent up to now is      200.8 secs

     End of self-consistent calculation

          k = 0.0000 0.0000 0.0000 (105382 PWs)   bands (ev):

   -62.8521 -62.8454 -62.8310 -62.8216 -62.8129 -62.8112 -62.8096 -62.8012
   -62.7662 -62.6940 -62.6639 -62.6550 -37.1912 -37.1245 -37.1161 -37.1140
   -37.1040 -37.0859 -37.0576 -37.0489 -37.0429 -37.0372 -37.0217 -37.0174
   -37.0131 -37.0067 -37.0013 -36.9948 -36.9891 -36.9851 -36.9764 -36.9692
   -36.9292 -36.9172 -36.9026 -36.8828 -36.8724 -36.8568 -36.8518 -36.8435
   -36.8325 -36.8272 -36.8245 -36.8131 -36.8013 -36.7753 -36.6628 -36.6322
   -16.2481 -15.6428 -15.1601 -15.0482 -14.9221 -14.8510 -14.6691 -14.4715
   -14.4365 -14.4077 -14.3711 -14.3507 -14.3303 -14.2643 -14.1600 -14.1220
   -14.0946 -14.0780 -14.0032 -13.9048 -13.8225 -13.7961 -13.7821  -8.9150
    -7.6035  -7.4347  -7.2875  -7.2541  -7.2470  -7.1641  -7.1363  -7.0290
    -6.8244  -6.7690  -6.7515  -6.6849  -6.5859  -6.5025  -6.4694  -6.4131
    -6.3332  -6.2742  -6.0729  -5.9558  -5.9349  -5.8695  -5.8123  -5.7781
    -5.7576  -5.7057  -5.6570  -5.6427  -5.5969  -5.5436  -5.5114  -5.4344
    -5.3937  -5.3208  -5.2405  -5.1337  -5.0363  -5.0043  -4.9680  -4.9331
    -4.9062  -4.8023  -4.6449  -4.5402  -4.4049  -4.3065  -4.2804  -4.2280
    -4.2025  -4.0554  -4.0323  -3.8892  -3.8272  -3.7527  -3.7160  -3.6821
    -3.6588  -3.5983  -3.5251  -3.4917  -3.4811  -3.4500  -3.4063  -3.3609
    -3.3442  -3.1844  -3.1206  -2.8827  -2.8758  -2.7692  -2.7551  -2.6948
    -2.6881  -2.6668  -2.6514  -2.6017  -2.5185  -2.2442  -2.0212  -1.9726
    -1.8995  -0.8367  -0.7187  -0.6002  -0.1608  -0.1028  -0.0969  -0.0312
     0.0523   0.1453   0.1760   0.2670   0.2977   0.3227   0.3532   0.4869
     0.5205   0.5672   0.5964   0.6216   0.6548   0.6785   0.7265   0.7780
     0.7828   0.8300   0.8448   0.9237   0.9904   1.0103   1.0480   1.2859
     1.4011

     the Fermi energy is    -0.8562 ev

!    total energy              =   -2205.54693615 Ry
     estimated scf accuracy    <       0.00000034 Ry
     smearing contrib. (-TS)   =      -0.00772349 Ry
     internal energy E=F+TS    =   -2205.53921266 Ry

     The total energy is F=E-TS. E is the sum of the following terms:
     one-electron contribution =  -18055.52524550 Ry
     hartree contribution      =    9014.71923579 Ry
     xc contribution           =    -385.37855059 Ry
     ewald contribution        =    7220.64534764 Ry

     convergence has been achieved in   7 iterations

     negative rho (up, down):  1.379E-04 0.000E+00

     Forces acting on atoms (cartesian axes, Ry/au):

     atom    1 type  1   force =    -0.00083267   -0.01076196   -0.00104704
     atom    2 type  2   force =    -0.02286451    0.00981367    0.01922181
     atom    3 type  2   force =    -0.00808623    0.00959930   -0.01053543
     atom    4 type  1   force =     0.00738397   -0.00240277    0.00183684
     atom    5 type  2   force =    -0.00069510   -0.00426899   -0.00728248
     atom    6 type  2   force =     0.00174344    0.00856760    0.00181844
     atom    7 type  1   force =     0.00435595   -0.00694580   -0.00318373
     atom    8 type  2   force =     0.00107999   -0.00448947    0.01099362
     atom    9 type  2   force =     0.01113592    0.00495996    0.00729206
     atom   10 type  1   force =     0.00245477    0.00148387   -0.01931964
     atom   11 type  2   force =     0.00440290    0.00233826   -0.00659226
     atom   12 type  2   force =    -0.00328650    0.00017699   -0.00180297
     atom   13 type  1   force =     0.00471603    0.00256098   -0.00139344
     atom   14 type  2   force =     0.00540163    0.00113597    0.00594056
     atom   15 type  2   force =    -0.00907674    0.00224598   -0.00856938
     atom   16 type  1   force =    -0.00122747    0.00590365    0.00271958
     atom   17 type  2   force =     0.00480049    0.00063746    0.00288238
     atom   18 type  2   force =    -0.00332394   -0.00400350    0.01011484
     atom   19 type  1   force =     0.00194150   -0.01095667    0.00085240
     atom   20 type  2   force =     0.00357040   -0.00502793   -0.00225686
     atom   21 type  1   force =    -0.00132909    0.00518083    0.00264649
     atom   22 type  2   force =    -0.00146486   -0.00177541   -0.00375796
     atom   23 type  2   force =    -0.00044966    0.00098729    0.00379820
     atom   24 type  1   force =     0.01182003    0.00721472   -0.02955051
     atom   25 type  2   force =     0.01257907    0.01550538   -0.00043479
     atom   26 type  2   force =    -0.00476513   -0.00121306   -0.00998545
     atom   27 type  1   force =    -0.00154665    0.00148042    0.00705333
     atom   28 type  2   force =     0.00256049   -0.00159021   -0.00587785
     atom   29 type  2   force =     0.00483091    0.00193505   -0.00797113
     atom   30 type  1   force =    -0.00208752    0.00280442    0.00286083
     atom   31 type  2   force =     0.00075457    0.00016920    0.01068739
     atom   32 type  2   force =    -0.00784132    0.00507877    0.00584743
     atom   33 type  1   force =     0.00294568    0.00068655    0.00108207
     atom   34 type  2   force =    -0.00095294   -0.03080962   -0.01499319
     atom   35 type  2   force =    -0.00348982    0.00501920    0.00350380
     atom   36 type  3   force =    -0.01515758   -0.01124011    0.03340205
     The non-local contrib.  to forces
     atom    1 type  1   force =     0.00169212    0.03277332   -0.01160153
     atom    2 type  2   force =    -0.17155456   -0.15782199   -0.07560887
     atom    3 type  2   force =    -0.01129771   -0.00569648    0.26879510
     atom    4 type  1   force =     0.00100747    0.01352598    0.00315870
     atom    5 type  2   force =     0.00698185   -0.03612283   -0.25194132
     atom    6 type  2   force =    -0.00298132    0.00576268    0.26468372
     atom    7 type  1   force =    -0.02681671   -0.00740226   -0.02085012
     atom    8 type  2   force =     0.00603312   -0.00715404   -0.25897082
     atom    9 type  2   force =     0.00594752   -0.01014988    0.27494716
     atom   10 type  1   force =     0.00295119   -0.00203170   -0.00276731
     atom   11 type  2   force =     0.01352914    0.01627642   -0.22983211
     atom   12 type  2   force =    -0.01083717   -0.01713622    0.26007014
     atom   13 type  1   force =    -0.00021037    0.02504050   -0.00600653
     atom   14 type  2   force =     0.00865783   -0.01014122   -0.25479139
     atom   15 type  2   force =    -0.00946803   -0.00344442    0.25932414
     atom   16 type  1   force =    -0.00375470    0.03840491   -0.02400742
     atom   17 type  2   force =     0.00258697   -0.02919823   -0.25140971
     atom   18 type  2   force =    -0.00469089   -0.00294058    0.27179358
     atom   19 type  1   force =     0.02061217   -0.00139578   -0.01718637
     atom   20 type  2   force =    -0.00101504   -0.02125097    0.26302830
     atom   21 type  1   force =     0.00090916    0.01761060    0.00420028
     atom   22 type  2   force =    -0.00789720    0.00391536   -0.25933312
     atom   23 type  2   force =     0.00814671   -0.01451696    0.26792270
     atom   24 type  1   force =     0.00446493    0.02148513   -0.01140908
     atom   25 type  2   force =     0.01747920    0.00407424   -0.25369281
     atom   26 type  2   force =    -0.00103324   -0.00947007    0.26319416
     atom   27 type  1   force =    -0.00064681    0.01265016    0.00677316
     atom   28 type  2   force =    -0.00037336   -0.01723783   -0.26767990
     atom   29 type  2   force =     0.00941722    0.00030982    0.26314292
     atom   30 type  1   force =     0.00069961    0.01556841    0.00645136
     atom   31 type  2   force =    -0.01031310    0.00061036   -0.25681240
     atom   32 type  2   force =    -0.00396643   -0.01231704    0.27219761
     atom   33 type  1   force =    -0.00017434    0.00345994    0.00278876
     atom   34 type  2   force =    -0.00861773   -0.02744341   -0.26980565
     atom   35 type  2   force =    -0.00133411   -0.01061305    0.26603774
     atom   36 type  3   force =     0.03512433    0.03558740   -0.02972758
     The ionic contribution  to forces
     atom    1 type  1   force =     0.22919073    0.84309593    5.27084977
     atom    2 type  2   force =     0.70294789    1.32101319   38.35785965
     atom    3 type  2   force =    -0.18088383    0.10422842  -36.18736044
     atom    4 type  1   force =    -0.02311955    0.69153173    0.78461865
     atom    5 type  2   force =    -0.97039805    1.61976212   38.66282399
     atom    6 type  2   force =     0.29510657   -0.48489577  -37.95075880
     atom    7 type  1   force =    -2.70965550   -2.88535228    2.39611688
     atom    8 type  2   force =    -1.00083115   -0.02014241   37.49907807
     atom    9 type  2   force =     0.33013927   -0.13398031  -37.95649961
     atom   10 type  1   force =    -0.66906596   -0.34604496    4.08236012
     atom   11 type  2   force =    -0.68346848   -2.09544753   38.91716388
     atom   12 type  2   force =     0.25449086    0.58611875  -37.92417833
     atom   13 type  1   force =     0.46333709    0.96520622    2.87171479
     atom   14 type  2   force =    -0.35113641    0.12077385   38.49399743
     atom   15 type  2   force =     0.11598596   -0.01687989  -36.91725103
     atom   16 type  1   force =     0.03407479    3.92494550    0.63727149
     atom   17 type  2   force =     0.79311944    1.54105827   38.00700776
     atom   18 type  2   force =    -0.12314427   -0.55615557  -38.50248584
     atom   19 type  1   force =     2.66229365   -2.38698645    0.69672967
     atom   20 type  2   force =     0.18772317   -0.20959362  -38.50499683
     atom   21 type  1   force =    -0.28462292   -0.23218673    1.04815814
     atom   22 type  2   force =     0.39163885   -1.78595794   38.41951254
     atom   23 type  2   force =    -0.06187769    0.57662666  -38.24355157
     atom   24 type  1   force =    -0.57653934    0.93458441    4.74160374
     atom   25 type  2   force =     0.51036269    0.23841945   39.27582445
     atom   26 type  2   force =    -0.10992065   -0.02111449  -37.40143803
     atom   27 type  1   force =     0.10015326    0.65484692   -1.90987955
     atom   28 type  2   force =     0.06097272    0.94314696   38.24861983
     atom   29 type  2   force =    -0.27511271   -0.21798109  -37.37084763
     atom   30 type  1   force =    -0.12883640   -1.21950273   -0.01818640
     atom   31 type  2   force =     1.21541750   -0.03114876   37.42039120
     atom   32 type  2   force =    -0.44204240   -0.03967839  -38.56256062
     atom   33 type  1   force =     0.78682641   -0.78706613    2.17304763
     atom   34 type  2   force =     0.35101280   -1.34245230   39.25549680
     atom   35 type  2   force =    -0.11250219    0.41190779  -37.84385530
     atom   36 type  3   force =    -0.78163615   -0.66469884    8.03360351
     The local contribution  to forces
     atom    1 type  1   force =    -0.23160114   -0.88708504   -5.26046867
     atom    2 type  2   force =    -0.56620591   -1.16428958  -38.27055773
     atom    3 type  2   force =     0.18366891   -0.08918175   35.92879547
     atom    4 type  1   force =     0.02979555   -0.70790735   -0.78627079
     atom    5 type  2   force =     0.96345735   -1.59016612  -38.43836956
     atom    6 type  2   force =    -0.29062531    0.48838458   37.70857053
     atom    7 type  1   force =     2.74081738    2.88590629   -2.37900096
     atom    8 type  2   force =     0.99626342    0.02212194  -37.24960645
     atom    9 type  2   force =    -0.32471048    0.14854961   37.70957604
     atom   10 type  1   force =     0.66865145    0.34978061   -4.09980075
     atom   11 type  2   force =     0.67517072    2.08338469  -38.71257978
     atom   12 type  2   force =    -0.24772797   -0.56981638   37.68278070
     atom   13 type  1   force =    -0.45859904   -0.98781307   -2.86748922
     atom   14 type  2   force =     0.34879762   -0.10956415  -38.25347498
     atom   15 type  2   force =    -0.11614568    0.02227401   36.66968526
     atom   16 type  1   force =    -0.03181484   -3.95765760   -0.61085984
     atom   17 type  2   force =    -0.79094175   -1.51291660  -37.77310862
     atom   18 type  2   force =     0.12433068    0.55533628   38.26166944
     atom   19 type  1   force =    -2.68119767    2.37741917   -0.67913504
     atom   20 type  2   force =    -0.18342601    0.22500480   38.26063232
     atom   21 type  1   force =     0.28228366    0.22034492   -1.05023943
     atom   22 type  2   force =    -0.38549739    1.78092575  -38.18456046
     atom   23 type  2   force =     0.05378815   -0.56211145   38.00016101
     atom   24 type  1   force =     0.58404396   -0.94877574   -4.76048282
     atom   25 type  2   force =    -0.51472288   -0.22651217  -39.04279508
     atom   26 type  2   force =     0.10617222    0.02894981   37.14903194
     atom   27 type  1   force =    -0.10112727   -0.66644744    1.90984635
     atom   28 type  2   force =    -0.05816327   -0.92905196  -38.00749390
     atom   29 type  2   force =     0.27127193    0.21968635   37.12031704
     atom   30 type  1   force =     0.12619947    1.20711492    0.01418223
     atom   31 type  2   force =    -1.20487615    0.03058014  -37.17356816
     atom   32 type  2   force =     0.43824615    0.05645200   38.31702750
     atom   33 type  1   force =    -0.78373360    0.78446832   -2.17534919
     atom   34 type  2   force =    -0.34410308    1.33842075  -39.02152053
     atom   35 type  2   force =     0.11029021   -0.39705194   37.60223070
     atom   36 type  3   force =     0.73135163    0.61790182   -7.97044382
     The core correction contribution to forces
     atom    1 type  1   force =     0.00000000    0.00000000    0.00000000
     atom    2 type  2   force =     0.01186816    0.01108578    0.00772435
     atom    3 type  2   force =     0.00045039    0.00021776   -0.02096791
     atom    4 type  1   force =     0.00000000    0.00000000    0.00000000
     atom    5 type  2   force =    -0.00070322    0.00204859    0.02020578
     atom    6 type  2   force =     0.00027615   -0.00083072   -0.02089634
     atom    7 type  1   force =     0.00000000    0.00000000    0.00000000
     atom    8 type  2   force =    -0.00022266    0.00064251    0.02052497
     atom    9 type  2   force =    -0.00009997    0.00054811   -0.02096266
     atom   10 type  1   force =     0.00000000    0.00000000    0.00000000
     atom   11 type  2   force =    -0.00078206   -0.00159888    0.01874277
     atom   12 type  2   force =     0.00088616    0.00130792   -0.02075258
     atom   13 type  1   force =     0.00000000    0.00000000    0.00000000
     atom   14 type  2   force =    -0.00082303    0.00008949    0.02014094
     atom   15 type  2   force =     0.00053448    0.00025269   -0.02050435
     atom   16 type  1   force =     0.00000000    0.00000000    0.00000000
     atom   17 type  2   force =    -0.00001726    0.00155433    0.02029177
     atom   18 type  2   force =     0.00012971   -0.00040686   -0.02097257
     atom   19 type  1   force =     0.00000000    0.00000000    0.00000000
     atom   20 type  2   force =     0.00014631    0.00078575   -0.02112141
     atom   21 type  1   force =     0.00000000    0.00000000    0.00000000
     atom   22 type  2   force =     0.00020922   -0.00054924    0.02049833
     atom   23 type  2   force =    -0.00056445    0.00112374   -0.02090726
     atom   24 type  1   force =     0.00000000    0.00000000    0.00000000
     atom   25 type  2   force =    -0.00050333   -0.00039035    0.02021906
     atom   26 type  2   force =    -0.00006319    0.00047627   -0.02090958
     atom   27 type  1   force =     0.00000000    0.00000000    0.00000000
     atom   28 type  2   force =     0.00015588    0.00143089    0.02060457
     atom   29 type  2   force =    -0.00069469   -0.00032036   -0.02067327
     atom   30 type  1   force =     0.00000000    0.00000000    0.00000000
     atom   31 type  2   force =     0.00055189    0.00010908    0.02057407
     atom   32 type  2   force =    -0.00005484    0.00067933   -0.02095530
     atom   33 type  1   force =     0.00000000    0.00000000    0.00000000
     atom   34 type  2   force =     0.00080063    0.00067734    0.02080293
     atom   35 type  2   force =     0.00000907    0.00092378   -0.02102542
     atom   36 type  3   force =     0.00000000    0.00000000    0.00000000
     The Hubbard contrib.    to forces
     atom    1 type  1   force =     0.00000000    0.00000000    0.00000000
     atom    2 type  2   force =     0.00000000    0.00000000    0.00000000
     atom    3 type  2   force =     0.00000000    0.00000000    0.00000000
     atom    4 type  1   force =     0.00000000    0.00000000    0.00000000
     atom    5 type  2   force =     0.00000000    0.00000000    0.00000000
     atom    6 type  2   force =     0.00000000    0.00000000    0.00000000
     atom    7 type  1   force =     0.00000000    0.00000000    0.00000000
     atom    8 type  2   force =     0.00000000    0.00000000    0.00000000
     atom    9 type  2   force =     0.00000000    0.00000000    0.00000000
     atom   10 type  1   force =     0.00000000    0.00000000    0.00000000
     atom   11 type  2   force =     0.00000000    0.00000000    0.00000000
     atom   12 type  2   force =     0.00000000    0.00000000    0.00000000
     atom   13 type  1   force =     0.00000000    0.00000000    0.00000000
     atom   14 type  2   force =     0.00000000    0.00000000    0.00000000
     atom   15 type  2   force =     0.00000000    0.00000000    0.00000000
     atom   16 type  1   force =     0.00000000    0.00000000    0.00000000
     atom   17 type  2   force =     0.00000000    0.00000000    0.00000000
     atom   18 type  2   force =     0.00000000    0.00000000    0.00000000
     atom   19 type  1   force =     0.00000000    0.00000000    0.00000000
     atom   20 type  2   force =     0.00000000    0.00000000    0.00000000
     atom   21 type  1   force =     0.00000000    0.00000000    0.00000000
     atom   22 type  2   force =     0.00000000    0.00000000    0.00000000
     atom   23 type  2   force =     0.00000000    0.00000000    0.00000000
     atom   24 type  1   force =     0.00000000    0.00000000    0.00000000
     atom   25 type  2   force =     0.00000000    0.00000000    0.00000000
     atom   26 type  2   force =     0.00000000    0.00000000    0.00000000
     atom   27 type  1   force =     0.00000000    0.00000000    0.00000000
     atom   28 type  2   force =     0.00000000    0.00000000    0.00000000
     atom   29 type  2   force =     0.00000000    0.00000000    0.00000000
     atom   30 type  1   force =     0.00000000    0.00000000    0.00000000
     atom   31 type  2   force =     0.00000000    0.00000000    0.00000000
     atom   32 type  2   force =     0.00000000    0.00000000    0.00000000
     atom   33 type  1   force =     0.00000000    0.00000000    0.00000000
     atom   34 type  2   force =     0.00000000    0.00000000    0.00000000
     atom   35 type  2   force =     0.00000000    0.00000000    0.00000000
     atom   36 type  3   force =     0.00000000    0.00000000    0.00000000
     The SCF correction term to forces
     atom    1 type  1   force =    -0.00011272    0.00045162    0.00017106
     atom    2 type  2   force =     0.00008156   -0.00017594   -0.00019792
     atom    3 type  2   force =    -0.00002232    0.00002915    0.00020001
     atom    4 type  1   force =    -0.00029783    0.00044467    0.00032794
     atom    5 type  2   force =    -0.00003137    0.00020704   -0.00000370
     atom    6 type  2   force =    -0.00003099    0.00014462    0.00021698
     atom    7 type  1   force =     0.00001244   -0.00009975    0.00054814
     atom    8 type  2   force =    -0.00016108    0.00004032   -0.00003449
     atom    9 type  2   force =    -0.00013874   -0.00000978    0.00022880
     atom   10 type  1   force =    -0.00008025   -0.00022229    0.00088596
     atom   11 type  2   force =    -0.00004476   -0.00027865   -0.00008935
     atom   12 type  2   force =    -0.00009673   -0.00029929    0.00027476
     atom   13 type  1   force =     0.00019001    0.00012514    0.00038518
     atom   14 type  2   force =    -0.00009271   -0.00002420    0.00006623
     atom   15 type  2   force =     0.00001818    0.00004138    0.00017427
     atom   16 type  1   force =     0.00026895    0.00020863    0.00031303
     atom   17 type  2   force =     0.00005476    0.00013749    0.00009885
     atom   18 type  2   force =     0.00005249    0.00016103    0.00010789
     atom   19 type  1   force =     0.00023500    0.00000418    0.00044181
     atom   20 type  2   force =     0.00014364    0.00002390    0.00019843
     atom   21 type  1   force =     0.00010269   -0.00059016    0.00052516
     atom   22 type  2   force =     0.00008333   -0.00011155    0.00012242
     atom   23 type  2   force =     0.00005929   -0.00013691    0.00017099
     atom   24 type  1   force =    -0.00014786   -0.00008129    0.00073532
     atom   25 type  2   force =    -0.00003494   -0.00008801    0.00000726
     atom   26 type  2   force =     0.00008139   -0.00005679    0.00013373
     atom   27 type  1   force =     0.00007584    0.00042857    0.00031103
     atom   28 type  2   force =    -0.00002981    0.00011952    0.00006923
     atom   29 type  2   force =    -0.00004916    0.00023813    0.00008748
     atom   30 type  1   force =    -0.00014854   -0.00037838    0.00041130
     atom   31 type  2   force =    -0.00002390    0.00001617    0.00010035
     atom   32 type  2   force =    -0.00002213   -0.00005934    0.00013591
     atom   33 type  1   force =     0.00002888   -0.00017778    0.00059255
     atom   34 type  2   force =    -0.00004390   -0.00001422    0.00003093
     atom   35 type  2   force =     0.00004886   -0.00014958    0.00011374
     atom   36 type  3   force =     0.00000427   -0.00003270   -0.00003239

     Total force =     0.088968     Total SCF correction =     0.002392
     Energy error            =      1.6E-02 Ry
     Gradient error          =      3.3E-02 Ry/Bohr

     number of scf cycles    =   2
     number of bfgs steps    =   1

     energy             old  =   -2205.5308151143 Ry
     energy             new  =   -2205.5469361539 Ry

     CASE: energy            _new < energy            _old

     new trust radius        =       0.0717240755 bohr
     new conv_thr            =       0.0000000334 Ry


ATOMIC_POSITIONS (angstrom)
Mo            6.5767288764        1.7652510533        2.8222070206
S             8.1450473506        0.8383178879        4.4627431268
S             8.1800632119        0.8255492504        1.2678140622
Mo            8.1070892809        4.4895456615        2.7186670569
S             6.4979771136        3.7170088831        4.3364365728
S             6.5563034271        3.5266670168        1.1235245803
Mo            6.4961530406        7.2077740003        2.6605726091
S             8.0837376378        6.3367762041        4.2630587448
S             8.0980709582        6.3132599191        1.0974494200
Mo            8.1636494816        9.8981058302        2.7894760797
S             6.4995288994        8.9459046126        4.3782504571
S             6.6154458752        9.0500061511        1.1424627005
Mo            3.4286792644        1.7532303295        2.7730143023
S             4.9839242025        0.8187861361        4.3616491416
S             5.0430305374        0.8498860471        1.2139222320
Mo            4.9779042805        4.5217591688        2.6370211866
S             3.4354352707        3.6724760369        4.2834827442
S             3.4320744819        3.5407045291        1.0751528850
Mo            3.4580527781        7.1989929164        2.6292431119
S             4.9889134688        6.3196106464        1.0363660585
Mo            5.0099888050        9.9102182268        2.7446462597
S             3.4680190825        8.9413229640        4.3217019601
S             3.4067152448        9.0677819253        1.1036129580
Mo            0.3214017603        1.7621238233        2.7872949922
S             1.8734589413        0.8172141737        4.4030925080
S             1.8474290504        0.8534465613        1.1987347740
Mo            1.8577186338        4.4958858012        2.6708632560
S             0.2758673084        3.6546500098        4.3299962965
S             0.2373800570        3.5266000964        1.1646396679
Mo            0.2652529696        7.2266343497        2.6992429294
S             1.9040164536        6.3126489247        4.2418003824
S             1.8496805871        6.3183926940        1.0539519516
Mo            1.8528702527        9.9394648088        2.7669934305
S             0.2970429945        9.0372857836        4.3967275248
S             0.2685623318        9.0513495597        1.1634240090
H             7.3243908792       -0.0236855728        5.1715105837



     Writing config-only to output data dir ./MoS2-V-O.save/
     NEW-OLD atomic charge density approx. for the potential

     negative rho (up, down):  1.478E-04 0.000E+00

     total cpu time spent up to now is      204.5 secs

     Self-consistent Calculation

     iteration #  1     ecut=    80.00 Ry     beta= 0.70
     Davidson diagonalization with overlap
     ethr =  1.00E-06,  avg # of iterations = 18.0

     negative rho (up, down):  1.718E-04 0.000E+00

     total cpu time spent up to now is      224.2 secs

     total energy              =   -2205.55772674 Ry
     estimated scf accuracy    <       0.00256018 Ry

     iteration #  2     ecut=    80.00 Ry     beta= 0.70
     Davidson diagonalization with overlap
     ethr =  8.34E-07,  avg # of iterations =  2.0

     negative rho (up, down):  1.755E-04 0.000E+00

     total cpu time spent up to now is      235.8 secs

     total energy              =   -2205.55785800 Ry
     estimated scf accuracy    <       0.00074837 Ry

     iteration #  3     ecut=    80.00 Ry     beta= 0.70
     Davidson diagonalization with overlap
     ethr =  2.44E-07,  avg # of iterations =  2.0

     negative rho (up, down):  1.895E-04 0.000E+00

     total cpu time spent up to now is      260.7 secs

     total energy              =   -2205.55790207 Ry
     estimated scf accuracy    <       0.00019364 Ry

     iteration #  4     ecut=    80.00 Ry     beta= 0.70
     Davidson diagonalization with overlap
     ethr =  6.31E-08,  avg # of iterations =  4.0

     negative rho (up, down):  1.880E-04 0.000E+00

     total cpu time spent up to now is      274.2 secs

     total energy              =   -2205.55792436 Ry
     estimated scf accuracy    <       0.00000907 Ry

     iteration #  5     ecut=    80.00 Ry     beta= 0.70
     Davidson diagonalization with overlap
     ethr =  2.95E-09,  avg # of iterations =  8.0

     negative rho (up, down):  1.815E-04 0.000E+00

     total cpu time spent up to now is      290.2 secs

     total energy              =   -2205.55793020 Ry
     estimated scf accuracy    <       0.00000423 Ry

     iteration #  6     ecut=    80.00 Ry     beta= 0.70
     Davidson diagonalization with overlap
     ethr =  1.38E-09,  avg # of iterations =  2.0

     negative rho (up, down):  1.700E-04 0.000E+00

     total cpu time spent up to now is      304.7 secs

     total energy              =   -2205.55793036 Ry
     estimated scf accuracy    <       0.00000101 Ry

     iteration #  7     ecut=    80.00 Ry     beta= 0.70
     Davidson diagonalization with overlap
     ethr =  3.28E-10,  avg # of iterations =  4.0

     negative rho (up, down):  1.638E-04 0.000E+00

     total cpu time spent up to now is      323.3 secs

     total energy              =   -2205.55793055 Ry
     estimated scf accuracy    <       0.00000018 Ry

     iteration #  8     ecut=    80.00 Ry     beta= 0.70
     Davidson diagonalization with overlap
     ethr =  6.00E-11,  avg # of iterations =  6.0

     negative rho (up, down):  1.567E-04 0.000E+00

     total cpu time spent up to now is      334.0 secs

     total energy              =   -2205.55793060 Ry
     estimated scf accuracy    <       0.00000005 Ry

     iteration #  9     ecut=    80.00 Ry     beta= 0.70
     Davidson diagonalization with overlap
     ethr =  1.58E-11,  avg # of iterations =  5.0

     negative rho (up, down):  1.384E-04 0.000E+00

     total cpu time spent up to now is      336.4 secs

     End of self-consistent calculation

          k = 0.0000 0.0000 0.0000 (105382 PWs)   bands (ev):

   -62.8568 -62.8521 -62.8299 -62.8201 -62.8127 -62.8096 -62.8010 -62.7953
   -62.7650 -62.7163 -62.6887 -62.6753 -37.1939 -37.1260 -37.1194 -37.1128
   -37.1047 -37.0787 -37.0577 -37.0493 -37.0465 -37.0356 -37.0310 -37.0152
   -37.0138 -37.0068 -36.9992 -36.9895 -36.9880 -36.9866 -36.9748 -36.9657
   -36.9323 -36.9207 -36.9046 -36.8938 -36.8759 -36.8661 -36.8624 -36.8571
   -36.8503 -36.8411 -36.8340 -36.8221 -36.8128 -36.7808 -36.6836 -36.6502
   -16.1587 -15.5832 -15.1706 -15.0478 -14.9152 -14.8573 -14.6605 -14.4778
   -14.4376 -14.4117 -14.3719 -14.3627 -14.3278 -14.2709 -14.1615 -14.1269
   -14.1002 -14.0874 -14.0110 -13.9023 -13.8318 -13.8110 -13.7776  -8.7576
    -7.6017  -7.4196  -7.2816  -7.2625  -7.2328  -7.1715  -7.1274  -7.0314
    -6.8277  -6.7717  -6.7500  -6.6861  -6.5752  -6.4966  -6.4757  -6.4144
    -6.3312  -6.2727  -6.0676  -5.9537  -5.9318  -5.8712  -5.8139  -5.7793
    -5.7593  -5.7062  -5.6638  -5.6468  -5.6156  -5.5539  -5.5101  -5.4365
    -5.3648  -5.3129  -5.2302  -5.1248  -5.0328  -5.0120  -4.9700  -4.9384
    -4.9207  -4.8149  -4.6337  -4.5496  -4.3974  -4.3131  -4.2810  -4.2360
    -4.2010  -4.0733  -4.0435  -3.9025  -3.8335  -3.7424  -3.7163  -3.6889
    -3.6570  -3.6053  -3.5310  -3.5005  -3.4815  -3.4510  -3.4055  -3.3633
    -3.3412  -3.1931  -3.1265  -2.8887  -2.8645  -2.7644  -2.7522  -2.7015
    -2.6936  -2.6798  -2.6639  -2.6009  -2.5226  -2.2468  -2.0377  -1.9701
    -1.9263  -0.8690  -0.7237  -0.6275  -0.1475  -0.1063  -0.0999  -0.0417
     0.0702   0.1341   0.1601   0.2766   0.3018   0.3234   0.3549   0.4872
     0.5062   0.5712   0.5962   0.6151   0.6486   0.6806   0.7313   0.7697
     0.7938   0.8282   0.8593   0.9261   0.9911   1.0053   1.0407   1.2801
     1.3937

     the Fermi energy is    -0.8821 ev

!    total energy              =   -2205.55793064 Ry
     estimated scf accuracy    <       0.00000001 Ry
     smearing contrib. (-TS)   =      -0.00721527 Ry
     internal energy E=F+TS    =   -2205.55071538 Ry

     The total energy is F=E-TS. E is the sum of the following terms:
     one-electron contribution =  -18052.99649313 Ry
     hartree contribution      =    9013.44249371 Ry
     xc contribution           =    -385.35952790 Ry
     ewald contribution        =    7219.36281194 Ry

     convergence has been achieved in   9 iterations

     negative rho (up, down):  1.384E-04 0.000E+00

     Forces acting on atoms (cartesian axes, Ry/au):

     atom    1 type  1   force =    -0.00438928   -0.00116787   -0.00272435
     atom    2 type  2   force =    -0.01722511   -0.00450843    0.01492299
     atom    3 type  2   force =    -0.00496175    0.00736113   -0.01277017
     atom    4 type  1   force =     0.00515211    0.00022854    0.00140327
     atom    5 type  2   force =     0.00055712   -0.00455139   -0.00598976
     atom    6 type  2   force =     0.00093567    0.00484904    0.00251862
     atom    7 type  1   force =     0.00379721   -0.00478319    0.00238343
     atom    8 type  2   force =     0.00033214   -0.00421033    0.00585224
     atom    9 type  2   force =     0.00845395    0.00246998    0.00366074
     atom   10 type  1   force =     0.00005038    0.00833811    0.00568412
     atom   11 type  2   force =     0.00621584    0.00165477   -0.01021741
     atom   12 type  2   force =    -0.00498783   -0.00093307   -0.00456500
     atom   13 type  1   force =     0.00323634   -0.00075497   -0.00085237
     atom   14 type  2   force =     0.00280095    0.00087352    0.00271596
     atom   15 type  2   force =    -0.00552869    0.00079617   -0.00631816
     atom   16 type  1   force =    -0.00067139    0.00495065    0.00183459
     atom   17 type  2   force =     0.00357407    0.00086593    0.00363837
     atom   18 type  2   force =    -0.00156892   -0.00055041    0.00660868
     atom   19 type  1   force =     0.00034425   -0.00707764    0.00213172
     atom   20 type  2   force =     0.00268340   -0.00380910   -0.00378622
     atom   21 type  1   force =    -0.00075176    0.00290508    0.00159734
     atom   22 type  2   force =    -0.00031921   -0.00197716   -0.00373767
     atom   23 type  2   force =     0.00060882   -0.00114388    0.00315142
     atom   24 type  1   force =    -0.00156514    0.00116767   -0.00490661
     atom   25 type  2   force =     0.00449183    0.01107866   -0.00571963
     atom   26 type  2   force =     0.00465126   -0.00257761   -0.01187312
     atom   27 type  1   force =    -0.00011224    0.00297231    0.00392949
     atom   28 type  2   force =     0.00239980   -0.00508779   -0.00519194
     atom   29 type  2   force =     0.00563435    0.00684488   -0.01120075
     atom   30 type  1   force =     0.00126283   -0.00348440    0.00593234
     atom   31 type  2   force =     0.00048226   -0.00010309    0.00691430
     atom   32 type  2   force =    -0.00485342    0.00359244    0.00492962
     atom   33 type  1   force =    -0.00172428    0.00253271    0.00443469
     atom   34 type  2   force =    -0.00310425   -0.01609021   -0.01423940
     atom   35 type  2   force =     0.00138020    0.00292008   -0.00405368
     atom   36 type  3   force =    -0.00728152   -0.00359114    0.02390232
     The non-local contrib.  to forces
     atom    1 type  1   force =     0.00358013    0.02936156   -0.01240970
     atom    2 type  2   force =    -0.17609274   -0.17709646   -0.08410264
     atom    3 type  2   force =    -0.00596273   -0.00805834    0.26730276
     atom    4 type  1   force =     0.00313630    0.01251132    0.00232727
     atom    5 type  2   force =     0.00798382   -0.03538073   -0.25215109
     atom    6 type  2   force =    -0.00331908    0.00268335    0.26655882
     atom    7 type  1   force =    -0.02540652   -0.00616601   -0.02207613
     atom    8 type  2   force =     0.00601953   -0.00750166   -0.26183868
     atom    9 type  2   force =     0.00273008   -0.01139832    0.27255032
     atom   10 type  1   force =     0.00361477   -0.00283142   -0.00241914
     atom   11 type  2   force =     0.01221468    0.01456997   -0.23112368
     atom   12 type  2   force =    -0.01094166   -0.01801251    0.25983962
     atom   13 type  1   force =     0.00012322    0.02529414   -0.00566396
     atom   14 type  2   force =     0.00534150   -0.01086494   -0.25600544
     atom   15 type  2   force =    -0.00648990   -0.00508647    0.25930837
     atom   16 type  1   force =    -0.00388299    0.03798403   -0.02655461
     atom   17 type  2   force =     0.00191754   -0.02800591   -0.25117943
     atom   18 type  2   force =    -0.00337573   -0.00034583    0.27008595
     atom   19 type  1   force =     0.02044003    0.00055784   -0.01935328
     atom   20 type  2   force =    -0.00164509   -0.01929965    0.26181380
     atom   21 type  1   force =     0.00049309    0.01923037    0.00263373
     atom   22 type  2   force =    -0.00636965    0.00287454   -0.26003578
     atom   23 type  2   force =     0.00932500   -0.01694579    0.26850637
     atom   24 type  1   force =     0.00531051    0.02274484   -0.00892992
     atom   25 type  2   force =     0.01389843   -0.00072259   -0.25630995
     atom   26 type  2   force =     0.00561982   -0.00986726    0.26103683
     atom   27 type  1   force =    -0.00200325    0.01150575    0.00572478
     atom   28 type  2   force =     0.00008561   -0.01563723   -0.26722053
     atom   29 type  2   force =     0.00964856    0.00189821    0.26134468
     atom   30 type  1   force =    -0.00019193    0.01751201    0.00588098
     atom   31 type  2   force =    -0.01110426    0.00029549   -0.25935236
     atom   32 type  2   force =    -0.00076819   -0.01271249    0.27182613
     atom   33 type  1   force =    -0.00026509    0.00352524    0.00130282
     atom   34 type  2   force =    -0.00877468   -0.01629693   -0.27033681
     atom   35 type  2   force =     0.00178013   -0.01191667    0.26173306
     atom   36 type  3   force =     0.03251295    0.03425279   -0.02865000
     The ionic contribution  to forces
     atom    1 type  1   force =     0.36216225    0.97032044    5.24871802
     atom    2 type  2   force =     0.99166193    1.19714446   38.39058290
     atom    3 type  2   force =    -0.21613657    0.11455885  -36.20887368
     atom    4 type  1   force =    -0.19672549    0.61632802    0.94611627
     atom    5 type  2   force =    -0.92527001    1.58205223   38.55025441
     atom    6 type  2   force =     0.26445916   -0.50737944  -37.83460866
[...]
     atom   27 type  1   force =    -0.00335785    0.00780982    0.00374508
     atom   28 type  2   force =     0.00045247    0.00005235   -0.26399328
     atom   29 type  2   force =     0.00293148   -0.01041400    0.26802567
     atom   30 type  1   force =     0.00333436    0.01858973    0.00516576
     atom   31 type  2   force =    -0.01076275    0.00285598   -0.26301974
     atom   32 type  2   force =     0.00259987   -0.01398339    0.26755669
     atom   33 type  1   force =    -0.00038144    0.00627540    0.00422688
     atom   34 type  2   force =    -0.00730351   -0.00569575   -0.26786547
     atom   35 type  2   force =     0.00396974   -0.01401937    0.26581810
     atom   36 type  3   force =     0.03350285    0.01972799   -0.03824224
     The ionic contribution  to forces
     atom    1 type  1   force =     0.69519836    1.12932976    4.75905554
     atom    2 type  2   force =     1.69344848    1.20112223   38.65271280
     atom    3 type  2   force =    -0.19255492   -0.17852434  -36.75836951
     atom    4 type  1   force =    -0.43996055    0.24828431    0.43066373
     atom    5 type  2   force =    -0.72982556    1.43144550   38.29864849
     atom    6 type  2   force =     0.18334712   -0.45458653  -37.54604763
     atom    7 type  1   force =    -2.78635584   -1.94987118    2.70290129
     atom    8 type  2   force =    -1.12691639    0.05548426   38.08969524
     atom    9 type  2   force =     0.17800604    0.03461336  -37.82930726
     atom   10 type  1   force =    -0.00589588    0.00094630    4.32552349
     atom   11 type  2   force =    -0.72245774   -2.00096964   38.39810615
     atom   12 type  2   force =     0.18432692    0.32486992  -37.58049837
     atom   13 type  1   force =     0.24038994    0.64117217    1.88776891
     atom   14 type  2   force =    -0.61936630    0.02456688   38.41958146
     atom   15 type  2   force =     0.19569839   -0.10053766  -37.35372977
     atom   16 type  1   force =     0.32228157    3.43731868    2.37650794
     atom   17 type  2   force =     0.73077487    1.19891660   38.33920364
     atom   18 type  2   force =     0.04524000   -0.31657390  -38.12859844
     atom   19 type  1   force =     3.03145789   -1.45510099    2.41849920
     atom   20 type  2   force =     0.11682884    0.06814741  -38.51861667
     atom   21 type  1   force =    -0.20306537   -0.75312886    1.10633882
     atom   22 type  2   force =     0.34988706   -1.50499312   38.25076658
     atom   23 type  2   force =    -0.06656400    0.25387740  -37.80216463
     atom   24 type  1   force =    -1.44967712   -0.33962987   -0.24025382
     atom   25 type  2   force =    -0.05371617    0.09957792   38.50541881
     atom   26 type  2   force =     0.08798740   -0.33365340  -38.09993516
     atom   27 type  1   force =     0.13066974    0.46261593   -0.14894794
     atom   28 type  2   force =    -0.04708399    0.29791050   37.92749389
     atom   29 type  2   force =    -0.25391935    0.09449497  -38.15151345
     atom   30 type  1   force =    -0.12243049   -0.61931613    1.54228522
     atom   31 type  2   force =     1.14426933    0.09422973   38.31284092
     atom   32 type  2   force =    -0.34967895    0.12014339  -38.19024491
     atom   33 type  1   force =     0.43453446   -0.44466115    1.95567335
     atom   34 type  2   force =     0.29118652   -0.58529786   38.77739674
     atom   35 type  2   force =    -0.17308688    0.24320022  -37.44323509
     atom   36 type  3   force =    -0.71297741   -0.42542284    8.31438045
     The local contribution  to forces
     atom    1 type  1   force =    -0.69702217   -1.15290683   -4.74967051
     atom    2 type  2   force =    -1.45565797   -1.08229330  -38.63900501
     atom    3 type  2   force =     0.19287295    0.18883920   36.50801757
     atom    4 type  1   force =     0.43286193   -0.25638667   -0.43435147
     atom    5 type  2   force =     0.72640971   -1.40351749  -38.06907554
     atom    6 type  2   force =    -0.18286121    0.45632498   37.30008363
     atom    7 type  1   force =     2.80649015    1.95265827   -2.67717223
     atom    8 type  2   force =     1.12049241   -0.05422867  -37.84553151
     atom    9 type  2   force =    -0.17297215   -0.02231644   37.58222539
     atom   10 type  1   force =     0.00149506   -0.00619202   -4.32166331
     atom   11 type  2   force =     0.71749893    1.99598517  -38.17481712
     atom   12 type  2   force =    -0.17781897   -0.30668364   37.33471603
     atom   13 type  1   force =    -0.23789408   -0.66495965   -1.88685559
     atom   14 type  2   force =     0.61690391   -0.01251491  -38.18818323
     atom   15 type  2   force =    -0.19197458    0.10727402   37.11174282
     atom   16 type  1   force =    -0.31681497   -3.47616099   -2.34275588
     atom   17 type  2   force =    -0.73066442   -1.17685899  -38.10483032
     atom   18 type  2   force =    -0.04200012    0.32022192   37.88286436
     atom   19 type  1   force =    -3.05044374    1.45060740   -2.39344366
     atom   20 type  2   force =    -0.11507712   -0.05506411   38.27717594
     atom   21 type  1   force =     0.20443553    0.72824216   -1.10854352
     atom   22 type  2   force =    -0.34340500    1.50546303  -38.01401920
     atom   23 type  2   force =     0.05802355   -0.24252911   37.55491015
     atom   24 type  1   force =     1.45298512    0.32250443    0.24191609
     atom   25 type  2   force =     0.03822772   -0.08592611  -38.27261191
     atom   26 type  2   force =    -0.08741494    0.33681205   37.85355732
     atom   27 type  1   force =    -0.12711151   -0.47058936    0.14480741
     atom   28 type  2   force =     0.04620897   -0.29821881  -37.68431773
     atom   29 type  2   force =     0.25115975   -0.08394302   37.90337949
     atom   30 type  1   force =     0.11857247    0.60054842   -1.54693538
     atom   31 type  2   force =    -1.13420897   -0.09744654  -38.07092397
     atom   32 type  2   force =     0.34665680   -0.10695212   37.94452388
     atom   33 type  1   force =    -0.43356988    0.43840702   -1.95977904
     atom   34 type  2   force =    -0.28503748    0.59126523  -38.53044162
     atom   35 type  2   force =     0.17052062   -0.22976595   37.19779646
     atom   36 type  3   force =     0.67961569    0.40659318   -8.27640927
     The core correction contribution to forces
     atom    1 type  1   force =     0.00000000    0.00000000    0.00000000
     atom    2 type  2   force =     0.01641900    0.00852398    0.00308219
     atom    3 type  2   force =    -0.00031068    0.00024741   -0.02115469
     atom    4 type  1   force =     0.00000000    0.00000000    0.00000000
     atom    5 type  2   force =    -0.00031281    0.00159216    0.02000157
     atom    6 type  2   force =     0.00008891   -0.00047222   -0.02081121
     atom    7 type  1   force =     0.00000000    0.00000000    0.00000000
     atom    8 type  2   force =    -0.00029243    0.00036503    0.02076683
     atom    9 type  2   force =     0.00050412    0.00068477   -0.02091104
     atom   10 type  1   force =     0.00000000    0.00000000    0.00000000
     atom   11 type  2   force =    -0.00029832   -0.00085515    0.01958865
     atom   12 type  2   force =     0.00065469    0.00126381   -0.02087216
     atom   13 type  1   force =     0.00000000    0.00000000    0.00000000
     atom   14 type  2   force =    -0.00062858    0.00025952    0.02002833
     atom   15 type  2   force =     0.00036741    0.00035591   -0.02071557
     atom   16 type  1   force =     0.00000000    0.00000000    0.00000000
     atom   17 type  2   force =     0.00006388    0.00096309    0.02037720
     atom   18 type  2   force =     0.00011870   -0.00024946   -0.02088002
     atom   19 type  1   force =     0.00000000    0.00000000    0.00000000
     atom   20 type  2   force =     0.00006206    0.00061612   -0.02116914
     atom   21 type  1   force =     0.00000000    0.00000000    0.00000000
     atom   22 type  2   force =    -0.00001931   -0.00021070    0.02038048
     atom   23 type  2   force =    -0.00067956    0.00082790   -0.02090247
     atom   24 type  1   force =     0.00000000    0.00000000    0.00000000
     atom   25 type  2   force =    -0.00086844    0.00072841    0.02026145
     atom   26 type  2   force =     0.00022643    0.00004094   -0.02095480
     atom   27 type  1   force =     0.00000000    0.00000000    0.00000000
     atom   28 type  2   force =     0.00011255    0.00010384    0.02073174
     atom   29 type  2   force =    -0.00015566    0.00056065   -0.02090685
     atom   30 type  1   force =     0.00000000    0.00000000    0.00000000
     atom   31 type  2   force =     0.00047427    0.00007997    0.02077829
     atom   32 type  2   force =    -0.00044791    0.00071333   -0.02095044
     atom   33 type  1   force =     0.00000000    0.00000000    0.00000000
     atom   34 type  2   force =     0.00059388    0.00001369    0.02088826
     atom   35 type  2   force =    -0.00037296    0.00090466   -0.02090467
     atom   36 type  3   force =     0.00000000    0.00000000    0.00000000
     The Hubbard contrib.    to forces
     atom    1 type  1   force =     0.00000000    0.00000000    0.00000000
     atom    2 type  2   force =     0.00000000    0.00000000    0.00000000
     atom    3 type  2   force =     0.00000000    0.00000000    0.00000000
     atom    4 type  1   force =     0.00000000    0.00000000    0.00000000
     atom    5 type  2   force =     0.00000000    0.00000000    0.00000000
     atom    6 type  2   force =     0.00000000    0.00000000    0.00000000
     atom    7 type  1   force =     0.00000000    0.00000000    0.00000000
     atom    8 type  2   force =     0.00000000    0.00000000    0.00000000
     atom    9 type  2   force =     0.00000000    0.00000000    0.00000000
     atom   10 type  1   force =     0.00000000    0.00000000    0.00000000
     atom   11 type  2   force =     0.00000000    0.00000000    0.00000000
     atom   12 type  2   force =     0.00000000    0.00000000    0.00000000
     atom   13 type  1   force =     0.00000000    0.00000000    0.00000000
     atom   14 type  2   force =     0.00000000    0.00000000    0.00000000
     atom   15 type  2   force =     0.00000000    0.00000000    0.00000000
     atom   16 type  1   force =     0.00000000    0.00000000    0.00000000
     atom   17 type  2   force =     0.00000000    0.00000000    0.00000000
     atom   18 type  2   force =     0.00000000    0.00000000    0.00000000
     atom   19 type  1   force =     0.00000000    0.00000000    0.00000000
     atom   20 type  2   force =     0.00000000    0.00000000    0.00000000
     atom   21 type  1   force =     0.00000000    0.00000000    0.00000000
     atom   22 type  2   force =     0.00000000    0.00000000    0.00000000
     atom   23 type  2   force =     0.00000000    0.00000000    0.00000000
     atom   24 type  1   force =     0.00000000    0.00000000    0.00000000
     atom   25 type  2   force =     0.00000000    0.00000000    0.00000000
     atom   26 type  2   force =     0.00000000    0.00000000    0.00000000
     atom   27 type  1   force =     0.00000000    0.00000000    0.00000000
     atom   28 type  2   force =     0.00000000    0.00000000    0.00000000
     atom   29 type  2   force =     0.00000000    0.00000000    0.00000000
     atom   30 type  1   force =     0.00000000    0.00000000    0.00000000
     atom   31 type  2   force =     0.00000000    0.00000000    0.00000000
     atom   32 type  2   force =     0.00000000    0.00000000    0.00000000
     atom   33 type  1   force =     0.00000000    0.00000000    0.00000000
     atom   34 type  2   force =     0.00000000    0.00000000    0.00000000
     atom   35 type  2   force =     0.00000000    0.00000000    0.00000000
     atom   36 type  3   force =     0.00000000    0.00000000    0.00000000
     The SCF correction term to forces
     atom    1 type  1   force =    -0.00000822    0.00007953    0.00009857
     atom    2 type  2   force =     0.00000091    0.00005181    0.00001509
     atom    3 type  2   force =    -0.00000755    0.00003034   -0.00000947
     atom    4 type  1   force =    -0.00002091    0.00003137    0.00005587
     atom    5 type  2   force =     0.00000739   -0.00001887    0.00000623
     atom    6 type  2   force =    -0.00001650   -0.00001427    0.00003737
     atom    7 type  1   force =    -0.00003981    0.00002624    0.00005207
     atom    8 type  2   force =    -0.00000091    0.00000376    0.00001740
     atom    9 type  2   force =     0.00001122   -0.00000483    0.00000879
     atom   10 type  1   force =    -0.00002609   -0.00008424    0.00005895
     atom   11 type  2   force =    -0.00001975   -0.00003106    0.00001478
     atom   12 type  2   force =    -0.00001997   -0.00001767   -0.00000098
     atom   13 type  1   force =     0.00005527    0.00002511    0.00004717
     atom   14 type  2   force =     0.00000063    0.00002091    0.00003506
     atom   15 type  2   force =     0.00000495    0.00001731   -0.00000377
     atom   16 type  1   force =     0.00006137   -0.00000509    0.00007263
     atom   17 type  2   force =     0.00000359   -0.00000494    0.00002537
     atom   18 type  2   force =     0.00002591    0.00001455    0.00000608
     atom   19 type  1   force =     0.00000120    0.00003306    0.00006660
     atom   20 type  2   force =    -0.00002568    0.00001421    0.00001840
     atom   21 type  1   force =     0.00003241   -0.00008781   -0.00000155
     atom   22 type  2   force =     0.00000163   -0.00004483    0.00002255
     atom   23 type  2   force =     0.00000249   -0.00003657   -0.00000121
     atom   24 type  1   force =    -0.00007541    0.00005810    0.00008865
     atom   25 type  2   force =     0.00000455   -0.00000111    0.00004970
     atom   26 type  2   force =     0.00001427   -0.00000749   -0.00001505
     atom   27 type  1   force =    -0.00004174    0.00009294    0.00007137
     atom   28 type  2   force =    -0.00000982   -0.00001253    0.00002959
     atom   29 type  2   force =     0.00000370    0.00001562    0.00000745
     atom   30 type  1   force =     0.00004260   -0.00000551    0.00002447
     atom   31 type  2   force =    -0.00000236    0.00001646    0.00000656
     atom   32 type  2   force =     0.00000669    0.00000656    0.00001212
     atom   33 type  1   force =     0.00001650   -0.00005203    0.00000897
     atom   34 type  2   force =     0.00001347   -0.00002082    0.00002660
     atom   35 type  2   force =     0.00001509   -0.00003369   -0.00000557
     atom   36 type  3   force =     0.00000040    0.00000296    0.00000380

     Total force =     0.006020     Total SCF correction =     0.000360
     Energy error            =      8.3E-05 Ry
     Gradient error          =      2.0E-03 Ry/Bohr

     bfgs converged in  22 scf cycles and  21 bfgs steps
     (criteria: energy <  1.0E-04 Ry, force <  1.0E-02 Ry/Bohr)

     End of BFGS Geometry Optimization

     Final energy             =   -2205.5811665766 Ry

     File ./MoS2-V-O.bfgs deleted, as requested
Begin final coordinates

ATOMIC_POSITIONS (angstrom)
Mo            6.5678472081        1.7402572722        2.8033863152
S             8.0499331778        0.7633551928        4.5338478037
S             8.1371428314        0.8340826182        1.2066356896
Mo            8.1472060606        4.4777796394        2.7018821339
S             6.5365607567        3.6798746532        4.3151349266
S             6.5630345486        3.5385397998        1.1302853485
Mo            6.5283235496        7.1671739268        2.6663540827
S             8.1109715906        6.2926603118        4.2895321075
S             8.1504452634        6.3154683360        1.1064944034
Mo            8.1406759382        9.9235894893        2.8002839317
S             6.5084742468        8.9198445406        4.3356681771
S             6.6080794061        9.0281260824        1.1438390234
Mo            3.4325715940        1.7568974573        2.7404717194
S             4.9648844281        0.8151087641        4.3425213700
S             5.0274705508        0.8379535351        1.1747074327
Mo            5.0009354990        4.5352295631        2.6589409187
S             3.4649482510        3.6594674492        4.2991207634
S             3.4545332033        3.5622252178        1.0930719103
Mo            3.4695742213        7.1730482960        2.6564555499
S             5.0057225886        6.3055575908        1.0412705595
Mo            4.9967406032        9.9044791218        2.7321857909
S             3.4453723228        8.9548421960        4.3066841883
S             3.4058335000        9.0378553162        1.1172601466
Mo            0.3073240378        1.7666001557        2.6909906838
S             1.8427062617        0.8626223109        4.3338315936
S             1.8676980409        0.8496520503        1.1231853790
Mo            1.8819221209        4.5018214747        2.6858161721
S             0.2940772700        3.5964781181        4.2871763078
S             0.2894509625        3.5698117859        1.1017173190
Mo            0.2824670253        7.2133631797        2.7220648184
S             1.9185210771        6.2981317934        4.2934510162
S             1.8641049439        6.3346378808        1.0854692193
Mo            1.8428044241        9.9503320471        2.7443947140
S             0.2931300422        9.0099233353        4.3589931453
S             0.2537000082        9.0502621168        1.1654505246
H             7.1724172351        0.2538937920        5.5021723903
End final coordinates



     Writing all to output data dir ./MoS2-V-O.save/
 
     init_run     :      2.37s CPU      2.65s WALL (       1 calls)
     electrons    :   1950.90s CPU   2181.73s WALL (      22 calls)
     update_pot   :     29.99s CPU     31.76s WALL (      21 calls)
     forces       :     31.24s CPU     36.91s WALL (      22 calls)

     Called by init_run:
     wfcinit      :      0.38s CPU      0.43s WALL (       1 calls)
     potinit      :      1.31s CPU      1.44s WALL (       1 calls)
     hinit0       :      0.16s CPU      0.18s WALL (       1 calls)

     Called by electrons:
     c_bands      :    260.13s CPU    264.94s WALL (     183 calls)
     sum_band     :     55.36s CPU     75.26s WALL (     183 calls)
     v_of_rho     :     79.82s CPU     98.78s WALL (     191 calls)
     newd         :     28.12s CPU     46.83s WALL (     191 calls)
     mix_rho      :   1537.28s CPU   1706.52s WALL (     183 calls)

     Called by c_bands:
     init_us_2    :      3.90s CPU      4.18s WALL (     367 calls)
     init_us_2:cp :      3.90s CPU      4.18s WALL (     367 calls)
     regterg      :    246.30s CPU    250.80s WALL (     183 calls)

     Called by *egterg:
     rdiaghg      :     16.89s CPU     17.09s WALL (     963 calls)
     h_psi        :    129.67s CPU    130.89s WALL (     999 calls)
     s_psi        :     15.19s CPU     15.25s WALL (     999 calls)
     g_psi        :      1.88s CPU      1.90s WALL (     815 calls)

     Called by h_psi:
     h_psi:calbec :     17.39s CPU     17.49s WALL (     999 calls)
     vloc_psi     :     93.08s CPU     94.04s WALL (     999 calls)
     add_vuspsi   :     15.45s CPU     15.58s WALL (     999 calls)

     General routines
     calbec       :     24.82s CPU     24.97s WALL (    1270 calls)
     fft          :     52.93s CPU     61.72s WALL (   12940 calls)
     ffts         :    690.40s CPU    854.01s WALL (  376051 calls)
     fftw         :     79.26s CPU     79.98s WALL (  113007 calls)
     interpolate  :      1.40s CPU      1.64s WALL (     191 calls)
 
     Parallel routines
 
     PWSCF        :  33m38.75s CPU  37m40.60s WALL

 
   This run was terminated on:   9:14:29   4Nov2023            

=------------------------------------------------------------------------------=
   JOB DONE.
=------------------------------------------------------------------------------=
