
     Program PWSCF v.7.2 starts on  4Nov2023 at  7:42:12 

     This program is part of the open-source Quantum ESPRESSO suite
     for quantum simulation of materials; please cite
         "P. Giannozzi et al., J. Phys.:Condens. Matter 21 395502 (2009);
         "P. Giannozzi et al., J. Phys.:Condens. Matter 29 465901 (2017);
         "P. Giannozzi et al., J. Chem. Phys. 152 154105 (2020);
          URL http://www.quantum-espresso.org", 
     in publications or presentations arising from this work. More details at
     http://www.quantum-espresso.org/quote

     Parallel version (MPI & OpenMP), running on      48 processor cores
     Number of MPI processes:                48
     Threads/MPI process:                     1

     MPI processes distributed on     1 nodes
     20500 MiB available memory on the printing compute node when the environment starts
 
     Waiting for input...
     Reading input from standard input
Warning: card &CELL ignored
Warning: card CELL_DYNAMICS = 'BFGS', ignored
Warning: card CELL_DOFREE = '2DXY' ignored
Warning: card / ignored

     Current dimensions of program PWSCF are:
     Max number of different atomic species (ntypx) = 10
     Max number of k-points (npk) =  40000
     Max angular momentum in pseudopotentials (lmaxx) =  4

     IMPORTANT: XC functional enforced from input :
     Exchange-correlation= RVV10
                           (   1   4  13   4  26   0   0)
     Any further DFT definition will be discarded
     Please, verify this is what you really want


     gamma-point specific algorithms are used
     signal trapping enabled: kill the code with -SIGUSR1 to stop cleanly the simulation 
 
     R & G space division:  proc/nbgrp/npool/nimage =      48
     Subspace diagonalization in iterative solution of the eigenvalue problem:
     one sub-group per band group will be used
     scalapack distributed-memory algorithm (size of sub-group:  2*  2 procs)

 
     Parallelization info
     --------------------
     sticks:   dense  smooth     PW     G-vecs:    dense   smooth      PW
     Min         243     194     47                49060    35090    4376
     Max         246     196     50                49086    35128    4410
     Sum       11735    9389   2349              2355467  1685513  210763
 
     Using Slab Decomposition
 


     bravais-lattice index     =            0
     lattice parameter (alat)  =      17.8707  a.u.
     unit-cell volume          =   17436.2743 (a.u.)^3
     number of atoms/cell      =           36
     number of atomic types    =            3
     number of electrons       =       307.00
     number of Kohn-Sham states=          185
     kinetic-energy cutoff     =      80.0000  Ry
     charge density cutoff     =     400.0000  Ry
     scf convergence threshold =      1.0E-06
     mixing beta               =       0.7000
     number of iterations used =            8  local-TF  mixing
     energy convergence thresh.=      1.0E-04
     force convergence thresh. =      1.0E-02
     Exchange-correlation= RVV10
                           (   1   4  13   4  26   0   0)
     nstep                     =          200


     celldm(1)=  17.870686  celldm(2)=   0.000000  celldm(3)=   0.000000
     celldm(4)=   0.000000  celldm(5)=   0.000000  celldm(6)=   0.000000

     crystal axes: (cart. coord. in units of alat)
               a(1) = (   1.000000   0.000000   0.000000 )  
               a(2) = (   0.000000   1.155671   0.000000 )  
               a(3) = (   0.000000   0.000000   2.643601 )  

     reciprocal axes: (cart. coord. in units 2 pi/alat)
               b(1) = (  1.000000  0.000000  0.000000 )  
               b(2) = (  0.000000  0.865298  0.000000 )  
               b(3) = (  0.000000  0.000000  0.378272 )  


     PseudoPot. # 1 for Mo read from file:
     ../pseudo/Mo_ONCV_PBE-1.0.oncvpsp.upf
     MD5 check sum: 1b5d28e075c9ccadda658a603575cd1f
     Pseudo is Norm-conserving, Zval = 14.0
     Generated using ONCVPSP code by D. R. Hamann
     Using radial grid of 1526 points,  6 beta functions with: 
                l(1) =   0
                l(2) =   0
                l(3) =   1
                l(4) =   1
                l(5) =   2
                l(6) =   2

     PseudoPot. # 2 for S  read from file:
     ../pseudo/s_pbe_v1.4.uspp.F.UPF
     MD5 check sum: 88d86576ff6df21479756cfb9bdac1df
     Pseudo is Ultrasoft + core correction, Zval =  6.0
     Generated by new atomic code, or converted to UPF format
     Using radial grid of  907 points,  6 beta functions with: 
                l(1) =   0
                l(2) =   0
                l(3) =   1
                l(4) =   1
                l(5) =   2
                l(6) =   2
     Q(r) pseudized with  8 coefficients,  rinner =    1.300   1.300   1.300
                                                       1.300   1.300

     PseudoPot. # 3 for H  read from file:
     ../pseudo/H_ONCV_PBE-1.0.oncvpsp.upf
     MD5 check sum: 1790becc920ee074925cf490c71280fe
     Pseudo is Norm-conserving, Zval =  1.0
     Generated using ONCVPSP code by D. R. Hamann
     Using radial grid of 1166 points,  2 beta functions with: 
                l(1) =   0
                l(2) =   0

     atomic species   valence    mass     pseudopotential
        Mo            14.00    95.94000     Mo( 1.00)
        S              6.00    32.06500     S ( 1.00)
        H              1.00     1.00794     H ( 1.00)

     No symmetry found



   Cartesian axes

     site n.     atom                  positions (alat units)
         1           Mo  tau(   1) = (   0.6952221   0.1890506   0.2985846  )
         2           S   tau(   2) = (   0.8646417   0.0856217   0.4689279  )
         3           S   tau(   3) = (   0.8663890   0.0857843   0.1351291  )
         4           Mo  tau(   4) = (   0.8560186   0.4753274   0.2873942  )
         5           S   tau(   5) = (   0.6873294   0.3936244   0.4596353  )
         6           S   tau(   6) = (   0.6929804   0.3713468   0.1185692  )
         7           Mo  tau(   7) = (   0.6862796   0.7633098   0.2825370  )
         8           S   tau(   8) = (   0.8545980   0.6708292   0.4486168  )
         9           S   tau(   9) = (   0.8545123   0.6666874   0.1146125  )
        10           Mo  tau(  10) = (   0.8629403   1.0471007   0.3006803  )
        11           S   tau(  11) = (   0.6868280   0.9456650   0.4634891  )
        12           S   tau(  12) = (   0.6998113   0.9568511   0.1205389  )
        13           Mo  tau(  13) = (   0.3618216   0.1847309   0.2935964  )
        14           S   tau(  14) = (   0.5260962   0.0863870   0.4600448  )
        15           S   tau(  15) = (   0.5348379   0.0894875   0.1297123  )
        16           Mo  tau(  16) = (   0.5265817   0.4772436   0.2784130  )
        17           S   tau(  17) = (   0.3624753   0.3882513   0.4525556  )
        18           S   tau(  18) = (   0.3635411   0.3752055   0.1119148  )
        19           Mo  tau(  19) = (   0.3652268   0.7630864   0.2781795  )
        20           S   tau(  20) = (   0.5269494   0.6690381   0.1096838  )
        21           Mo  tau(  21) = (   0.5300192   1.0470394   0.2900995  )
        22           S   tau(  22) = (   0.3670346   0.9457522   0.4574073  )
        23           S   tau(  23) = (   0.3604225   0.9585725   0.1159032  )
        24           Mo  tau(  24) = (   0.0313099   0.1847895   0.3013130  )
        25           S   tau(  25) = (   0.1956761   0.0838230   0.4650863  )
        26           S   tau(  26) = (   0.1967693   0.0903508   0.1278874  )
        27           Mo  tau(  27) = (   0.1967578   0.4753919   0.2813011  )
        28           S   tau(  28) = (   0.0287851   0.3864324   0.4586755  )
        29           S   tau(  29) = (   0.0244514   0.3729871   0.1239344  )
        30           Mo  tau(  30) = (   0.0286728   0.7631204   0.2856894  )
        31           S   tau(  31) = (   0.2011512   0.6675435   0.4465001  )
        32           S   tau(  32) = (   0.1969214   0.6672839   0.1104564  )
        33           Mo  tau(  33) = (   0.1950294   1.0511147   0.2932237  )
        34           S   tau(  34) = (   0.0312912   0.9612169   0.4667423  )
        35           S   tau(  35) = (   0.0292670   0.9563028   0.1216485  )
        36           H   tau(  36) = (   0.2222222   0.8988550   0.5792558  )

     number of k points=     1  Gaussian smearing, width (Ry)=  0.0100
                       cart. coord. in units 2pi/alat
        k(    1) = (   0.0000000   0.0000000   0.0000000), wk =   2.0000000

     Dense  grid:  1177734 G-vectors     FFT dimensions: ( 120, 135, 320)

     Smooth grid:   842757 G-vectors     FFT dimensions: ( 108, 120, 270)

     Estimated max dynamical RAM per process >     146.59 MB

     Estimated total dynamical RAM >       6.87 GB

     Initial potential from superposition of free atoms

     starting charge     306.9873, renormalised to     307.0000

     negative rho (up, down):  1.403E-04 0.000E+00


---------------------------------------------------------------------------------
Carrying out rVV10 run using the following parameters:
Nqs =      20    Nr_points =    1024   r_max =   100.000
b_value =  6.30000    beta =  0.00901
     q_mesh =  0.00010000  0.00030000  0.00058939  0.00100810
               0.00161396  0.00249058  0.00375900  0.00559430
               0.00824984  0.01209221  0.01765183  0.02569619
               0.03733578  0.05417739  0.07854596  0.11380545
               0.16482331  0.23864234  0.34545298  0.50000000

Gradients computed in Reciprocal space

---------------------------------------------------------------------------------


     Starting wfcs are  213 randomized atomic wfcs

     total cpu time spent up to now is        2.8 secs

     Self-consistent Calculation

     iteration #  1     ecut=    80.00 Ry     beta= 0.70
     Davidson diagonalization with overlap
     ethr =  1.00E-02,  avg # of iterations =  2.0

     Threshold (ethr) on eigenvalues was too large:
     Diagonalizing with lowered threshold

     Davidson diagonalization with overlap
     ethr =  3.50E-04,  avg # of iterations =  4.0

     negative rho (up, down):  1.769E-08 0.000E+00

     total cpu time spent up to now is       25.6 secs

     total energy              =   -2205.58924387 Ry
     estimated scf accuracy    <       1.36889625 Ry

     iteration #  2     ecut=    80.00 Ry     beta= 0.70
     Davidson diagonalization with overlap
     ethr =  4.46E-04,  avg # of iterations =  2.0

     total cpu time spent up to now is       28.0 secs

     total energy              =   -2205.42618636 Ry
     estimated scf accuracy    <       0.55637538 Ry

     iteration #  3     ecut=    80.00 Ry     beta= 0.70
     Davidson diagonalization with overlap
     ethr =  1.81E-04,  avg # of iterations =  5.0

     total cpu time spent up to now is       30.6 secs

     total energy              =   -2205.52005628 Ry
     estimated scf accuracy    <       0.05561452 Ry

     iteration #  4     ecut=    80.00 Ry     beta= 0.70
     Davidson diagonalization with overlap
     c_bands:  2 eigenvalues not converged
     ethr =  1.81E-05,  avg # of iterations = 20.0

     total cpu time spent up to now is       34.0 secs

     total energy              =   -2205.52193341 Ry
     estimated scf accuracy    <       0.02535924 Ry

     iteration #  5     ecut=    80.00 Ry     beta= 0.70
     Davidson diagonalization with overlap
     ethr =  8.26E-06,  avg # of iterations =  9.0

     total cpu time spent up to now is       36.5 secs

     total energy              =   -2205.52176894 Ry
     estimated scf accuracy    <       0.01690251 Ry

     iteration #  6     ecut=    80.00 Ry     beta= 0.70
     Davidson diagonalization with overlap
     ethr =  5.51E-06,  avg # of iterations =  2.0

     total cpu time spent up to now is       38.8 secs

     total energy              =   -2205.52068681 Ry
     estimated scf accuracy    <       0.01147616 Ry

     iteration #  7     ecut=    80.00 Ry     beta= 0.70
     Davidson diagonalization with overlap
     ethr =  3.74E-06,  avg # of iterations =  1.0

     negative rho (up, down):  6.018E-05 0.000E+00

     total cpu time spent up to now is       44.8 secs

     total energy              =   -2205.51899591 Ry
     estimated scf accuracy    <       0.00675085 Ry

     iteration #  8     ecut=    80.00 Ry     beta= 0.70
     Davidson diagonalization with overlap
     ethr =  2.20E-06,  avg # of iterations =  2.0

     negative rho (up, down):  8.638E-03 0.000E+00

     total cpu time spent up to now is       48.9 secs

     total energy              =   -2205.51878455 Ry
     estimated scf accuracy    <       0.00329986 Ry

     iteration #  9     ecut=    80.00 Ry     beta= 0.70
     Davidson diagonalization with overlap
     ethr =  1.07E-06,  avg # of iterations =  2.0

     negative rho (up, down):  2.998E-02 0.000E+00

     total cpu time spent up to now is       53.1 secs

     total energy              =   -2205.51873275 Ry
     estimated scf accuracy    <       0.00196410 Ry

     iteration # 10     ecut=    80.00 Ry     beta= 0.70
     Davidson diagonalization with overlap
     ethr =  6.40E-07,  avg # of iterations =  2.0

     negative rho (up, down):  2.887E-02 0.000E+00

     total cpu time spent up to now is       58.5 secs

     total energy              =   -2205.51887563 Ry
     estimated scf accuracy    <       0.00061552 Ry

     iteration # 11     ecut=    80.00 Ry     beta= 0.70
     Davidson diagonalization with overlap
     ethr =  2.00E-07,  avg # of iterations =  2.0

     negative rho (up, down):  8.101E-03 0.000E+00

     total cpu time spent up to now is       64.6 secs

     total energy              =   -2205.51888650 Ry
     estimated scf accuracy    <       0.00014242 Ry

     iteration # 12     ecut=    80.00 Ry     beta= 0.70
     Davidson diagonalization with overlap
     ethr =  4.64E-08,  avg # of iterations =  7.0

     negative rho (up, down):  3.259E-03 0.000E+00

     total cpu time spent up to now is       71.8 secs

     total energy              =   -2205.51894489 Ry
     estimated scf accuracy    <       0.00001413 Ry

     iteration # 13     ecut=    80.00 Ry     beta= 0.70
     Davidson diagonalization with overlap
     ethr =  4.60E-09,  avg # of iterations =  5.0

     negative rho (up, down):  4.827E-04 0.000E+00

     total cpu time spent up to now is       84.7 secs

     total energy              =   -2205.51895174 Ry
     estimated scf accuracy    <       0.00000202 Ry

     iteration # 14     ecut=    80.00 Ry     beta= 0.70
     Davidson diagonalization with overlap
     ethr =  6.58E-10,  avg # of iterations =  4.0

     negative rho (up, down):  1.374E-04 0.000E+00

     total cpu time spent up to now is       87.2 secs

     End of self-consistent calculation

          k = 0.0000 0.0000 0.0000 (105382 PWs)   bands (ev):

   -62.8887 -62.8825 -62.8757 -62.8655 -62.8562 -62.8389 -62.8246 -62.8048
   -62.7998 -62.7931 -62.7807 -62.7256 -37.2360 -37.1734 -37.1544 -37.1514
   -37.1411 -37.1168 -37.0988 -37.0883 -37.0807 -37.0749 -37.0680 -37.0549
   -37.0481 -37.0450 -37.0307 -37.0203 -37.0189 -37.0129 -37.0007 -36.9861
   -36.9789 -36.9618 -36.9556 -36.9440 -36.9336 -36.9286 -36.9153 -36.9046
   -36.8944 -36.8900 -36.8739 -36.8585 -36.8552 -36.8154 -36.7625 -36.7084
   -16.0165 -15.2854 -15.1355 -15.0280 -14.9376 -14.8456 -14.6017 -14.5114
   -14.4843 -14.4336 -14.3998 -14.3564 -14.3309 -14.3068 -14.1767 -14.1507
   -14.1258 -14.1034 -14.0371 -13.9222 -13.8543 -13.8402 -13.8067  -7.9501
    -7.5937  -7.4417  -7.3045  -7.2857  -7.2234  -7.2067  -7.1265  -6.9740
    -6.8499  -6.7935  -6.7732  -6.6958  -6.5594  -6.5340  -6.4903  -6.4282
    -6.2724  -6.2566  -6.0522  -5.9957  -5.9201  -5.9076  -5.8369  -5.8069
    -5.7649  -5.7233  -5.7064  -5.6651  -5.6236  -5.5410  -5.5327  -5.4823
    -5.4352  -5.3967  -5.1784  -5.1513  -5.0778  -5.0031  -4.9979  -4.9521
    -4.9119  -4.8433  -4.6672  -4.5476  -4.4339  -4.3388  -4.3134  -4.2693
    -4.2275  -4.1194  -4.0350  -3.8410  -3.8132  -3.8025  -3.7389  -3.7187
    -3.6819  -3.5915  -3.5583  -3.5122  -3.5031  -3.4673  -3.4515  -3.3849
    -3.3673  -3.2153  -3.1332  -2.9342  -2.8933  -2.8365  -2.7717  -2.7431
    -2.7171  -2.6627  -2.6510  -2.6389  -2.5777  -2.2991  -2.0609  -1.9964
    -1.9394  -1.2609  -0.8250  -0.5787  -0.1905  -0.1336  -0.0817  -0.0346
     0.0179   0.1299   0.1865   0.2116   0.2491   0.2770   0.3071   0.4110
     0.4679   0.5144   0.5370   0.5556   0.6088   0.6563   0.7040   0.7359
     0.7691   0.7887   0.8235   0.8920   0.9345   0.9818   1.0455   1.2783
     1.3466

     the Fermi energy is    -1.2609 ev

!    total energy              =   -2205.51895361 Ry
     estimated scf accuracy    <       0.00000024 Ry
     smearing contrib. (-TS)   =      -0.00564209 Ry
     internal energy E=F+TS    =   -2205.51331151 Ry

     The total energy is F=E-TS. E is the sum of the following terms:
     one-electron contribution =  -18042.99798974 Ry
     hartree contribution      =    9008.16311254 Ry
     xc contribution           =    -385.19777068 Ry
     ewald contribution        =    7214.51933636 Ry

     convergence has been achieved in  14 iterations

     negative rho (up, down):  1.374E-04 0.000E+00

     Forces acting on atoms (cartesian axes, Ry/au):

     atom    1 type  1   force =     0.01365411   -0.02063494    0.00543569
     atom    2 type  2   force =    -0.01536856    0.01743226    0.00053344
     atom    3 type  2   force =    -0.01225132    0.00817536   -0.00338925
     atom    4 type  1   force =     0.00492227    0.00434844   -0.00072405
     atom    5 type  2   force =    -0.00119246   -0.00567337   -0.00649411
     atom    6 type  2   force =     0.00082128    0.01033959   -0.00073295
     atom    7 type  1   force =     0.00977038   -0.01562164   -0.01033172
     atom    8 type  2   force =     0.00044712   -0.00429782    0.01718593
     atom    9 type  2   force =     0.01111468    0.00550019    0.01114076
     atom   10 type  1   force =    -0.02022540    0.01392821   -0.02911397
     atom   11 type  2   force =     0.00541414   -0.00199135   -0.00696573
     atom   12 type  2   force =    -0.00138542    0.00091380    0.00727976
     atom   13 type  1   force =     0.00355905    0.00388245   -0.00655208
     atom   14 type  2   force =     0.00866452    0.00135256    0.01190421
     atom   15 type  2   force =    -0.01132542    0.00193461   -0.00864909
     atom   16 type  1   force =     0.00171980    0.01134781    0.00707551
     atom   17 type  2   force =     0.00572751   -0.00077161    0.00157843
     atom   18 type  2   force =    -0.00475570   -0.00616048    0.01306733
     atom   19 type  1   force =    -0.00312874   -0.00973684   -0.00001842
     atom   20 type  2   force =     0.00361885   -0.00458869   -0.00023463
     atom   21 type  1   force =     0.01678368    0.01392051   -0.01978639
     atom   22 type  2   force =    -0.06011031   -0.03224492    0.03822830
     atom   23 type  2   force =    -0.00015581    0.00382138    0.00982180
     atom   24 type  1   force =    -0.01010683   -0.00424882   -0.02190101
     atom   25 type  2   force =     0.01668696    0.01846923    0.00865675
     atom   26 type  2   force =    -0.01054113    0.00019832   -0.00252773
     atom   27 type  1   force =     0.00056222   -0.00059925    0.00189622
     atom   28 type  2   force =     0.00046249   -0.00154960   -0.00474762
     atom   29 type  2   force =     0.00344684   -0.00057532   -0.00159550
     atom   30 type  1   force =    -0.00341928    0.01368095   -0.00368100
     atom   31 type  2   force =     0.00389814    0.00998010    0.02085290
     atom   32 type  2   force =    -0.00839712    0.00627733    0.00661872
     atom   33 type  1   force =     0.01097268   -0.00216071   -0.02044420
     atom   34 type  2   force =     0.02053487   -0.04980732   -0.00622649
     atom   35 type  2   force =    -0.00709506    0.00668128    0.01457069
     atom   36 type  3   force =     0.02667697    0.00847827   -0.02173050
     The non-local contrib.  to forces
     atom    1 type  1   force =    -0.00114212    0.02938793   -0.01059281
     atom    2 type  2   force =    -0.01102758    0.00525033   -0.26828962
     atom    3 type  2   force =    -0.01473626   -0.00292646    0.27125798
     atom    4 type  1   force =     0.00092341    0.00327864    0.00543829
     atom    5 type  2   force =     0.00651474   -0.03034531   -0.25180563
     atom    6 type  2   force =    -0.00203207    0.01099268    0.26116639
     atom    7 type  1   force =    -0.02287567    0.00357448   -0.01911736
     atom    8 type  2   force =     0.00443964   -0.00237112   -0.25377155
     atom    9 type  2   force =     0.00471577   -0.00700735    0.27757712
     atom   10 type  1   force =     0.00739629   -0.00128436   -0.00446734
     atom   11 type  2   force =     0.02074978    0.00025845   -0.24804438
     atom   12 type  2   force =    -0.01387020   -0.01316634    0.26581144
     atom   13 type  1   force =    -0.00142463    0.02016611   -0.00780465
     atom   14 type  2   force =     0.01347072   -0.00651010   -0.25854881
     atom   15 type  2   force =    -0.01391785   -0.00780234    0.26149431
     atom   16 type  1   force =    -0.00092969    0.03206634   -0.03151107
     atom   17 type  2   force =     0.00519329   -0.03076182   -0.24996095
     atom   18 type  2   force =    -0.00552241   -0.00269186    0.27295143
     atom   19 type  1   force =     0.01762467    0.00527060   -0.01189199
     atom   20 type  2   force =     0.00116787   -0.02280461    0.26568922
     atom   21 type  1   force =    -0.00814538    0.01998508    0.00160245
     atom   22 type  2   force =    -0.16668773   -0.04417227   -0.07510839
     atom   23 type  2   force =     0.00309931   -0.01651011    0.27095338
     atom   24 type  1   force =     0.00572745    0.01628190   -0.01003665
     atom   25 type  2   force =     0.00985393    0.00191471   -0.25694095
     atom   26 type  2   force =    -0.00320792   -0.01235711    0.26392906
     atom   27 type  1   force =    -0.00403306    0.00791887    0.00730811
     atom   28 type  2   force =    -0.00410419   -0.02427673   -0.27554989
     atom   29 type  2   force =     0.00731148    0.00231509    0.26324379
     atom   30 type  1   force =     0.00122038    0.01800879    0.01088305
     atom   31 type  2   force =    -0.01048387    0.01544748   -0.23242471
     atom   32 type  2   force =    -0.00156464   -0.00527855    0.27379536
     atom   33 type  1   force =    -0.00390267    0.00989497    0.01226711
     atom   34 type  2   force =     0.03583679   -0.05659018   -0.20853179
     atom   35 type  2   force =    -0.00168148   -0.01073285    0.27176674
     atom   36 type  3   force =     0.00753340    0.00337797   -0.01079538
     The ionic contribution  to forces
     atom    1 type  1   force =     0.39758323    0.28606322    5.70006494
     atom    2 type  2   force =    -0.71593200    0.48099802   39.26937720
     atom    3 type  2   force =    -0.17825248    0.04125528  -36.09003901
     atom    4 type  1   force =     0.04517948    0.50328829    0.65623178
     atom    5 type  2   force =    -0.96030612    1.47554038   38.75043845
     atom    6 type  2   force =     0.34739075   -0.50635893  -38.01380345
     atom    7 type  1   force =    -2.57785082   -2.84529038    2.48419223
     atom    8 type  2   force =    -1.06966203   -0.05481957   37.35696985
     atom    9 type  2   force =     0.32462229   -0.05933008  -38.01876069
     atom   10 type  1   force =    -1.25308414   -0.20589137    5.53533465
     atom   11 type  2   force =    -0.52473025   -1.58514214   39.10974172
     atom   12 type  2   force =     0.44700909    0.70115281  -37.87411275
     atom   13 type  1   force =     0.53279854    1.10932236    2.79592765
     atom   14 type  2   force =     0.12680140    0.08599197   38.49847683
     atom   15 type  2   force =     0.17442819   -0.03690142  -36.81222823
     atom   16 type  1   force =     0.03721764    3.85929819    0.45680687
     atom   17 type  2   force =     0.83806229    1.45655843   37.92240072
     atom   18 type  2   force =    -0.15266146   -0.65546933  -38.56563989
     atom   19 type  1   force =     2.94227637   -2.66974506    0.21164528
     atom   20 type  2   force =     0.25128434   -0.22327773  -38.50068971
     atom   21 type  1   force =     0.23242045    0.18066802    0.98887303
     atom   22 type  2   force =     1.16664787   -1.48076063   37.84172388
     atom   23 type  2   force =    -0.05644759    0.68215651  -38.37321406
     atom   24 type  1   force =    -0.61427139    1.25279642    5.79342222
     atom   25 type  2   force =     0.63860807    0.51285772   39.20229569
     atom   26 type  2   force =    -0.29197589    0.10616698  -37.36291398
     atom   27 type  1   force =     0.01271573    0.25202775   -2.33662952
     atom   28 type  2   force =     0.01972276    0.96883564   38.19975073
     atom   29 type  2   force =    -0.27615741   -0.43682942  -37.26396955
     atom   30 type  1   force =    -0.59480569   -1.09549268   -0.39503707
     atom   31 type  2   force =     1.18781730   -0.48214443   37.09633244
     atom   32 type  2   force =    -0.48514518   -0.04825515  -38.69201275
     atom   33 type  1   force =     0.73199025   -0.49670690    1.46594990
     atom   34 type  2   force =    -0.31503528   -1.25293160   39.03378475
     atom   35 type  2   force =    -0.33740346    0.49258844  -37.88713218
     atom   36 type  3   force =    -0.05085485   -0.31221962    7.81644205
     The local contribution  to forces
     atom    1 type  1   force =    -0.38288859   -0.33599791   -5.68379925
     atom    2 type  2   force =     0.71136962   -0.46858797  -39.02122493
     atom    3 type  2   force =     0.18009335   -0.03018817   35.83657667
     atom    4 type  1   force =    -0.04112087   -0.50216422   -0.66222207
     atom    5 type  2   force =     0.95320425   -1.45254610  -38.52554336
     atom    6 type  2   force =    -0.34491505    0.50690974   37.77293337
     atom    7 type  1   force =     2.61052319    2.82620108   -2.47526279
     atom    8 type  2   force =     1.06591547    0.05247265  -37.10643940
     atom    9 type  2   force =    -0.31819036    0.07135675   37.77356608
     atom   10 type  1   force =     1.22550940    0.22096750   -5.55957604
     atom   11 type  2   force =     0.51032868    1.58321096  -38.88884990
     atom   12 type  2   force =    -0.43578515   -0.68834152   37.63681260
     atom   13 type  1   force =    -0.52779413   -1.12550244   -2.79443693
     atom   14 type  2   force =    -0.13099256   -0.07808229  -38.24851924
     atom   15 type  2   force =    -0.17263923    0.04618403   36.56293357
     atom   16 type  1   force =    -0.03472646   -3.88014861   -0.41811003
     atom   17 type  2   force =    -0.83738320   -1.42811754  -37.69125227
     atom   18 type  2   force =     0.15333066    0.65261747   38.32701951
     atom   19 type  1   force =    -2.96321369    2.65478986   -0.19956467
     atom   20 type  2   force =    -0.24895445    0.24057688   38.25614550
     atom   21 type  1   force =    -0.20755985   -0.18684544   -1.01002492
     atom   22 type  2   force =    -1.06903578    1.49052049  -37.73917558
     atom   23 type  2   force =     0.05357889   -0.66318913   38.13339618
     atom   24 type  1   force =     0.59849395   -1.27326326   -5.80491953
     atom   25 type  2   force =    -0.63165521   -0.49614906  -38.95722504
     atom   26 type  2   force =     0.28480199   -0.09425166   37.11761659
     atom   27 type  1   force =    -0.00803664   -0.26040491    2.33140836
     atom   28 type  2   force =    -0.01539457   -0.94784724  -37.95000116
     atom   29 type  2   force =     0.27292197    0.43462976   37.01995961
     atom   30 type  1   force =     0.59032811    1.09109756    0.38077640
     atom   31 type  2   force =    -1.17402827    0.47741283  -36.86264202
     atom   32 type  2   force =     0.47850636    0.05938737   38.44607922
     atom   33 type  1   force =    -0.71703132    0.48444719   -1.49826473
     atom   34 type  2   force =     0.30133473    1.25761392  -38.84946222
     atom   35 type  2   force =     0.33212704   -0.47623916   37.65132937
     atom   36 type  3   force =     0.06999090    0.31731530   -7.82738051
     The core correction contribution to forces
     atom    1 type  1   force =     0.00000000    0.00000000    0.00000000
     atom    2 type  2   force =     0.00028003   -0.00024805    0.02064460
     atom    3 type  2   force =     0.00066387    0.00005071   -0.02092939
     atom    4 type  1   force =     0.00000000    0.00000000    0.00000000
     atom    5 type  2   force =    -0.00062519    0.00169880    0.02030985
     atom    6 type  2   force =     0.00030017   -0.00110353   -0.02079278
     atom    7 type  1   force =     0.00000000    0.00000000    0.00000000
     atom    8 type  2   force =    -0.00014830    0.00042237    0.02036829
     atom    9 type  2   force =    -0.00000516    0.00044491   -0.02103464
     atom   10 type  1   force =     0.00000000    0.00000000    0.00000000
     atom   11 type  2   force =    -0.00093685   -0.00029258    0.02007311
     atom   12 type  2   force =     0.00120315    0.00121732   -0.02095440
     atom   13 type  1   force =     0.00000000    0.00000000    0.00000000
     atom   14 type  2   force =    -0.00065519   -0.00008212    0.02043515
     atom   15 type  2   force =     0.00076008    0.00044916   -0.02057450
     atom   16 type  1   force =     0.00000000    0.00000000    0.00000000
     atom   17 type  2   force =    -0.00015103    0.00160113    0.02025485
     atom   18 type  2   force =     0.00013863   -0.00050118   -0.02099700
     atom   19 type  1   force =     0.00000000    0.00000000    0.00000000
     atom   20 type  2   force =     0.00005935    0.00085447   -0.02120234
     atom   21 type  1   force =     0.00000000    0.00000000    0.00000000
     atom   22 type  2   force =     0.00893844    0.00217347    0.01070554
     atom   23 type  2   force =    -0.00038167    0.00129039   -0.02103113
     atom   24 type  1   force =     0.00000000    0.00000000    0.00000000
     atom   25 type  2   force =    -0.00014145   -0.00019107    0.02047997
     atom   26 type  2   force =    -0.00012690    0.00065569   -0.02089124
     atom   27 type  1   force =     0.00000000    0.00000000    0.00000000
     atom   28 type  2   force =     0.00027032    0.00176237    0.02099533
     atom   29 type  2   force =    -0.00059026   -0.00059378   -0.02058117
     atom   30 type  1   force =     0.00000000    0.00000000    0.00000000
     atom   31 type  2   force =     0.00055430   -0.00072824    0.01949946
     atom   32 type  2   force =    -0.00017138    0.00038646   -0.02101034
     atom   33 type  1   force =     0.00000000    0.00000000    0.00000000
     atom   34 type  2   force =    -0.00157689    0.00209727    0.01793342
     atom   35 type  2   force =    -0.00009096    0.00097463   -0.02112659
     atom   36 type  3   force =     0.00000000    0.00000000    0.00000000
     The Hubbard contrib.    to forces
     atom    1 type  1   force =     0.00000000    0.00000000    0.00000000
     atom    2 type  2   force =     0.00000000    0.00000000    0.00000000
     atom    3 type  2   force =     0.00000000    0.00000000    0.00000000
     atom    4 type  1   force =     0.00000000    0.00000000    0.00000000
     atom    5 type  2   force =     0.00000000    0.00000000    0.00000000
     atom    6 type  2   force =     0.00000000    0.00000000    0.00000000
     atom    7 type  1   force =     0.00000000    0.00000000    0.00000000
     atom    8 type  2   force =     0.00000000    0.00000000    0.00000000
     atom    9 type  2   force =     0.00000000    0.00000000    0.00000000
     atom   10 type  1   force =     0.00000000    0.00000000    0.00000000
     atom   11 type  2   force =     0.00000000    0.00000000    0.00000000
     atom   12 type  2   force =     0.00000000    0.00000000    0.00000000
     atom   13 type  1   force =     0.00000000    0.00000000    0.00000000
     atom   14 type  2   force =     0.00000000    0.00000000    0.00000000
     atom   15 type  2   force =     0.00000000    0.00000000    0.00000000
     atom   16 type  1   force =     0.00000000    0.00000000    0.00000000
     atom   17 type  2   force =     0.00000000    0.00000000    0.00000000
     atom   18 type  2   force =     0.00000000    0.00000000    0.00000000
     atom   19 type  1   force =     0.00000000    0.00000000    0.00000000
     atom   20 type  2   force =     0.00000000    0.00000000    0.00000000
     atom   21 type  1   force =     0.00000000    0.00000000    0.00000000
     atom   22 type  2   force =     0.00000000    0.00000000    0.00000000
     atom   23 type  2   force =     0.00000000    0.00000000    0.00000000
     atom   24 type  1   force =     0.00000000    0.00000000    0.00000000
     atom   25 type  2   force =     0.00000000    0.00000000    0.00000000
     atom   26 type  2   force =     0.00000000    0.00000000    0.00000000
     atom   27 type  1   force =     0.00000000    0.00000000    0.00000000
     atom   28 type  2   force =     0.00000000    0.00000000    0.00000000
     atom   29 type  2   force =     0.00000000    0.00000000    0.00000000
     atom   30 type  1   force =     0.00000000    0.00000000    0.00000000
     atom   31 type  2   force =     0.00000000    0.00000000    0.00000000
     atom   32 type  2   force =     0.00000000    0.00000000    0.00000000
     atom   33 type  1   force =     0.00000000    0.00000000    0.00000000
     atom   34 type  2   force =     0.00000000    0.00000000    0.00000000
     atom   35 type  2   force =     0.00000000    0.00000000    0.00000000
     atom   36 type  3   force =     0.00000000    0.00000000    0.00000000
     The SCF correction term to forces
     atom    1 type  1   force =     0.00010126   -0.00009142   -0.00022988
     atom    2 type  2   force =    -0.00005897    0.00001669    0.00003351
     atom    3 type  2   force =    -0.00002014   -0.00001923   -0.00024817
     atom    4 type  1   force =    -0.00006009   -0.00005750   -0.00016472
     atom    5 type  2   force =     0.00001951   -0.00002438    0.00011389
     atom    6 type  2   force =     0.00007713   -0.00010362   -0.00022915
     atom    7 type  1   force =    -0.00002666   -0.00011007   -0.00013648
     atom    8 type  2   force =    -0.00009801   -0.00000538    0.00006606
     atom    9 type  2   force =    -0.00002819    0.00003271   -0.00019979
     atom   10 type  1   force =    -0.00004728    0.00013320   -0.00039793
     atom   11 type  2   force =     0.00000243   -0.00002928    0.00012102
     atom   12 type  2   force =     0.00005736    0.00004829   -0.00026981
     atom   13 type  1   force =    -0.00002107   -0.00010683   -0.00023082
     atom   14 type  2   force =     0.00003981    0.00003186    0.00006761
     atom   15 type  2   force =     0.00004304    0.00000193   -0.00026692
     atom   16 type  1   force =     0.00015797    0.00012864   -0.00010295
     atom   17 type  2   force =     0.00000580   -0.00005505    0.00014340
     atom   18 type  2   force =    -0.00004147   -0.00011883   -0.00025941
     atom   19 type  1   force =     0.00018358   -0.00005548   -0.00019973
     atom   20 type  2   force =     0.00006140    0.00005906   -0.00017000
     atom   21 type  1   force =     0.00006811    0.00010961   -0.00022964
     atom   22 type  2   force =     0.00002656   -0.00000922    0.00009017
     atom   23 type  2   force =    -0.00000510    0.00007047   -0.00027525
     atom   24 type  1   force =    -0.00005718   -0.00006712   -0.00035973
     atom   25 type  2   force =     0.00002128    0.00003368    0.00005441
     atom   26 type  2   force =    -0.00003275   -0.00001882   -0.00026084
     atom   27 type  1   force =    -0.00008414   -0.00014420   -0.00018341
     atom   28 type  2   force =    -0.00003217   -0.00002688    0.00006469
     atom   29 type  2   force =    -0.00003929   -0.00010022   -0.00024087
     atom   30 type  1   force =    -0.00016242    0.00006404   -0.00029606
     atom   31 type  2   force =     0.00003834   -0.00001077    0.00009504
     atom   32 type  2   force =    -0.00002263    0.00003396   -0.00022545
     atom   33 type  1   force =    -0.00008392    0.00020080   -0.00038917
     atom   34 type  2   force =    -0.00002482    0.00000004    0.00005666
     atom   35 type  2   force =    -0.00004654    0.00008699   -0.00025933
     atom   36 type  3   force =     0.00000718    0.00000138    0.00001067

     Total force =     0.140926     Total SCF correction =     0.001415

     BFGS Geometry Optimization
     Energy error            =      0.0E+00 Ry
     Gradient error          =      6.0E-02 Ry/Bohr

     number of scf cycles    =   1
     number of bfgs steps    =   0

     energy             new  =   -2205.5189536072 Ry

     new trust radius        =       0.0781945485 bohr
     new conv_thr            =       0.0000010000 Ry


ATOMIC_POSITIONS (angstrom)
Mo            6.5817738537        1.7768866921        2.8265194730
S             8.1685766470        0.8189287805        4.4348206360
S             8.1867499687        0.8155679576        1.2760899131
Mo            8.0977673185        4.4973580397        2.7174352449
S             6.4992782323        3.7194092692        4.3432241156
S             6.5537844007        3.5172090311        1.1208923687
Mo            6.4951519613        7.2101706690        2.6664171726
S             8.0819643336        6.3415966831        4.2515559680
S             8.0867992840        6.3076128921        1.0897584352
Mo            8.1499162293        9.9095509035        2.8280553094
S             6.4980326336        8.9418730380        4.3794194255
S             6.6172140693        9.0491947776        1.1437595854
Mo            3.4235430306        1.7490103542        2.7730039526
S             4.9797505577        0.8176569536        4.3568325308
S             5.0518405980        0.8472858596        1.2220815576
Mo            4.9806667584        4.5191830064        2.6366287464
S             3.4308725271        3.6711913682        4.2805448493
S             3.4354039702        3.5449687110        1.0652666140
Mo            3.4522060839        7.2111720269        2.6306671163
S             4.9851492057        6.3245040535        1.0371295692
Mo            5.0211454629        9.9089664698        2.7329304561
S             3.4391491112        8.9266879918        4.3458208593
S             3.4083467129        9.0670121708        1.1012657720
Mo            0.2907421831        1.7452611540        2.8378551947
S             1.8592925729        0.8024675028        4.4027903945
S             1.8552219085        0.8545308649        1.2080632375
Mo            1.8609888246        4.4953496521        2.6612008147
S             0.2724585899        3.6535788154        4.3350717689
S             0.2330551970        3.5269447793        1.1711735813
Mo            0.2693427464        7.2238857392        2.6997485272
S             1.9043010550        6.3180800769        4.2334789987
S             1.8577946487        6.3136656342        1.0480617595
Mo            1.8501531536        9.9389957570        2.7621276446
S             0.3067794839        9.0636409295        4.4105745469
S             0.2730168541        9.0470612975        1.1581112551
H             2.1156190661        8.5047420638        5.4663841424



     Writing config-only to output data dir ./MoS2-V-O.save/
     NEW-OLD atomic charge density approx. for the potential

     negative rho (up, down):  1.459E-04 0.000E+00

     total cpu time spent up to now is       90.7 secs

     Self-consistent Calculation

     iteration #  1     ecut=    80.00 Ry     beta= 0.70
     Davidson diagonalization with overlap
     ethr =  1.00E-06,  avg # of iterations = 15.0

     negative rho (up, down):  9.041E-05 0.000E+00

     total cpu time spent up to now is      105.6 secs

     total energy              =   -2205.53537734 Ry
     estimated scf accuracy    <       0.00184785 Ry

     iteration #  2     ecut=    80.00 Ry     beta= 0.70
     Davidson diagonalization with overlap
     ethr =  6.02E-07,  avg # of iterations =  2.0

     negative rho (up, down):  7.728E-05 0.000E+00

     total cpu time spent up to now is      126.4 secs

     total energy              =   -2205.53539010 Ry
     estimated scf accuracy    <       0.00042414 Ry

     iteration #  3     ecut=    80.00 Ry     beta= 0.70
     Davidson diagonalization with overlap
     ethr =  1.38E-07,  avg # of iterations =  5.0

     negative rho (up, down):  7.481E-05 0.000E+00

     total cpu time spent up to now is      141.2 secs

     total energy              =   -2205.53542774 Ry
     estimated scf accuracy    <       0.00006629 Ry

     iteration #  4     ecut=    80.00 Ry     beta= 0.70
     Davidson diagonalization with overlap
     ethr =  2.16E-08,  avg # of iterations = 10.0

     negative rho (up, down):  7.114E-05 0.000E+00

     total cpu time spent up to now is      155.5 secs

     total energy              =   -2205.53544227 Ry
     estimated scf accuracy    <       0.00000883 Ry

     iteration #  5     ecut=    80.00 Ry     beta= 0.70
     Davidson diagonalization with overlap
     ethr =  2.88E-09,  avg # of iterations =  4.0

     negative rho (up, down):  6.552E-05 0.000E+00

     total cpu time spent up to now is      167.7 secs

     total energy              =   -2205.53544350 Ry
     estimated scf accuracy    <       0.00000303 Ry

     iteration #  6     ecut=    80.00 Ry     beta= 0.70
     Davidson diagonalization with overlap
     ethr =  9.86E-10,  avg # of iterations =  2.0

     negative rho (up, down):  6.478E-05 0.000E+00

     total cpu time spent up to now is      181.2 secs

     total energy              =   -2205.53544412 Ry
     estimated scf accuracy    <       0.00000155 Ry

     iteration #  7     ecut=    80.00 Ry     beta= 0.70
     Davidson diagonalization with overlap
     ethr =  5.05E-10,  avg # of iterations =  5.0

     negative rho (up, down):  1.377E-04 0.000E+00

     total cpu time spent up to now is      183.4 secs

     End of self-consistent calculation

          k = 0.0000 0.0000 0.0000 (105382 PWs)   bands (ev):

   -62.8830 -62.8720 -62.8710 -62.8572 -62.8458 -62.8347 -62.8159 -62.7994
   -62.7903 -62.7852 -62.7713 -62.7192 -37.2270 -37.1622 -37.1474 -37.1432
   -37.1312 -37.1055 -37.0871 -37.0817 -37.0691 -37.0635 -37.0587 -37.0438
   -37.0415 -37.0368 -37.0222 -37.0141 -37.0116 -37.0057 -36.9945 -36.9828
   -36.9716 -36.9537 -36.9500 -36.9329 -36.9253 -36.9206 -36.9092 -36.8961
   -36.8890 -36.8826 -36.8656 -36.8527 -36.8483 -36.8092 -36.7532 -36.7018
   -16.0114 -15.2920 -15.1304 -15.0383 -14.9126 -14.8393 -14.6047 -14.4983
   -14.4624 -14.4253 -14.3963 -14.3536 -14.3269 -14.3025 -14.1659 -14.1434
   -14.1179 -14.1036 -14.0338 -13.9037 -13.8527 -13.8315 -13.8112  -8.0114
    -7.5903  -7.4376  -7.2898  -7.2549  -7.2222  -7.1974  -7.1362  -6.9767
    -6.8273  -6.7889  -6.7631  -6.6781  -6.5669  -6.5301  -6.4871  -6.4009
    -6.2653  -6.2498  -6.0610  -5.9858  -5.9133  -5.8935  -5.8307  -5.7926
    -5.7651  -5.7186  -5.7022  -5.6642  -5.6223  -5.5427  -5.5210  -5.4766
    -5.4149  -5.3691  -5.1544  -5.1487  -5.0697  -4.9978  -4.9867  -4.9474
    -4.9149  -4.8426  -4.6646  -4.5382  -4.4497  -4.3195  -4.3064  -4.2537
    -4.2301  -4.1277  -4.0444  -3.8381  -3.8112  -3.7893  -3.7278  -3.7107
    -3.6835  -3.5825  -3.5558  -3.5125  -3.5025  -3.4579  -3.4409  -3.3775
    -3.3573  -3.2146  -3.1313  -2.9039  -2.8888  -2.8232  -2.7696  -2.7425
    -2.7091  -2.6631  -2.6528  -2.6298  -2.5676  -2.2836  -2.0596  -1.9947
    -1.9522  -1.2531  -0.7998  -0.5726  -0.1760  -0.1342  -0.0713  -0.0095
     0.0332   0.1362   0.1972   0.2328   0.2515   0.2961   0.3232   0.4177
     0.4796   0.5300   0.5507   0.5659   0.6160   0.6582   0.7227   0.7419
     0.7695   0.7992   0.8347   0.8935   0.9605   0.9941   1.0434   1.2911
     1.3381

     the Fermi energy is    -1.2531 ev

!    total energy              =   -2205.53544375 Ry
     estimated scf accuracy    <       0.00000072 Ry
     smearing contrib. (-TS)   =      -0.00564198 Ry
     internal energy E=F+TS    =   -2205.52980177 Ry

     The total energy is F=E-TS. E is the sum of the following terms:
     one-electron contribution =  -18041.83287443 Ry
     hartree contribution      =    9007.65878155 Ry
     xc contribution           =    -385.19792709 Ry
     ewald contribution        =    7213.84221819 Ry

     convergence has been achieved in   7 iterations

     negative rho (up, down):  1.377E-04 0.000E+00

     Forces acting on atoms (cartesian axes, Ry/au):

     atom    1 type  1   force =     0.00368058   -0.00919354   -0.00001773
     atom    2 type  2   force =    -0.00971993    0.01107833   -0.00136832
     atom    3 type  2   force =    -0.01144175    0.00763279   -0.00997676
     atom    4 type  1   force =     0.00477718    0.00276287    0.00102967
     atom    5 type  2   force =     0.00054768   -0.00539285   -0.00571865
     atom    6 type  2   force =     0.00065274    0.00738151    0.00197313
     atom    7 type  1   force =     0.00718182   -0.00883164   -0.00251899
     atom    8 type  2   force =     0.00116760   -0.00361197    0.01247930
     atom    9 type  2   force =     0.01121642    0.00449739    0.00617244
     atom   10 type  1   force =    -0.00627490    0.00817701   -0.00755133
     atom   11 type  2   force =     0.00327195   -0.00157663   -0.01020079
     atom   12 type  2   force =    -0.00179241   -0.00000263   -0.00015953
     atom   13 type  1   force =     0.00393671    0.00138736   -0.00130683
     atom   14 type  2   force =     0.00656480   -0.00024754    0.00688988
     atom   15 type  2   force =    -0.00652651    0.00357165   -0.00887907
     atom   16 type  1   force =     0.00169896    0.00770891    0.00505173
     atom   17 type  2   force =     0.00470798   -0.00018197    0.00158215
     atom   18 type  2   force =    -0.00274688   -0.00338542    0.01063556
     atom   19 type  1   force =    -0.00257125   -0.00763610    0.00407662
     atom   20 type  2   force =     0.00190915   -0.00383849   -0.00211197
     atom   21 type  1   force =     0.00264190    0.00365917   -0.00410630
     atom   22 type  2   force =    -0.04753964   -0.02422904    0.03198472
     atom   23 type  2   force =     0.00276713    0.00205570    0.00585785
     atom   24 type  1   force =    -0.00617150   -0.00315810   -0.00887035
     atom   25 type  2   force =     0.01122696    0.01353629    0.00016285
     atom   26 type  2   force =    -0.00716558    0.00066341   -0.00523207
     atom   27 type  1   force =    -0.00021010    0.00185215    0.00534132
     atom   28 type  2   force =     0.00040872   -0.00255965   -0.00581574
     atom   29 type  2   force =     0.00266136    0.00112517   -0.00310428
     atom   30 type  1   force =    -0.00213039    0.00404718    0.00403953
     atom   31 type  2   force =     0.00122244    0.00332154    0.01302039
     atom   32 type  2   force =    -0.00738788    0.00534797    0.00460855
     atom   33 type  1   force =     0.00426165   -0.00000593   -0.00321725
     atom   34 type  2   force =     0.00935684   -0.03332124   -0.01524795
     atom   35 type  2   force =    -0.00609534    0.00783033    0.00651532
     atom   36 type  3   force =     0.03191352    0.00953603   -0.02601712
     The non-local contrib.  to forces
     atom    1 type  1   force =     0.00054161    0.02577838   -0.01121943
     atom    2 type  2   force =    -0.00703547    0.00129083   -0.26747408
     atom    3 type  2   force =    -0.01274239   -0.00458033    0.26566667
     atom    4 type  1   force =     0.00107367    0.00477118    0.00483240
     atom    5 type  2   force =     0.00785491   -0.03038771   -0.25258308
     atom    6 type  2   force =    -0.00191359    0.00827826    0.26394380
     atom    7 type  1   force =    -0.02306581    0.00277389   -0.02050332
     atom    8 type  2   force =     0.00598755   -0.00172563   -0.25593040
     atom    9 type  2   force =     0.00459972   -0.00770596    0.27447836
     atom   10 type  1   force =     0.00382990   -0.00055542   -0.00463350
     atom   11 type  2   force =     0.01941114   -0.00073375   -0.25011042
     atom   12 type  2   force =    -0.01385656   -0.01373833    0.26183323
     atom   13 type  1   force =    -0.00055887    0.02134604   -0.00831362
     atom   14 type  2   force =     0.01179634   -0.00543788   -0.26038984
     atom   15 type  2   force =    -0.01025139   -0.00773843    0.26094563
     atom   16 type  1   force =    -0.00129226    0.03391158   -0.03265790
     atom   17 type  2   force =     0.00492757   -0.02959056   -0.25062180
     atom   18 type  2   force =    -0.00417641   -0.00058807    0.27159943
     atom   19 type  1   force =     0.01886240    0.00659690   -0.01430336
     atom   20 type  2   force =     0.00021924   -0.02137849    0.26431291
     atom   21 type  1   force =    -0.00544614    0.02092556    0.00020344
     atom   22 type  2   force =    -0.17863968   -0.04823711   -0.06774303
     atom   23 type  2   force =     0.00561364   -0.01759971    0.27030488
     atom   24 type  1   force =     0.00348438    0.01652342   -0.00950225
     atom   25 type  2   force =     0.00565605   -0.00209971   -0.26133321
     atom   26 type  2   force =    -0.00086123   -0.01141116    0.26241955
     atom   27 type  1   force =    -0.00408146    0.00775396    0.00616769
     atom   28 type  2   force =    -0.00399546   -0.02400146   -0.27667133
     atom   29 type  2   force =     0.00657225    0.00202057    0.26340293
     atom   30 type  1   force =     0.00124283    0.01934636    0.00916985
     atom   31 type  2   force =    -0.01286098    0.01060196   -0.24002512
     atom   32 type  2   force =    -0.00040874   -0.00580179    0.27310081
     atom   33 type  1   force =    -0.00247026    0.00793559    0.01017793
     atom   34 type  2   force =     0.02433299   -0.04429954   -0.21711638
     atom   35 type  2   force =    -0.00150172   -0.00896039    0.26790087
     atom   36 type  3   force =     0.00984237    0.00395196   -0.01274031
     The ionic contribution  to forces
     atom    1 type  1   force =     0.11156052    0.65264918    5.83746987
     atom    2 type  2   force =    -0.50942097    0.34062992   39.37301432
     atom    3 type  2   force =    -0.14287167    0.09062975  -36.22573591
     atom    4 type  1   force =     0.03340642    0.42686779    0.71244928
     atom    5 type  2   force =    -0.95412359    1.45144953   38.68462044
     atom    6 type  2   force =     0.29271325   -0.54278905  -37.93429647
     atom    7 type  1   force =    -2.73893123   -2.63033772    2.39456177
     atom    8 type  2   force =    -1.07219687   -0.02966392   37.48241325
     atom    9 type  2   force =     0.34476387   -0.10033400  -38.01151170
     atom   10 type  1   force =    -0.84612537   -0.32048309    5.28267572
     atom   11 type  2   force =    -0.58526204   -1.60966653   39.06054137
     atom   12 type  2   force =     0.38172459    0.56644254  -37.89146943
     atom   13 type  1   force =     0.51176152    1.01394222    2.78677920
     atom   14 type  2   force =     0.00710147    0.02165958   38.57014201
     atom   15 type  2   force =     0.15023507    0.07448414  -36.87106769
     atom   16 type  1   force =     0.04086689    3.69462631    0.67630209
     atom   17 type  2   force =     0.81658396    1.41811402   37.93044739
     atom   18 type  2   force =    -0.10816647   -0.60797439  -38.48585682
     atom   19 type  1   force =     3.12794560   -2.46248267    0.23181318
     atom   20 type  2   force =     0.19749760   -0.19719912  -38.52534221
     atom   21 type  1   force =    -0.22627083   -0.13933238    0.94205354
     atom   22 type  2   force =     1.48250691   -1.29815012   37.84901384
     atom   23 type  2   force =    -0.00106965    0.60304724  -38.27441493
     atom   24 type  1   force =    -0.37173890    1.14367634    5.52369157
     atom   25 type  2   force =     0.53627401    0.43321526   39.16380597
     atom   26 type  2   force =    -0.23838461    0.12477292  -37.33482169
     atom   27 type  1   force =    -0.00357684    0.29198303   -2.18211871
     atom   28 type  2   force =     0.04434538    0.89719472   38.17181004
     atom   29 type  2   force =    -0.26083928   -0.37751623  -37.27352651
     atom   30 type  1   force =    -0.56446632   -1.23287330   -0.39505542
     atom   31 type  2   force =     1.14427093   -0.56977668   37.17275488
     atom   32 type  2   force =    -0.46338939   -0.07740191  -38.65648771
     atom   33 type  1   force =     0.71505168   -0.25335839    1.26118269
     atom   34 type  2   force =    -0.45686030   -0.98079680   38.91746586
     atom   35 type  2   force =    -0.30292713    0.49168099  -37.82036517
     atom   36 type  3   force =    -0.09198822   -0.30692918    7.85706207
     The local contribution  to forces
     atom    1 type  1   force =    -0.10847444   -0.68753040   -5.82732147
     atom    2 type  2   force =     0.50643250   -0.33057751  -39.12804384
     atom    3 type  2   force =     0.14360271   -0.07858782   35.97062797
     atom    4 type  1   force =    -0.02970037   -0.42897900   -0.71728906
     atom    5 type  2   force =     0.94750952   -1.42817987  -38.45847025
     atom    6 type  2   force =    -0.29037146    0.54288265   37.69288750
     atom    7 type  1   force =     2.76917889    2.61876445   -2.37765183
     atom    8 type  2   force =     1.06755517    0.02735539  -37.23495184
     atom    9 type  2   force =    -0.33817751    0.11214089   37.76391260
     atom   10 type  1   force =     0.83607250    0.32920795   -5.28680866
     atom   11 type  2   force =     0.57005433    1.60911407  -38.84123955
     atom   12 type  2   force =    -0.37080413   -0.55380721   37.65002713
     atom   13 type  1   force =    -0.50736491   -1.03388374   -2.78080100
     atom   14 type  2   force =    -0.01164533   -0.01623176  -38.32383643
     atom   15 type  2   force =    -0.14712004   -0.06373604   36.62153652
     atom   16 type  1   force =    -0.03788162   -3.72091061   -0.63958723
     atom   17 type  2   force =    -0.81667071   -1.39028603  -37.69896296
     atom   18 type  2   force =     0.10943924    0.60568372   38.24560217
     atom   19 type  1   force =    -3.14943534    2.44814152   -0.21467473
     atom   20 type  2   force =    -0.19589054    0.21397222   38.27981962
     atom   21 type  1   force =     0.23437419    0.12211138   -0.94758978
     atom   22 type  2   force =    -1.36151991    1.31957743  -37.75942563
     atom   23 type  2   force =    -0.00135814   -0.58465183   38.03068595
     atom   24 type  1   force =     0.36219937   -1.16328396   -5.52414549
     atom   25 type  2   force =    -0.53065270   -0.41742002  -38.92338983
     atom   26 type  2   force =     0.23227457   -0.11334528   37.08773042
     atom   27 type  1   force =     0.00745643   -0.29797656    2.18020651
     atom   28 type  2   force =    -0.04021192   -0.87747909  -37.92245839
     atom   29 type  2   force =     0.25749157    0.37711342   37.02736590
     atom   30 type  1   force =     0.56111276    1.21752473    0.38870840
     atom   31 type  2   force =    -1.13076837    0.56303008  -36.93996959
     atom   32 type  2   force =     0.45666088    0.08820811   38.40873876
     atom   33 type  1   force =    -0.70843210    0.24552651   -1.27587724
     atom   34 type  2   force =     0.44308705    0.98997403  -38.73424578
     atom   35 type  2   force =     0.29843536   -0.47578378   37.57967248
     atom   36 type  3   force =     0.11405345    0.31250901   -7.87042039
     The core correction contribution to forces
     atom    1 type  1   force =     0.00000000    0.00000000    0.00000000
     atom    2 type  2   force =     0.00021968   -0.00017447    0.02066360
     atom    3 type  2   force =     0.00056994    0.00016121   -0.02081762
     atom    4 type  1   force =     0.00000000    0.00000000    0.00000000
     atom    5 type  2   force =    -0.00068008    0.00167000    0.02030272
     atom    6 type  2   force =     0.00025856   -0.00100881   -0.02083540
     atom    7 type  1   force =     0.00000000    0.00000000    0.00000000
     atom    8 type  2   force =    -0.00020712    0.00039767    0.02043356
     atom    9 type  2   force =     0.00004333    0.00043409   -0.02098915
     atom   10 type  1   force =     0.00000000    0.00000000    0.00000000
     atom   11 type  2   force =    -0.00087870   -0.00028270    0.02013410
     atom   12 type  2   force =     0.00116769    0.00112555   -0.02086008
     atom   13 type  1   force =     0.00000000    0.00000000    0.00000000
     atom   14 type  2   force =    -0.00064672   -0.00015300    0.02050225
     atom   15 type  2   force =     0.00060555    0.00054516   -0.02057691
     atom   16 type  1   force =     0.00000000    0.00000000    0.00000000
     atom   17 type  2   force =    -0.00014425    0.00152142    0.02027648
     atom   18 type  2   force =     0.00011154   -0.00055529   -0.02096640
     atom   19 type  1   force =     0.00000000    0.00000000    0.00000000
     atom   20 type  2   force =     0.00007662    0.00080582   -0.02117519
     atom   21 type  1   force =     0.00000000    0.00000000    0.00000000
     atom   22 type  2   force =     0.01004296    0.00254506    0.00969787
     atom   23 type  2   force =    -0.00044416    0.00126333   -0.02104243
     atom   24 type  1   force =     0.00000000    0.00000000    0.00000000
     atom   25 type  2   force =    -0.00000559   -0.00004580    0.02056454
     atom   26 type  2   force =    -0.00020122    0.00064354   -0.02083902
     atom   27 type  1   force =     0.00000000    0.00000000    0.00000000
     atom   28 type  2   force =     0.00027155    0.00167909    0.02103881
     atom   29 type  2   force =    -0.00055034   -0.00053267   -0.02060364
     atom   30 type  1   force =     0.00000000    0.00000000    0.00000000
     atom   31 type  2   force =     0.00060724   -0.00055765    0.01972989
     atom   32 type  2   force =    -0.00024353    0.00038017   -0.02099325
     atom   33 type  1   force =     0.00000000    0.00000000    0.00000000
     atom   34 type  2   force =    -0.00119116    0.00171797    0.01817242
     atom   35 type  2   force =    -0.00010363    0.00089145   -0.02101308
     atom   36 type  3   force =     0.00000000    0.00000000    0.00000000
     The Hubbard contrib.    to forces
     atom    1 type  1   force =     0.00000000    0.00000000    0.00000000
     atom    2 type  2   force =     0.00000000    0.00000000    0.00000000
     atom    3 type  2   force =     0.00000000    0.00000000    0.00000000
     atom    4 type  1   force =     0.00000000    0.00000000    0.00000000
     atom    5 type  2   force =     0.00000000    0.00000000    0.00000000
     atom    6 type  2   force =     0.00000000    0.00000000    0.00000000
     atom    7 type  1   force =     0.00000000    0.00000000    0.00000000
     atom    8 type  2   force =     0.00000000    0.00000000    0.00000000
     atom    9 type  2   force =     0.00000000    0.00000000    0.00000000
     atom   10 type  1   force =     0.00000000    0.00000000    0.00000000
     atom   11 type  2   force =     0.00000000    0.00000000    0.00000000
     atom   12 type  2   force =     0.00000000    0.00000000    0.00000000
     atom   13 type  1   force =     0.00000000    0.00000000    0.00000000
     atom   14 type  2   force =     0.00000000    0.00000000    0.00000000
     atom   15 type  2   force =     0.00000000    0.00000000    0.00000000
     atom   16 type  1   force =     0.00000000    0.00000000    0.00000000
     atom   17 type  2   force =     0.00000000    0.00000000    0.00000000
     atom   18 type  2   force =     0.00000000    0.00000000    0.00000000
     atom   19 type  1   force =     0.00000000    0.00000000    0.00000000
     atom   20 type  2   force =     0.00000000    0.00000000    0.00000000
     atom   21 type  1   force =     0.00000000    0.00000000    0.00000000
     atom   22 type  2   force =     0.00000000    0.00000000    0.00000000
     atom   23 type  2   force =     0.00000000    0.00000000    0.00000000
     atom   24 type  1   force =     0.00000000    0.00000000    0.00000000
     atom   25 type  2   force =     0.00000000    0.00000000    0.00000000
     atom   26 type  2   force =     0.00000000    0.00000000    0.00000000
     atom   27 type  1   force =     0.00000000    0.00000000    0.00000000
     atom   28 type  2   force =     0.00000000    0.00000000    0.00000000
     atom   29 type  2   force =     0.00000000    0.00000000    0.00000000
     atom   30 type  1   force =     0.00000000    0.00000000    0.00000000
     atom   31 type  2   force =     0.00000000    0.00000000    0.00000000
     atom   32 type  2   force =     0.00000000    0.00000000    0.00000000
     atom   33 type  1   force =     0.00000000    0.00000000    0.00000000
     atom   34 type  2   force =     0.00000000    0.00000000    0.00000000
     atom   35 type  2   force =     0.00000000    0.00000000    0.00000000
     atom   36 type  3   force =     0.00000000    0.00000000    0.00000000
     The SCF correction term to forces
     atom    1 type  1   force =     0.00005399   -0.00009352    0.00102406
     atom    2 type  2   force =     0.00008543   -0.00009326    0.00044243
     atom    3 type  2   force =     0.00000075    0.00000717    0.00025288
     atom    4 type  1   force =    -0.00000146    0.00010007    0.00100780
     atom    5 type  2   force =    -0.00001200    0.00005237    0.00038227
     atom    6 type  2   force =    -0.00003293    0.00001565    0.00024445
     atom    7 type  1   force =     0.00000105   -0.00003509    0.00104514
     atom    8 type  2   force =     0.00002997    0.00002171    0.00048548
     atom    9 type  2   force =    -0.00001190   -0.00004045    0.00025307
     atom   10 type  1   force =    -0.00005084    0.00000475    0.00118587
     atom   11 type  2   force =    -0.00005168   -0.00001054    0.00044446
     atom   12 type  2   force =    -0.00002291   -0.00002799    0.00028037
     atom   13 type  1   force =     0.00010006   -0.00001998    0.00099933
     atom   14 type  2   force =    -0.00003987   -0.00008729    0.00044263
     atom   15 type  2   force =     0.00000539    0.00001401    0.00025414
     atom   16 type  1   force =     0.00000705    0.00007880    0.00096553
     atom   17 type  2   force =     0.00001250    0.00005636    0.00041380
     atom   18 type  2   force =     0.00004630    0.00004580    0.00022794
     atom   19 type  1   force =     0.00005717    0.00010533    0.00121228
     atom   20 type  2   force =     0.00000732   -0.00004173    0.00024366
     atom   21 type  1   force =    -0.00001423   -0.00004820    0.00119725
     atom   22 type  2   force =     0.00007118    0.00003288    0.00041241
     atom   23 type  2   force =     0.00002653   -0.00000614    0.00029513
     atom   24 type  1   force =    -0.00011525   -0.00007672    0.00105658
     atom   25 type  2   force =    -0.00004372   -0.00011625    0.00048613
     atom   26 type  2   force =     0.00000800    0.00000058    0.00024941
     atom   27 type  1   force =    -0.00000714    0.00008891    0.00105658
     atom   28 type  2   force =     0.00000026    0.00004426    0.00043589
     atom   29 type  2   force =    -0.00001174    0.00003725    0.00022780
     atom   30 type  1   force =    -0.00001858    0.00004658    0.00118744
     atom   31 type  2   force =    -0.00002530    0.00002101    0.00050109
     atom   32 type  2   force =    -0.00000601   -0.00003943    0.00022069
     atom   33 type  1   force =     0.00011341   -0.00011245    0.00127013
     atom   34 type  2   force =    -0.00001064    0.00008028    0.00044668
     atom   35 type  2   force =     0.00000286   -0.00000076    0.00029097
     atom   36 type  3   force =     0.00000700    0.00000143    0.00005227

     Total force =     0.101952     Total SCF correction =     0.004221
     Energy error            =      1.6E-02 Ry
     Gradient error          =      4.8E-02 Ry/Bohr

     number of scf cycles    =   2
     number of bfgs steps    =   1

     energy             old  =   -2205.5189536072 Ry
     energy             new  =   -2205.5354437549 Ry

     CASE: energy            _new < energy            _old

     new trust radius        =       0.0860140033 bohr
     new conv_thr            =       0.0000000475 Ry


ATOMIC_POSITIONS (angstrom)
Mo            6.5857121136        1.7689073011        2.8272592126
S             8.1610296149        0.8275189427        4.4341301448
S             8.1786713880        0.8209575245        1.2700515426
Mo            8.1011136946        4.4995005018        2.7179103512
S             6.4994195980        3.7156155186        4.3391352547
S             6.5542621496        3.5227567544        1.1218930712
Mo            6.5005096798        7.2030847477        2.6635857304
S             8.0826779770        6.3389870688        4.2608944484
S             8.0945952885        6.3108827373        1.0947415141
Mo            8.1436230664        9.9160377384        2.8198235701
S             6.5006063359        8.9407180298        4.3727627218
S             6.6160221347        9.0493193350        1.1446744619
Mo            3.4262320917        1.7503204765        2.7713706248
S             4.9846112267        0.8177052623        4.3623215092
S             5.0466343403        0.8495470457        1.2159307443
Mo            4.9818526248        4.5250525922        2.6404253884
S             3.4342913161        3.6709833451        4.2816459934
S             3.4332142677        3.5422287176        1.0730075653
Mo            3.4503388273        7.2055652666        2.6329409320
S             4.9867143400        6.3217278360        1.0359179026
Mo            5.0249353322        9.9129295138        2.7279087725
S             3.4043134449        8.9087117394        4.3689530050
S             3.4098703708        9.0686870698        1.1058912887
Mo            0.2859022218        1.7429117351        2.8298816694
S             1.8678629425        0.8125731789        4.4040751898
S             1.8497669623        0.8549286592        1.2047930824
Mo            1.8609490446        4.4963012386        2.6644448779
S             0.2727505964        3.6519358164        4.3311695523
S             0.2350166413        3.5274937218        1.1692201378
Mo            0.2676815964        7.2280324077        2.7014965237
S             1.9055212498        6.3213111663        4.2436253365
S             1.8525112525        6.3175176178        1.0515479338
Mo            1.8540460774        9.9386944615        2.7575116803
S             0.3148362587        9.0381656134        4.4012014929
S             0.2686347701        9.0523551196        1.1637588186
H             2.1371183970        8.5112361647        5.4488594917



     Writing config-only to output data dir ./MoS2-V-O.save/
     NEW-OLD atomic charge density approx. for the potential

     negative rho (up, down):  1.471E-04 0.000E+00

     total cpu time spent up to now is      187.0 secs

     Self-consistent Calculation

     iteration #  1     ecut=    80.00 Ry     beta= 0.70
     Davidson diagonalization with overlap
     ethr =  1.00E-06,  avg # of iterations = 10.0

     negative rho (up, down):  7.611E-05 0.000E+00

     total cpu time spent up to now is      199.9 secs

     total energy              =   -2205.54803352 Ry
     estimated scf accuracy    <       0.00131517 Ry

     iteration #  2     ecut=    80.00 Ry     beta= 0.70
     Davidson diagonalization with overlap
     ethr =  4.28E-07,  avg # of iterations =  2.0

     negative rho (up, down):  5.001E-05 0.000E+00

     total cpu time spent up to now is      212.9 secs

     total energy              =   -2205.54805662 Ry
     estimated scf accuracy    <       0.00028027 Ry

     iteration #  3     ecut=    80.00 Ry     beta= 0.70
     Davidson diagonalization with overlap
     ethr =  9.13E-08,  avg # of iterations =  5.0

     negative rho (up, down):  3.942E-05 0.000E+00

     total cpu time spent up to now is      226.1 secs

     total energy              =   -2205.54807920 Ry
     estimated scf accuracy    <       0.00004892 Ry

     iteration #  4     ecut=    80.00 Ry     beta= 0.70
     Davidson diagonalization with overlap
     ethr =  1.59E-08,  avg # of iterations =  5.0

     negative rho (up, down):  3.758E-05 0.000E+00

     total cpu time spent up to now is      240.6 secs

     total energy              =   -2205.54808989 Ry
     estimated scf accuracy    <       0.00000584 Ry

     iteration #  5     ecut=    80.00 Ry     beta= 0.70
     Davidson diagonalization with overlap
     ethr =  1.90E-09,  avg # of iterations =  5.0

     negative rho (up, down):  3.895E-05 0.000E+00

     total cpu time spent up to now is      254.7 secs

     total energy              =   -2205.54809113 Ry
     estimated scf accuracy    <       0.00000231 Ry

     iteration #  6     ecut=    80.00 Ry     beta= 0.70
     Davidson diagonalization with overlap
     ethr =  7.51E-10,  avg # of iterations =  3.0

     negative rho (up, down):  4.409E-05 0.000E+00

     total cpu time spent up to now is      268.5 secs

     total energy              =   -2205.54809142 Ry
     estimated scf accuracy    <       0.00000069 Ry

     iteration #  7     ecut=    80.00 Ry     beta= 0.70
     Davidson diagonalization with overlap
     ethr =  2.26E-10,  avg # of iterations =  5.0

     negative rho (up, down):  6.302E-05 0.000E+00

     total cpu time spent up to now is      278.6 secs

     total energy              =   -2205.54809145 Ry
     estimated scf accuracy    <       0.00000027 Ry

     iteration #  8     ecut=    80.00 Ry     beta= 0.70
     Davidson diagonalization with overlap
     ethr =  8.92E-11,  avg # of iterations =  2.0

     negative rho (up, down):  9.200E-05 0.000E+00

     total cpu time spent up to now is      292.2 secs

     total energy              =   -2205.54809136 Ry
     estimated scf accuracy    <       0.00000007 Ry

     iteration #  9     ecut=    80.00 Ry     beta= 0.70
     Davidson diagonalization with overlap
     ethr =  2.29E-11,  avg # of iterations =  5.0

     negative rho (up, down):  1.382E-04 0.000E+00

     total cpu time spent up to now is      294.6 secs

     End of self-consistent calculation

          k = 0.0000 0.0000 0.0000 (105382 PWs)   bands (ev):

   -62.8733 -62.8616 -62.8583 -62.8466 -62.8347 -62.8266 -62.8034 -62.7911
   -62.7794 -62.7693 -62.7556 -62.7059 -37.2142 -37.1481 -37.1373 -37.1322
   -37.1180 -37.0929 -37.0735 -37.0716 -37.0583 -37.0487 -37.0448 -37.0315
   -37.0306 -37.0248 -37.0104 -37.0037 -37.0009 -36.9944 -36.9858 -36.9749
   -36.9602 -36.9446 -36.9371 -36.9185 -36.9115 -36.9075 -36.8980 -36.8839
   -36.8786 -36.8698 -36.8512 -36.8425 -36.8376 -36.7989 -36.7379 -36.6885
   -16.0087 -15.3195 -15.1203 -15.0448 -14.8893 -14.8298 -14.6104 -14.4863
   -14.4436 -14.4112 -14.3883 -14.3468 -14.3127 -14.2922 -14.1544 -14.1346
   -14.1075 -14.0958 -14.0236 -13.8922 -13.8425 -13.8222 -13.8027  -8.1053
    -7.5857  -7.4309  -7.2751  -7.2261  -7.2161  -7.1834  -7.1335  -6.9810
    -6.8061  -6.7796  -6.7529  -6.6609  -6.5723  -6.5214  -6.4800  -6.3756
    -6.2601  -6.2397  -6.0743  -5.9751  -5.9221  -5.8665  -5.8260  -5.7757
    -5.7563  -5.7064  -5.6870  -5.6506  -5.6206  -5.5403  -5.5061  -5.4667
    -5.3942  -5.3477  -5.1465  -5.1342  -5.0605  -4.9925  -4.9647  -4.9384
    -4.9149  -4.8356  -4.6566  -4.5363  -4.4636  -4.3123  -4.2812  -4.2364
    -4.2227  -4.1275  -4.0400  -3.8349  -3.8122  -3.7668  -3.7125  -3.7051
    -3.6747  -3.5692  -3.5489  -3.5094  -3.4968  -3.4475  -3.4295  -3.3662
    -3.3366  -3.2110  -3.1242  -2.8845  -2.8765  -2.8046  -2.7597  -2.7394
    -2.6999  -2.6574  -2.6476  -2.6134  -2.5512  -2.2676  -2.0506  -1.9853
    -1.9536  -1.2340  -0.7716  -0.5570  -0.1652  -0.1298  -0.0570   0.0110
     0.0551   0.1427   0.2030   0.2419   0.2621   0.3178   0.3382   0.4288
     0.4929   0.5433   0.5648   0.5854   0.6278   0.6677   0.7338   0.7543
     0.7771   0.8185   0.8525   0.9007   0.9778   1.0092   1.0484   1.2934
     1.3462

     the Fermi energy is    -1.2340 ev

!    total energy              =   -2205.54809130 Ry
     estimated scf accuracy    <       0.00000002 Ry
     smearing contrib. (-TS)   =      -0.00564195 Ry
     internal energy E=F+TS    =   -2205.54244935 Ry

     The total energy is F=E-TS. E is the sum of the following terms:
     one-electron contribution =  -18040.77702559 Ry
     hartree contribution      =    9007.22348708 Ry
     xc contribution           =    -385.20654386 Ry
     ewald contribution        =    7213.21763302 Ry

     convergence has been achieved in   9 iterations

     negative rho (up, down):  1.382E-04 0.000E+00

     Forces acting on atoms (cartesian axes, Ry/au):

     atom    1 type  1   force =    -0.00321934   -0.00075683   -0.00448108
     atom    2 type  2   force =    -0.00506311    0.00605560   -0.00157505
     atom    3 type  2   force =    -0.00950346    0.00602168   -0.01198519
     atom    4 type  1   force =     0.00422300    0.00139148    0.00115438
     atom    5 type  2   force =     0.00180898   -0.00468115   -0.00428327
     atom    6 type  2   force =     0.00058280    0.00541351    0.00346001
     atom    7 type  1   force =     0.00473434   -0.00335955    0.00067999
     atom    8 type  2   force =     0.00125859   -0.00332690    0.00930049
     atom    9 type  2   force =     0.01028573    0.00334553    0.00291322
     atom   10 type  1   force =     0.00146425    0.00437970    0.00315044
     atom   11 type  2   force =     0.00129988   -0.00134509   -0.01016917
     atom   12 type  2   force =    -0.00228938   -0.00033170   -0.00286939
     atom   13 type  1   force =     0.00327198   -0.00043287    0.00083442
     atom   14 type  2   force =     0.00434086   -0.00158687    0.00340334
     atom   15 type  2   force =    -0.00325039    0.00289718   -0.00716995
     atom   16 type  1   force =     0.00130453    0.00471777    0.00318048
     atom   17 type  2   force =     0.00389346    0.00033470    0.00211808
     atom   18 type  2   force =    -0.00110942   -0.00069108    0.00858800
     atom   19 type  1   force =    -0.00236413   -0.00572825    0.00577090
     atom   20 type  2   force =     0.00056538   -0.00251002   -0.00199368
     atom   21 type  1   force =    -0.00459037   -0.00176121    0.00208233
     atom   22 type  2   force =    -0.03738168   -0.01815953    0.02994865
     atom   23 type  2   force =     0.00404491    0.00027981    0.00460604
     atom   24 type  1   force =    -0.00352622   -0.00149467   -0.00250220
     atom   25 type  2   force =     0.00637082    0.00931647   -0.00402653
     atom   26 type  2   force =    -0.00384550    0.00070303   -0.00501522
     atom   27 type  1   force =    -0.00068087    0.00269593    0.00596357
     atom   28 type  2   force =     0.00035850   -0.00313922   -0.00508552
     atom   29 type  2   force =     0.00228566    0.00226950   -0.00294647
     atom   30 type  1   force =    -0.00103543   -0.00260823    0.00542760
     atom   31 type  2   force =    -0.00084920   -0.00301551    0.00776632
     atom   32 type  2   force =    -0.00575699    0.00434072    0.00386578
     atom   33 type  1   force =    -0.00027516    0.00133791    0.00462564
     atom   34 type  2   force =    -0.00094686   -0.01814906   -0.01766924
     atom   35 type  2   force =    -0.00435123    0.00731365    0.00215703
     atom   36 type  3   force =     0.03794505    0.01026358   -0.02922476
     The non-local contrib.  to forces
     atom    1 type  1   force =     0.00136185    0.02336451   -0.01133927
     atom    2 type  2   force =    -0.00365792   -0.00242796   -0.26611183
     atom    3 type  2   force =    -0.01029814   -0.00642037    0.26298081
     atom    4 type  1   force =     0.00125078    0.00581750    0.00450933
     atom    5 type  2   force =     0.00884684   -0.02971086   -0.25263349
     atom    6 type  2   force =    -0.00173326    0.00634989    0.26566869
     atom    7 type  1   force =    -0.02303581    0.00220178   -0.02113793
     atom    8 type  2   force =     0.00729591   -0.00127414   -0.25696063
     atom    9 type  2   force =     0.00353907   -0.00850808    0.27214425
     atom   10 type  1   force =     0.00141064   -0.00006320   -0.00393921
     atom   11 type  2   force =     0.01855218   -0.00141488   -0.24993482
     atom   12 type  2   force =    -0.01389604   -0.01371502    0.26080034
     atom   13 type  1   force =     0.00038974    0.02254999   -0.00826095
     atom   14 type  2   force =     0.00999326   -0.00487723   -0.26129608
     atom   15 type  2   force =    -0.00747819   -0.00920176    0.26157202
     atom   16 type  1   force =    -0.00129918    0.03572450   -0.03349096
     atom   17 type  2   force =     0.00464437   -0.02857309   -0.25091869
     atom   18 type  2   force =    -0.00316290    0.00134974    0.27044356
     atom   19 type  1   force =     0.02061525    0.00818669   -0.01595907
     atom   20 type  2   force =    -0.00031847   -0.01959211    0.26392470
     atom   21 type  1   force =    -0.00423809    0.02083164   -0.00105970
     atom   22 type  2   force =    -0.19740528   -0.05524076   -0.05298524
     atom   23 type  2   force =     0.00634801   -0.01879518    0.27061308
     atom   24 type  1   force =     0.00159658    0.01674843   -0.00831989
     atom   25 type  2   force =     0.00191509   -0.00584513   -0.26292508
     atom   26 type  2   force =     0.00146121   -0.01053784    0.26253483
     atom   27 type  1   force =    -0.00428687    0.00774525    0.00532554
     atom   28 type  2   force =    -0.00361306   -0.02349318   -0.27663056
     atom   29 type  2   force =     0.00601263    0.00133292    0.26452830
     atom   30 type  1   force =     0.00115897    0.02027284    0.00843217
     atom   31 type  2   force =    -0.01467895    0.00587411   -0.24574611
     atom   32 type  2   force =     0.00148351   -0.00641435    0.27282705
     atom   33 type  1   force =    -0.00130825    0.00645104    0.00890990
     atom   34 type  2   force =     0.01143760   -0.03201767   -0.22261986
     atom   35 type  2   force =    -0.00057451   -0.00867980    0.26621978
     atom   36 type  3   force =     0.01344209    0.00481070   -0.01550973
     The ionic contribution  to forces
     atom    1 type  1   force =    -0.09608574    0.87513730    5.82798556
     atom    2 type  2   force =    -0.36257869    0.24032539   39.44216246
     atom    3 type  2   force =    -0.10818043    0.10115080  -36.37094163
     atom    4 type  1   force =    -0.00519101    0.34461635    0.73776210
     atom    5 type  2   force =    -0.94681211    1.42455504   38.61472799
     atom    6 type  2   force =     0.25173857   -0.55994254  -37.86982415
     atom    7 type  1   force =    -2.90048821   -2.42332660    2.29977077
     atom    8 type  2   force =    -1.10197537   -0.01608957   37.61133503
     atom    9 type  2   force =     0.34337860   -0.12061353  -38.01726343
     atom   10 type  1   force =    -0.63135299   -0.37210170    5.15361617
     atom   11 type  2   force =    -0.64491064   -1.61562699   38.97529114
     atom   12 type  2   force =     0.32703635    0.47829544  -37.89038625
     atom   13 type  1   force =     0.47932853    0.92174803    2.76435348
     atom   14 type  2   force =    -0.07358986   -0.03792665   38.62145982
     atom   15 type  2   force =     0.12740406    0.11465022  -36.93915622
     atom   16 type  1   force =     0.03910050    3.57037403    0.84691805
[...]
     atom   27 type  1   force =    -0.00633446    0.00609221    0.00013115
     atom   28 type  2   force =     0.00252348   -0.01283511   -0.27346200
     atom   29 type  2   force =    -0.00196630   -0.00840955    0.26790389
     atom   30 type  1   force =     0.00004384    0.01779520    0.00719071
     atom   31 type  2   force =    -0.01105073    0.00580147   -0.25302067
     atom   32 type  2   force =     0.00421655   -0.01302029    0.26844061
     atom   33 type  1   force =    -0.00172524    0.00590667    0.00104850
     atom   34 type  2   force =    -0.00058403   -0.01177942   -0.25172852
     atom   35 type  2   force =    -0.00520589   -0.01030870    0.26626997
     atom   36 type  3   force =     0.03533902    0.01300505   -0.04109923
     The ionic contribution  to forces
     atom    1 type  1   force =    -0.31431625    0.85629102    2.08062527
     atom    2 type  2   force =    -0.30338395    0.11259017   38.76122183
     atom    3 type  2   force =     0.13428931    0.05829533  -37.64308435
     atom    4 type  1   force =    -0.26660578    0.30876369    0.23656890
     atom    5 type  2   force =    -0.79974136    1.08399944   38.42011722
     atom    6 type  2   force =     0.04956681   -0.25239275  -38.01027670
     atom    7 type  1   force =    -3.22022209   -2.10382430    0.82946763
     atom    8 type  2   force =    -1.42592675    0.05387925   38.12121599
     atom    9 type  2   force =     0.29938176   -0.11529591  -38.19102107
     atom   10 type  1   force =    -0.38868697   -0.25170596    2.11975194
     atom   11 type  2   force =    -0.71132766   -1.43808774   38.29413458
     atom   12 type  2   force =     0.15407630    0.15548012  -38.48799518
     atom   13 type  1   force =     0.25414756    0.62766239    2.75695856
     atom   14 type  2   force =     0.00112388   -0.22066423   38.30340107
     atom   15 type  2   force =    -0.22979483    0.07495391  -37.71137853
     atom   16 type  1   force =     0.13110376    3.41441699    3.02670540
     atom   17 type  2   force =     0.88030899    0.98582673   38.38250825
     atom   18 type  2   force =    -0.12571407   -0.35088329  -37.70184770
     atom   19 type  1   force =     3.75928344   -1.11327422    4.44337305
     atom   20 type  2   force =    -0.14060616    0.04846627  -38.23878289
     atom   21 type  1   force =    -1.38907578   -0.82985488   -0.33284817
     atom   22 type  2   force =     2.34894003   -0.42528240   37.89682837
     atom   23 type  2   force =    -0.25839415    0.11007536  -37.07585290
     atom   24 type  1   force =     0.11935132    0.52853604    2.15120135
     atom   25 type  2   force =     0.25102261    0.27475538   38.84485400
     atom   26 type  2   force =     0.04960961   -0.06647961  -37.36738949
     atom   27 type  1   force =     0.25467176   -0.04855230    0.70387726
     atom   28 type  2   force =    -0.12367177    0.42010294   38.13139192
     atom   29 type  2   force =     0.03768960   -0.13265858  -37.61377416
     atom   30 type  1   force =    -0.09221956   -0.74423021    1.57131386
     atom   31 type  2   force =     0.83021415   -0.30147832   38.34256655
     atom   32 type  2   force =    -0.18467799    0.05440328  -37.90152283
     atom   33 type  1   force =     1.36527647   -0.20983501    3.53924687
     atom   34 type  2   force =    -0.52528436   -0.36534565   38.56351288
     atom   35 type  2   force =     0.16379110    0.17492440  -37.55688908
     atom   36 type  3   force =    -0.58419896   -0.37357736    8.31182028
     The local contribution  to forces
     atom    1 type  1   force =     0.31735655   -0.87879456   -2.07615462
     atom    2 type  2   force =     0.30202947   -0.10371619  -38.51668772
     atom    3 type  2   force =    -0.13019308   -0.04813930   37.39625449
     atom    4 type  1   force =     0.26344801   -0.31574867   -0.24085603
     atom    5 type  2   force =     0.79605080   -1.06571111  -38.18796236
     atom    6 type  2   force =    -0.05108129    0.25573068   37.76686614
     atom    7 type  1   force =     3.24015482    2.09848585   -0.81322723
     atom    8 type  2   force =     1.41415663   -0.05504356  -37.88060973
     atom    9 type  2   force =    -0.29349561    0.12319561   37.94310371
     atom   10 type  1   force =     0.39209003    0.24525304   -2.12106598
     atom   11 type  2   force =     0.69236769    1.44177060  -38.06913245
     atom   12 type  2   force =    -0.14599408   -0.14735485   38.24499543
     atom   13 type  1   force =    -0.25706848   -0.65156131   -2.75192830
     atom   14 type  2   force =    -0.00327884    0.21976129  -38.06461686
     atom   15 type  2   force =     0.22892097   -0.06064374   37.46745220
     atom   16 type  1   force =    -0.13395052   -3.45655394   -2.98982992
     atom   17 type  2   force =    -0.88113595   -0.96438320  -38.14735827
     atom   18 type  2   force =     0.12825167    0.35554438   37.45686576
     atom   19 type  1   force =    -3.79007201    1.10618362   -4.41828706
     atom   20 type  2   force =     0.13473274   -0.03483624   37.99637480
     atom   21 type  1   force =     1.38526509    0.81114532    0.33716907
     atom   22 type  2   force =    -2.11465876    0.49621648  -37.91904459
     atom   23 type  2   force =     0.25295395   -0.09504183   36.82703771
     atom   24 type  1   force =    -0.11673012   -0.54616199   -2.15246434
     atom   25 type  2   force =    -0.25111161   -0.25888425  -38.60603116
     atom   26 type  2   force =    -0.05024518    0.07400061   37.12291451
     atom   27 type  1   force =    -0.24834948    0.04248403   -0.70418427
     atom   28 type  2   force =     0.12129728   -0.40794201  -37.87908679
     atom   29 type  2   force =    -0.03694571    0.14066588   37.36623559
     atom   30 type  1   force =     0.09221950    0.72568139   -1.57911848
     atom   31 type  2   force =    -0.81932060    0.29736922  -38.11008607
     atom   32 type  2   force =     0.18121987   -0.04235846   37.65430742
     atom   33 type  1   force =    -1.36378549    0.20414349   -3.53990034
     atom   34 type  2   force =     0.52688227    0.37590707  -38.33210667
     atom   35 type  2   force =    -0.15976344   -0.16540654   37.31159192
     atom   36 type  3   force =     0.55082486    0.36152417   -8.27014213
     The core correction contribution to forces
     atom    1 type  1   force =     0.00000000    0.00000000    0.00000000
     atom    2 type  2   force =    -0.00017185    0.00042054    0.02072856
     atom    3 type  2   force =     0.00017818    0.00048841   -0.02091140
     atom    4 type  1   force =     0.00000000    0.00000000    0.00000000
     atom    5 type  2   force =    -0.00023997    0.00078808    0.02027182
     atom    6 type  2   force =    -0.00005738   -0.00017025   -0.02080547
     atom    7 type  1   force =     0.00000000    0.00000000    0.00000000
     atom    8 type  2   force =    -0.00081020    0.00014831    0.02062830
     atom    9 type  2   force =     0.00066829    0.00036605   -0.02098136
     atom   10 type  1   force =     0.00000000    0.00000000    0.00000000
     atom   11 type  2   force =    -0.00078247   -0.00003663    0.02000548
     atom   12 type  2   force =     0.00089198    0.00067834   -0.02091058
     atom   13 type  1   force =     0.00000000    0.00000000    0.00000000
     atom   14 type  2   force =     0.00003066   -0.00044889    0.02044463
     atom   15 type  2   force =    -0.00013976    0.00084958   -0.02078076
     atom   16 type  1   force =     0.00000000    0.00000000    0.00000000
     atom   17 type  2   force =     0.00014487    0.00096941    0.02030849
     atom   18 type  2   force =     0.00003313   -0.00019013   -0.02071815
     atom   19 type  1   force =     0.00000000    0.00000000    0.00000000
     atom   20 type  2   force =    -0.00043166    0.00060839   -0.02114211
     atom   21 type  1   force =     0.00000000    0.00000000    0.00000000
     atom   22 type  2   force =     0.01608210    0.00529331    0.00131274
     atom   23 type  2   force =    -0.00069335    0.00059446   -0.02108845
     atom   24 type  1   force =     0.00000000    0.00000000    0.00000000
     atom   25 type  2   force =    -0.00006236    0.00097188    0.02039860
     atom   26 type  2   force =    -0.00004885    0.00018881   -0.02086459
     atom   27 type  1   force =     0.00000000    0.00000000    0.00000000
     atom   28 type  2   force =    -0.00021896    0.00084973    0.02106413
     atom   29 type  2   force =     0.00005858    0.00023780   -0.02081053
     atom   30 type  1   force =     0.00000000    0.00000000    0.00000000
     atom   31 type  2   force =     0.00021202   -0.00032411    0.02007345
     atom   32 type  2   force =    -0.00044566    0.00071869   -0.02094874
     atom   33 type  1   force =     0.00000000    0.00000000    0.00000000
     atom   34 type  2   force =    -0.00037306    0.00048057    0.02004288
     atom   35 type  2   force =     0.00032591    0.00064300   -0.02089940
     atom   36 type  3   force =     0.00000000    0.00000000    0.00000000
     The Hubbard contrib.    to forces
     atom    1 type  1   force =     0.00000000    0.00000000    0.00000000
     atom    2 type  2   force =     0.00000000    0.00000000    0.00000000
     atom    3 type  2   force =     0.00000000    0.00000000    0.00000000
     atom    4 type  1   force =     0.00000000    0.00000000    0.00000000
     atom    5 type  2   force =     0.00000000    0.00000000    0.00000000
     atom    6 type  2   force =     0.00000000    0.00000000    0.00000000
     atom    7 type  1   force =     0.00000000    0.00000000    0.00000000
     atom    8 type  2   force =     0.00000000    0.00000000    0.00000000
     atom    9 type  2   force =     0.00000000    0.00000000    0.00000000
     atom   10 type  1   force =     0.00000000    0.00000000    0.00000000
     atom   11 type  2   force =     0.00000000    0.00000000    0.00000000
     atom   12 type  2   force =     0.00000000    0.00000000    0.00000000
     atom   13 type  1   force =     0.00000000    0.00000000    0.00000000
     atom   14 type  2   force =     0.00000000    0.00000000    0.00000000
     atom   15 type  2   force =     0.00000000    0.00000000    0.00000000
     atom   16 type  1   force =     0.00000000    0.00000000    0.00000000
     atom   17 type  2   force =     0.00000000    0.00000000    0.00000000
     atom   18 type  2   force =     0.00000000    0.00000000    0.00000000
     atom   19 type  1   force =     0.00000000    0.00000000    0.00000000
     atom   20 type  2   force =     0.00000000    0.00000000    0.00000000
     atom   21 type  1   force =     0.00000000    0.00000000    0.00000000
     atom   22 type  2   force =     0.00000000    0.00000000    0.00000000
     atom   23 type  2   force =     0.00000000    0.00000000    0.00000000
     atom   24 type  1   force =     0.00000000    0.00000000    0.00000000
     atom   25 type  2   force =     0.00000000    0.00000000    0.00000000
     atom   26 type  2   force =     0.00000000    0.00000000    0.00000000
     atom   27 type  1   force =     0.00000000    0.00000000    0.00000000
     atom   28 type  2   force =     0.00000000    0.00000000    0.00000000
     atom   29 type  2   force =     0.00000000    0.00000000    0.00000000
     atom   30 type  1   force =     0.00000000    0.00000000    0.00000000
     atom   31 type  2   force =     0.00000000    0.00000000    0.00000000
     atom   32 type  2   force =     0.00000000    0.00000000    0.00000000
     atom   33 type  1   force =     0.00000000    0.00000000    0.00000000
     atom   34 type  2   force =     0.00000000    0.00000000    0.00000000
     atom   35 type  2   force =     0.00000000    0.00000000    0.00000000
     atom   36 type  3   force =     0.00000000    0.00000000    0.00000000
     The SCF correction term to forces
     atom    1 type  1   force =    -0.00001621    0.00003857    0.00002160
     atom    2 type  2   force =     0.00000331   -0.00000777    0.00002931
     atom    3 type  2   force =    -0.00000298    0.00000228   -0.00000929
     atom    4 type  1   force =    -0.00000914    0.00000607    0.00002229
     atom    5 type  2   force =    -0.00001041    0.00000852    0.00000903
     atom    6 type  2   force =    -0.00000528    0.00000685    0.00001461
     atom    7 type  1   force =    -0.00000565   -0.00001086    0.00002442
     atom    8 type  2   force =     0.00000788   -0.00000346    0.00001429
     atom    9 type  2   force =     0.00001186   -0.00000388    0.00000180
     atom   10 type  1   force =     0.00002250   -0.00003085    0.00004637
     atom   11 type  2   force =     0.00000368   -0.00000086    0.00002052
     atom   12 type  2   force =     0.00000285   -0.00001494    0.00000008
     atom   13 type  1   force =     0.00000709    0.00000722    0.00004551
     atom   14 type  2   force =    -0.00001536    0.00000572    0.00002391
     atom   15 type  2   force =    -0.00000716    0.00001577    0.00000554
     atom   16 type  1   force =    -0.00001530   -0.00000715    0.00003007
     atom   17 type  2   force =     0.00000548    0.00001063    0.00001149
     atom   18 type  2   force =     0.00000583    0.00001262    0.00000974
     atom   19 type  1   force =    -0.00002308   -0.00001795    0.00004463
     atom   20 type  2   force =    -0.00000056   -0.00001312    0.00000546
     atom   21 type  1   force =    -0.00001641   -0.00000404    0.00005125
     atom   22 type  2   force =    -0.00001497   -0.00000637    0.00002833
     atom   23 type  2   force =    -0.00000539   -0.00000686    0.00000760
     atom   24 type  1   force =     0.00003201    0.00001931    0.00004031
     atom   25 type  2   force =     0.00001314   -0.00000714    0.00001620
     atom   26 type  2   force =     0.00000214   -0.00000580    0.00001103
     atom   27 type  1   force =    -0.00000089    0.00002359    0.00002960
     atom   28 type  2   force =     0.00001031    0.00000974    0.00001005
     atom   29 type  2   force =     0.00000788    0.00001412    0.00000212
     atom   30 type  1   force =     0.00000586   -0.00003163    0.00002758
     atom   31 type  2   force =     0.00000405   -0.00000449    0.00000515
     atom   32 type  2   force =    -0.00000414   -0.00001117    0.00001265
     atom   33 type  1   force =     0.00000150    0.00000431    0.00004741
     atom   34 type  2   force =     0.00000918    0.00000485    0.00001049
     atom   35 type  2   force =    -0.00000232    0.00000442    0.00001120
     atom   36 type  3   force =     0.00000171    0.00000039    0.00000067

     Total force =     0.005580     Total SCF correction =     0.000181
     Energy error            =      6.3E-05 Ry
     Gradient error          =      2.0E-03 Ry/Bohr

     bfgs converged in  20 scf cycles and  19 bfgs steps
     (criteria: energy <  1.0E-04 Ry, force <  1.0E-02 Ry/Bohr)

     End of BFGS Geometry Optimization

     Final energy             =   -2205.5867145977 Ry

     File ./MoS2-V-O.bfgs deleted, as requested
Begin final coordinates

ATOMIC_POSITIONS (angstrom)
Mo            6.5574266673        1.7729295898        2.7505151792
S             8.1208231379        0.8571182066        4.3600089661
S             8.1357993852        0.8551172684        1.1674197478
Mo            8.1126068143        4.5037448821        2.7096636355
S             6.5239456352        3.6717463390        4.3180982300
S             6.5396783247        3.5857448790        1.1127732848
Mo            6.5265887365        7.2105268099        2.6408145614
S             8.0576158818        6.3177351455        4.2965334639
S             8.1438805745        6.3286919299        1.0975043511
Mo            8.1298965587        9.9486067808        2.7570976745
S             6.5190268416        8.9657743901        4.3051112112
S             6.5955398346        9.0547266048        1.0946164315
Mo            3.4247385970        1.7444740439        2.7684101489
S             5.0021544267        0.8055567997        4.3302128654
S             4.9973649221        0.8476498801        1.1518161829
Mo            4.9875877483        4.5482829533        2.6835959438
S             3.4564077007        3.6516359916        4.3247275500
S             3.4301302699        3.5647731163        1.1354775535
Mo            3.4368586171        7.1515016138        2.7195730765
S             4.9651565166        6.3215637677        1.0679703245
Mo            5.0203387429        9.9138451290        2.6898520348
S             3.3812105160        8.8705309076        4.4621953182
S             3.3945776035        9.0153119228        1.1755893175
Mo            0.2603890019        1.7434464105        2.7682065602
S             1.8469360496        0.8557376091        4.3804419634
S             1.8479558594        0.8303790568        1.1887234456
Mo            1.8535202723        4.4893501594        2.7245518920
S             0.2471451786        3.6051784740        4.3180579293
S             0.2645199275        3.5608677737        1.1520140509
Mo            0.2496490251        7.2203772392        2.7402917221
S             1.8617534244        6.2781287469        4.3306955548
S             1.8406313330        6.3204751119        1.1273805282
Mo            1.8414678620        9.9368515186        2.7935255630
S             0.2353497465        9.0369015440        4.3559075981
S             0.2810673581        9.0562082207        1.1746634951
H             2.4841101426        8.5397111497        5.4807241812
End final coordinates



     Writing all to output data dir ./MoS2-V-O.save/
 
     init_run     :      2.36s CPU      2.66s WALL (       1 calls)
     electrons    :   1693.66s CPU   1898.47s WALL (      20 calls)
     update_pot   :     26.85s CPU     28.26s WALL (      19 calls)
     forces       :     27.44s CPU     32.23s WALL (      20 calls)

     Called by init_run:
     wfcinit      :      0.37s CPU      0.43s WALL (       1 calls)
     potinit      :      1.31s CPU      1.44s WALL (       1 calls)
     hinit0       :      0.16s CPU      0.20s WALL (       1 calls)

     Called by electrons:
     c_bands      :    218.25s CPU    222.41s WALL (     172 calls)
     sum_band     :     50.02s CPU     68.26s WALL (     172 calls)
     v_of_rho     :     74.28s CPU     92.22s WALL (     179 calls)
     newd         :     25.24s CPU     43.99s WALL (     179 calls)
     mix_rho      :   1334.42s CPU   1480.74s WALL (     172 calls)

     Called by c_bands:
     init_us_2    :      3.62s CPU      3.94s WALL (     345 calls)
     init_us_2:cp :      3.62s CPU      3.94s WALL (     345 calls)
     regterg      :    205.42s CPU    209.24s WALL (     172 calls)

     Called by *egterg:
     rdiaghg      :     15.83s CPU     16.00s WALL (     890 calls)
     h_psi        :    113.93s CPU    115.10s WALL (     923 calls)
     s_psi        :     14.01s CPU     14.06s WALL (     923 calls)
     g_psi        :      1.15s CPU      1.16s WALL (     750 calls)

     Called by h_psi:
     h_psi:calbec :     15.75s CPU     15.86s WALL (     923 calls)
     vloc_psi     :     81.95s CPU     82.84s WALL (     923 calls)
     add_vuspsi   :     13.96s CPU     14.09s WALL (     923 calls)

     General routines
     calbec       :     22.57s CPU     22.70s WALL (    1175 calls)
     fft          :     46.47s CPU     54.94s WALL (   12091 calls)
     ffts         :    601.39s CPU    742.90s WALL (  326996 calls)
     fftw         :     70.68s CPU     71.37s WALL (  104026 calls)
     interpolate  :      1.32s CPU      1.56s WALL (     179 calls)
 
     Parallel routines
 
     PWSCF        :  29m14.11s CPU  32m48.42s WALL

 
   This run was terminated on:   8:15: 1   4Nov2023            

=------------------------------------------------------------------------------=
   JOB DONE.
=------------------------------------------------------------------------------=
