
     Program PWSCF v.7.2 starts on  1Nov2023 at 16:23: 2 

     This program is part of the open-source Quantum ESPRESSO suite
     for quantum simulation of materials; please cite
         "P. Giannozzi et al., J. Phys.:Condens. Matter 21 395502 (2009);
         "P. Giannozzi et al., J. Phys.:Condens. Matter 29 465901 (2017);
         "P. Giannozzi et al., J. Chem. Phys. 152 154105 (2020);
          URL http://www.quantum-espresso.org", 
     in publications or presentations arising from this work. More details at
     http://www.quantum-espresso.org/quote

     Parallel version (MPI & OpenMP), running on      48 processor cores
     Number of MPI processes:                48
     Threads/MPI process:                     1

     MPI processes distributed on     1 nodes
     77387 MiB available memory on the printing compute node when the environment starts
 
     Waiting for input...
     Reading input from standard input
Warning: card &CELL ignored
Warning: card CELL_DYNAMICS = 'BFGS', ignored
Warning: card CELL_DOFREE = '2DXY' ignored
Warning: card / ignored

     Current dimensions of program PWSCF are:
     Max number of different atomic species (ntypx) = 10
     Max number of k-points (npk) =  40000
     Max angular momentum in pseudopotentials (lmaxx) =  4
     file O.pbe-n-kjpaw_psl.0.1.UPF: wavefunction(s)  2P renormalized

     IMPORTANT: XC functional enforced from input :
     Exchange-correlation= RVV10
                           (   1   4  13   4  26   0   0)
     Any further DFT definition will be discarded
     Please, verify this is what you really want


     gamma-point specific algorithms are used
     signal trapping enabled: kill the code with -SIGUSR1 to stop cleanly the simulation 
 
     R & G space division:  proc/nbgrp/npool/nimage =      48
     Subspace diagonalization in iterative solution of the eigenvalue problem:
     one sub-group per band group will be used
     scalapack distributed-memory algorithm (size of sub-group:  2*  2 procs)

 
     Parallelization info
     --------------------
     sticks:   dense  smooth     PW     G-vecs:    dense   smooth      PW
     Min         396     194     47               101632    35090    4376
     Max         398     196     50               101674    35128    4410
     Sum       19091    9389   2349              4879585  1685513  210763
 
     Using Slab Decomposition
 


     bravais-lattice index     =            0
     lattice parameter (alat)  =      17.8707  a.u.
     unit-cell volume          =   17436.2743 (a.u.)^3
     number of atoms/cell      =           36
     number of atomic types    =            3
     number of electrons       =       312.00
     number of Kohn-Sham states=          187
     kinetic-energy cutoff     =      80.0000  Ry
     charge density cutoff     =     650.0000  Ry
     scf convergence threshold =      1.0E-06
     mixing beta               =       0.7000
     number of iterations used =            8  local-TF  mixing
     energy convergence thresh.=      1.0E-04
     force convergence thresh. =      1.0E-02
     Exchange-correlation= RVV10
                           (   1   4  13   4  26   0   0)
     nstep                     =          200


     celldm(1)=  17.870686  celldm(2)=   0.000000  celldm(3)=   0.000000
     celldm(4)=   0.000000  celldm(5)=   0.000000  celldm(6)=   0.000000

     crystal axes: (cart. coord. in units of alat)
               a(1) = (   1.000000   0.000000   0.000000 )  
               a(2) = (   0.000000   1.155671   0.000000 )  
               a(3) = (   0.000000   0.000000   2.643601 )  

     reciprocal axes: (cart. coord. in units 2 pi/alat)
               b(1) = (  1.000000  0.000000  0.000000 )  
               b(2) = (  0.000000  0.865298  0.000000 )  
               b(3) = (  0.000000  0.000000  0.378272 )  


     PseudoPot. # 1 for Mo read from file:
     ../pseudo/Mo_ONCV_PBE-1.0.oncvpsp.upf
     MD5 check sum: 1b5d28e075c9ccadda658a603575cd1f
     Pseudo is Norm-conserving, Zval = 14.0
     Generated using ONCVPSP code by D. R. Hamann
     Using radial grid of 1526 points,  6 beta functions with: 
                l(1) =   0
                l(2) =   0
                l(3) =   1
                l(4) =   1
                l(5) =   2
                l(6) =   2

     PseudoPot. # 2 for S  read from file:
     ../pseudo/s_pbe_v1.4.uspp.F.UPF
     MD5 check sum: 88d86576ff6df21479756cfb9bdac1df
     Pseudo is Ultrasoft + core correction, Zval =  6.0
     Generated by new atomic code, or converted to UPF format
     Using radial grid of  907 points,  6 beta functions with: 
                l(1) =   0
                l(2) =   0
                l(3) =   1
                l(4) =   1
                l(5) =   2
                l(6) =   2
     Q(r) pseudized with  8 coefficients,  rinner =    1.300   1.300   1.300
                                                       1.300   1.300

     PseudoPot. # 3 for O  read from file:
     ../pseudo/O.pbe-n-kjpaw_psl.0.1.UPF
     MD5 check sum: 0234752ac141de4415c5fc33072bef88
     Pseudo is Projector augmented-wave + core cor, Zval =  6.0
     Generated using "atomic" code by A. Dal Corso  v.5.0.99 svn rev. 10869
     Shape of augmentation charge: BESSEL
     Using radial grid of 1095 points,  4 beta functions with: 
                l(1) =   0
                l(2) =   0
                l(3) =   1
                l(4) =   1
     Q(r) pseudized with 0 coefficients 


     atomic species   valence    mass     pseudopotential
        Mo            14.00    95.94000     Mo( 1.00)
        S              6.00    32.06500     S ( 1.00)
        O              6.00    15.99940     O ( 1.00)

     No symmetry found



   Cartesian axes

     site n.     atom                  positions (alat units)
         1           Mo  tau(   1) = (   0.6952221   0.1890506   0.2985846  )
         2           S   tau(   2) = (   0.8646417   0.0856217   0.4689279  )
         3           S   tau(   3) = (   0.8663890   0.0857843   0.1351291  )
         4           Mo  tau(   4) = (   0.8560186   0.4753274   0.2873942  )
         5           S   tau(   5) = (   0.6873294   0.3936244   0.4596353  )
         6           S   tau(   6) = (   0.6929804   0.3713468   0.1185692  )
         7           Mo  tau(   7) = (   0.6862796   0.7633098   0.2825370  )
         8           S   tau(   8) = (   0.8545980   0.6708292   0.4486168  )
         9           S   tau(   9) = (   0.8545123   0.6666874   0.1146125  )
        10           Mo  tau(  10) = (   0.8629403   1.0471007   0.3006803  )
        11           S   tau(  11) = (   0.6868280   0.9456650   0.4634891  )
        12           S   tau(  12) = (   0.6998113   0.9568511   0.1205389  )
        13           Mo  tau(  13) = (   0.3618216   0.1847309   0.2935964  )
        14           S   tau(  14) = (   0.5260962   0.0863870   0.4600448  )
        15           S   tau(  15) = (   0.5348379   0.0894875   0.1297123  )
        16           Mo  tau(  16) = (   0.5265817   0.4772436   0.2784130  )
        17           S   tau(  17) = (   0.3624753   0.3882513   0.4525556  )
        18           S   tau(  18) = (   0.3635411   0.3752055   0.1119148  )
        19           Mo  tau(  19) = (   0.3652268   0.7630864   0.2781795  )
        20           S   tau(  20) = (   0.5269494   0.6690381   0.1096838  )
        21           Mo  tau(  21) = (   0.5300192   1.0470394   0.2900995  )
        22           S   tau(  22) = (   0.3670346   0.9457522   0.4574073  )
        23           S   tau(  23) = (   0.3604225   0.9585725   0.1159032  )
        24           Mo  tau(  24) = (   0.0313099   0.1847895   0.3013130  )
        25           S   tau(  25) = (   0.1956761   0.0838230   0.4650863  )
        26           S   tau(  26) = (   0.1967693   0.0903508   0.1278874  )
        27           Mo  tau(  27) = (   0.1967578   0.4753919   0.2813011  )
        28           S   tau(  28) = (   0.0287851   0.3864324   0.4586755  )
        29           S   tau(  29) = (   0.0244514   0.3729871   0.1239344  )
        30           Mo  tau(  30) = (   0.0286728   0.7631204   0.2856894  )
        31           S   tau(  31) = (   0.2011512   0.6675435   0.4465001  )
        32           S   tau(  32) = (   0.1969214   0.6672839   0.1104564  )
        33           Mo  tau(  33) = (   0.1950294   1.0511147   0.2932237  )
        34           S   tau(  34) = (   0.0312912   0.9612169   0.4667423  )
        35           S   tau(  35) = (   0.0292670   0.9563028   0.1216485  )
        36           O   tau(  36) = (   0.3333333   0.5136314   0.5650415  )

     number of k points=     1  Gaussian smearing, width (Ry)=  0.0100
                       cart. coord. in units 2pi/alat
        k(    1) = (   0.0000000   0.0000000   0.0000000), wk =   2.0000000

     Dense  grid:  2439793 G-vectors     FFT dimensions: ( 150, 180, 384)

     Smooth grid:   842757 G-vectors     FFT dimensions: ( 108, 120, 270)

     Estimated max dynamical RAM per process >     269.22 MB

     Estimated total dynamical RAM >      12.62 GB

     Initial potential from superposition of free atoms

     starting charge     311.9873, renormalised to     312.0000

     negative rho (up, down):  2.749E-04 0.000E+00


---------------------------------------------------------------------------------
Carrying out rVV10 run using the following parameters:
Nqs =      20    Nr_points =    1024   r_max =   100.000
b_value =  6.30000    beta =  0.00901
     q_mesh =  0.00010000  0.00030000  0.00058939  0.00100810
               0.00161396  0.00249058  0.00375900  0.00559430
               0.00824984  0.01209221  0.01765183  0.02569619
               0.03733578  0.05417739  0.07854596  0.11380545
               0.16482331  0.23864234  0.34545298  0.50000000

Gradients computed in Reciprocal space

---------------------------------------------------------------------------------


     Starting wfcs are  216 randomized atomic wfcs
     Checking if some PAW data can be deallocated... 

     total cpu time spent up to now is        5.3 secs

     Self-consistent Calculation

     iteration #  1     ecut=    80.00 Ry     beta= 0.70
     Davidson diagonalization with overlap
     ethr =  1.00E-02,  avg # of iterations =  2.0

     Threshold (ethr) on eigenvalues was too large:
     Diagonalizing with lowered threshold

     Davidson diagonalization with overlap
     ethr =  4.38E-04,  avg # of iterations =  4.0

     negative rho (up, down):  3.613E-08 0.000E+00

     total cpu time spent up to now is       19.5 secs

     total energy              =   -2246.27345690 Ry
     estimated scf accuracy    <       1.61773593 Ry

     iteration #  2     ecut=    80.00 Ry     beta= 0.70
     Davidson diagonalization with overlap
     ethr =  5.19E-04,  avg # of iterations =  3.0

     total cpu time spent up to now is       24.4 secs

     total energy              =   -2246.26950051 Ry
     estimated scf accuracy    <       0.59738946 Ry

     iteration #  3     ecut=    80.00 Ry     beta= 0.70
     Davidson diagonalization with overlap
     ethr =  1.91E-04,  avg # of iterations =  2.0

     total cpu time spent up to now is       28.3 secs

     total energy              =   -2246.26695733 Ry
     estimated scf accuracy    <       0.16220310 Ry

     iteration #  4     ecut=    80.00 Ry     beta= 0.70
     Davidson diagonalization with overlap
     ethr =  5.20E-05,  avg # of iterations = 20.0

     total cpu time spent up to now is       33.3 secs

     total energy              =   -2246.29696296 Ry
     estimated scf accuracy    <       0.02759902 Ry

     iteration #  5     ecut=    80.00 Ry     beta= 0.70
     Davidson diagonalization with overlap
     ethr =  8.85E-06,  avg # of iterations =  4.0

     total cpu time spent up to now is       37.2 secs

     total energy              =   -2246.29717523 Ry
     estimated scf accuracy    <       0.01621175 Ry

     iteration #  6     ecut=    80.00 Ry     beta= 0.70
     Davidson diagonalization with overlap
     ethr =  5.20E-06,  avg # of iterations =  2.0

     total cpu time spent up to now is       41.0 secs

     total energy              =   -2246.29647770 Ry
     estimated scf accuracy    <       0.01013729 Ry

     iteration #  7     ecut=    80.00 Ry     beta= 0.70
     Davidson diagonalization with overlap
     ethr =  3.25E-06,  avg # of iterations =  2.0

     total cpu time spent up to now is       44.7 secs

     total energy              =   -2246.29559031 Ry
     estimated scf accuracy    <       0.00604039 Ry

     iteration #  8     ecut=    80.00 Ry     beta= 0.70
     Davidson diagonalization with overlap
     ethr =  1.94E-06,  avg # of iterations = 11.0

     negative rho (up, down):  1.962E-03 0.000E+00

     total cpu time spent up to now is       51.2 secs

     total energy              =   -2246.29495094 Ry
     estimated scf accuracy    <       0.00362794 Ry

     iteration #  9     ecut=    80.00 Ry     beta= 0.70
     Davidson diagonalization with overlap
     ethr =  1.16E-06,  avg # of iterations =  2.0

     negative rho (up, down):  2.013E-02 0.000E+00

     total cpu time spent up to now is       57.1 secs

     total energy              =   -2246.29471171 Ry
     estimated scf accuracy    <       0.00211873 Ry

     iteration # 10     ecut=    80.00 Ry     beta= 0.70
     Davidson diagonalization with overlap
     ethr =  6.79E-07,  avg # of iterations =  2.0

     negative rho (up, down):  2.247E-02 0.000E+00

     total cpu time spent up to now is       63.5 secs

     total energy              =   -2246.29469610 Ry
     estimated scf accuracy    <       0.00099848 Ry

     iteration # 11     ecut=    80.00 Ry     beta= 0.70
     Davidson diagonalization with overlap
     ethr =  3.20E-07,  avg # of iterations =  2.0

     negative rho (up, down):  1.450E-02 0.000E+00

     total cpu time spent up to now is       70.3 secs

     total energy              =   -2246.29471680 Ry
     estimated scf accuracy    <       0.00022677 Ry

     iteration # 12     ecut=    80.00 Ry     beta= 0.70
     Davidson diagonalization with overlap
     ethr =  7.27E-08,  avg # of iterations =  5.0

     negative rho (up, down):  3.398E-03 0.000E+00

     total cpu time spent up to now is       78.9 secs

     total energy              =   -2246.29474945 Ry
     estimated scf accuracy    <       0.00004143 Ry

     iteration # 13     ecut=    80.00 Ry     beta= 0.70
     Davidson diagonalization with overlap
     ethr =  1.33E-08,  avg # of iterations =  5.0

     negative rho (up, down):  9.507E-04 0.000E+00

     total cpu time spent up to now is       87.4 secs

     total energy              =   -2246.29476710 Ry
     estimated scf accuracy    <       0.00000952 Ry

     iteration # 14     ecut=    80.00 Ry     beta= 0.70
     Davidson diagonalization with overlap
     ethr =  3.05E-09,  avg # of iterations =  5.0

     negative rho (up, down):  4.052E-04 0.000E+00

     total cpu time spent up to now is       96.8 secs

     total energy              =   -2246.29477211 Ry
     estimated scf accuracy    <       0.00000290 Ry

     iteration # 15     ecut=    80.00 Ry     beta= 0.70
     Davidson diagonalization with overlap
     ethr =  9.30E-10,  avg # of iterations =  4.0

     negative rho (up, down):  2.915E-04 0.000E+00

     total cpu time spent up to now is      105.2 secs

     total energy              =   -2246.29477542 Ry
     estimated scf accuracy    <       0.00000116 Ry

     iteration # 16     ecut=    80.00 Ry     beta= 0.70
     Davidson diagonalization with overlap
     ethr =  3.72E-10,  avg # of iterations =  2.0

     negative rho (up, down):  2.021E-04 0.000E+00

     total cpu time spent up to now is      108.6 secs

     End of self-consistent calculation

          k = 0.0000 0.0000 0.0000 (105382 PWs)   bands (ev):

   -63.0536 -62.9912 -62.9747 -62.9630 -62.9510 -62.9319 -62.9049 -62.8780
   -62.8347 -62.8285 -62.8214 -62.7981 -37.3549 -37.3007 -37.2761 -37.2562
   -37.2362 -37.2287 -37.2101 -37.1946 -37.1854 -37.1707 -37.1601 -37.1468
   -37.1366 -37.1280 -37.1211 -37.1166 -37.1042 -37.0922 -37.0882 -37.0637
   -37.0432 -37.0328 -37.0140 -37.0053 -37.0030 -36.9928 -36.9828 -36.9756
   -36.9712 -36.9579 -36.9458 -36.9247 -36.8945 -36.8880 -36.8295 -36.7747
   -21.4357 -16.0339 -15.2787 -15.2180 -15.0371 -14.9814 -14.8691 -14.7201
   -14.5481 -14.5010 -14.4920 -14.4464 -14.4358 -14.4098 -14.3223 -14.2810
   -14.2051 -14.1869 -14.1329 -14.0495 -13.9422 -13.9328 -13.8955 -13.8314
    -8.1064  -7.7940  -7.6345  -7.5807  -7.4483  -7.3684  -7.3190  -7.2822
    -7.2657  -7.0233  -6.9857  -6.8583  -6.8452  -6.7352  -6.6442  -6.6364
    -6.5915  -6.5172  -6.4020  -6.3459  -6.2202  -6.0800  -6.0253  -5.9675
    -5.8851  -5.8508  -5.8441  -5.8081  -5.7462  -5.7384  -5.6729  -5.6421
    -5.6069  -5.5380  -5.4634  -5.3131  -5.2573  -5.2040  -5.1602  -5.0843
    -5.0617  -5.0287  -5.0100  -4.8752  -4.7664  -4.5689  -4.4759  -4.4088
    -4.3321  -4.3067  -4.1949  -4.1413  -4.0861  -3.9808  -3.9400  -3.8602
    -3.8135  -3.7910  -3.7335  -3.6728  -3.6349  -3.6126  -3.5656  -3.5433
    -3.4942  -3.4734  -3.3121  -3.2592  -3.1694  -3.0440  -2.9474  -2.9161
    -2.8912  -2.8259  -2.8019  -2.7653  -2.7335  -2.7041  -2.6777  -2.3794
    -2.2697  -2.0727  -1.9594  -1.7561  -1.0724  -0.8715  -0.6157  -0.2820
    -0.2139  -0.1717  -0.1499  -0.0090   0.0434   0.0722   0.1427   0.1496
     0.1785   0.3091   0.3411   0.4115   0.4451   0.4782   0.5121   0.5332
     0.6147   0.6646   0.6814   0.6949   0.7247   0.8050   0.8092   0.8548
     0.8912   0.9711   1.1115

     the Fermi energy is    -1.4142 ev

!    total energy              =   -2246.29477484 Ry
     estimated scf accuracy    <       0.00000038 Ry
     smearing contrib. (-TS)   =      -0.00002043 Ry
     internal energy E=F+TS    =   -2246.29475441 Ry

     The total energy is F=E-TS. E is the sum of the following terms:
     one-electron contribution =  -18446.50146896 Ry
     hartree contribution      =    9211.14643767 Ry
     xc contribution           =    -392.03122701 Ry
     ewald contribution        =    7390.95667923 Ry
     one-center paw contrib.   =      -9.86517534 Ry

     convergence has been achieved in  16 iterations

     negative rho (up, down):  2.021E-04 0.000E+00

     Forces acting on atoms (cartesian axes, Ry/au):

     atom    1 type  1   force =     0.01095635   -0.02207758    0.00699922
     atom    2 type  2   force =    -0.01453093    0.01648233    0.00132100
     atom    3 type  2   force =    -0.01149000    0.00881556   -0.00282146
     atom    4 type  1   force =     0.00494450   -0.00008349   -0.00441869
     atom    5 type  2   force =    -0.00341004   -0.00541310   -0.00321785
     atom    6 type  2   force =     0.00142396    0.00998385    0.00230062
     atom    7 type  1   force =     0.00811678   -0.01676680   -0.01392655
     atom    8 type  2   force =     0.00116346   -0.00269643    0.01864770
     atom    9 type  2   force =     0.01281314    0.00582987    0.01110525
     atom   10 type  1   force =    -0.01207119    0.01134821   -0.02801033
     atom   11 type  2   force =     0.00409174   -0.00406606   -0.00867423
     atom   12 type  2   force =    -0.00161387    0.00175099    0.00912826
     atom   13 type  1   force =    -0.00233070   -0.02494334    0.00273925
     atom   14 type  2   force =     0.00942656   -0.00344013    0.00970468
     atom   15 type  2   force =    -0.01573045    0.00449200   -0.01060563
     atom   16 type  1   force =     0.00568478    0.01339649    0.00266690
     atom   17 type  2   force =    -0.00719100    0.11933209    0.01378124
     atom   18 type  2   force =    -0.00456603   -0.00596432    0.01349493
     atom   19 type  1   force =    -0.00051442   -0.01451558   -0.00501135
     atom   20 type  2   force =     0.00096960   -0.00385791    0.00207355
     atom   21 type  1   force =    -0.00555132    0.00832641    0.00174250
     atom   22 type  2   force =    -0.00271339   -0.00140197   -0.00230056
     atom   23 type  2   force =     0.00105281    0.00487803    0.00805277
     atom   24 type  1   force =    -0.00740631   -0.00022463   -0.02281483
     atom   25 type  2   force =     0.01366134    0.01184180    0.00649574
     atom   26 type  2   force =    -0.00962417   -0.00066132   -0.00696276
     atom   27 type  1   force =    -0.01966512   -0.01061205   -0.03519295
     atom   28 type  2   force =     0.00153664   -0.00245204   -0.00447958
     atom   29 type  2   force =     0.00116355    0.00022520   -0.00221278
     atom   30 type  1   force =    -0.00674233    0.02039295   -0.01136651
     atom   31 type  2   force =    -0.00052204    0.00773085   -0.00064919
     atom   32 type  2   force =    -0.00689708    0.00815439    0.00685391
     atom   33 type  1   force =     0.01332807   -0.00691727   -0.00723782
     atom   34 type  2   force =     0.00331736   -0.04388496   -0.00883393
     atom   35 type  2   force =    -0.00755235    0.00624693    0.01505862
     atom   36 type  3   force =     0.04647210   -0.08924896    0.04657089
     The non-local contrib.  to forces
     atom    1 type  1   force =     0.00364544    0.03213324   -0.01164075
     atom    2 type  2   force =    -0.00930812    0.00724882   -0.27006923
     atom    3 type  2   force =    -0.01447527   -0.00013384    0.27112824
     atom    4 type  1   force =     0.00198659    0.01094187    0.01328001
     atom    5 type  2   force =    -0.00061356   -0.03011232   -0.25471780
     atom    6 type  2   force =    -0.00372163    0.01111515    0.26286244
     atom    7 type  1   force =    -0.03145101    0.00664019   -0.00896016
     atom    8 type  2   force =     0.00282812   -0.00466510   -0.25812566
     atom    9 type  2   force =     0.00564917   -0.01400378    0.27840744
     atom   10 type  1   force =     0.00360632   -0.00275856   -0.00013399
     atom   11 type  2   force =     0.01172830    0.00471468   -0.26503838
     atom   12 type  2   force =    -0.01222328   -0.01538998    0.26030487
     atom   13 type  1   force =     0.00144304    0.02180427   -0.02381649
     atom   14 type  2   force =     0.01265371   -0.01141675   -0.26217422
     atom   15 type  2   force =    -0.02123709   -0.00786859    0.26374991
     atom   16 type  1   force =    -0.01709643    0.01077469   -0.02852137
     atom   17 type  2   force =    -0.08503632    0.30096339    0.21364613
     atom   18 type  2   force =    -0.00351765   -0.00432942    0.27530453
     atom   19 type  1   force =     0.00493799    0.00254854   -0.01624490
     atom   20 type  2   force =    -0.00242416   -0.02102823    0.26288146
     atom   21 type  1   force =     0.00765921    0.01728817    0.00527012
     atom   22 type  2   force =    -0.00892483    0.00351807   -0.26161897
     atom   23 type  2   force =     0.00538398   -0.01410415    0.26862888
     atom   24 type  1   force =     0.00534190    0.01389006   -0.01116794
     atom   25 type  2   force =     0.01090407    0.00435109   -0.25920514
     atom   26 type  2   force =     0.00303241   -0.01260096    0.26741032
     atom   27 type  1   force =     0.00959812    0.00441466    0.03731751
     atom   28 type  2   force =    -0.00192597   -0.02008201   -0.28009976
     atom   29 type  2   force =     0.00389487   -0.00001856    0.26207461
     atom   30 type  1   force =     0.00907456    0.00193308    0.01364873
     atom   31 type  2   force =     0.04430215   -0.02921988   -0.20793841
     atom   32 type  2   force =    -0.00191506   -0.01018723    0.27489697
     atom   33 type  1   force =    -0.01357480    0.00379897    0.00370796
     atom   34 type  2   force =     0.00177535   -0.03576185   -0.27610010
     atom   35 type  2   force =    -0.00035363   -0.00901265    0.27134292
     atom   36 type  3   force =     0.30839529   -1.32227230   -1.12533206
     The ionic contribution  to forces
     atom    1 type  1   force =     0.87608356   -0.52701161    4.46107496
     atom    2 type  2   force =    -0.71227578    0.15188283   39.10914532
     atom    3 type  2   force =    -0.18187887   -0.09031323  -36.57552498
     atom    4 type  1   force =    -0.08987179    0.43804732   -0.89979553
     atom    5 type  2   force =    -0.04098416    1.04948808   38.26327651
     atom    6 type  2   force =     0.49474355   -0.62581998  -38.73312767
     atom    7 type  1   force =    -1.95165687   -1.97980946    1.06910660
     atom    8 type  2   force =    -1.09295534    0.35250127   37.04733543
     atom    9 type  2   force =     0.31838925    0.07416873  -38.63900760
     atom   10 type  1   force =    -1.15328006   -0.17977720    4.79941895
     atom   11 type  2   force =    -0.35753320   -1.29093462   38.93804029
     atom   12 type  2   force =     0.50224649    0.79561620  -38.35735487
     atom   13 type  1   force =     0.63119335   -0.74731240    0.73756600
     atom   14 type  2   force =     0.34645424   -0.56301767   38.23747733
     atom   15 type  2   force =     0.24674856   -0.22746240  -37.38382831
     atom   16 type  1   force =     1.98992910    3.53003762   -3.38220328
     atom   17 type  2   force =     2.09843771   -4.08341804   32.81888609
     atom   18 type  2   force =    -0.11618208   -0.87737453  -39.65162229
     atom   19 type  1   force =     2.96791580   -0.41163920   -2.32682293
     atom   20 type  2   force =     0.42009469   -0.00350389  -39.36922169
     atom   21 type  1   force =     0.32814530    0.28234291    0.09040882
     atom   22 type  2   force =     0.52741503   -0.98726955   38.09136332
     atom   23 type  2   force =    -0.07214773    0.82847915  -38.89508804
     atom   24 type  1   force =    -1.18885577    0.22435553    4.48100341
     atom   25 type  2   force =     0.41301685   -0.35858106   38.97841795
     atom   26 type  2   force =    -0.36041348   -0.11618070  -37.93835314
     atom   27 type  1   force =    -1.94387181   -0.18115830   -7.17378323
     atom   28 type  2   force =    -1.24411782    0.35350495   37.56674556
     atom   29 type  2   force =    -0.46035930   -0.57281242  -38.03537020
     atom   30 type  1   force =    -1.19115347    0.06123123   -1.70813703
     atom   31 type  2   force =    -0.94138033    2.53540469   35.22154080
     atom   32 type  2   force =    -0.64334681    0.21156815  -39.60382512
     atom   33 type  1   force =     0.55477971   -0.61619480    0.95238936
     atom   34 type  2   force =     0.00136977   -1.10526894   39.14956247
     atom   35 type  2   force =    -0.37804029    0.59392316  -38.33860152
     atom   36 type  3   force =     1.40334205    4.06230816   46.99890824
     The local contribution  to forces
     atom    1 type  1   force =    -0.86877430    0.47290499   -4.44318915
     atom    2 type  2   force =     0.70685503   -0.14222667  -38.85867129
     atom    3 type  2   force =     0.18420636    0.09939485   36.32204694
     atom    4 type  1   force =     0.09278107   -0.44909008    0.88132849
     atom    5 type  2   force =     0.03843250   -1.02655917  -38.03244722
     atom    6 type  2   force =    -0.48999470    0.62576197   38.49302250
     atom    7 type  1   force =     1.99122952    1.95630634   -1.07482550
     atom    8 type  2   force =     1.09136216   -0.35112672  -36.79138577
     atom    9 type  2   force =    -0.31121337   -0.05515889   38.39235282
     atom   10 type  1   force =     1.13760926    0.19386769   -4.82805195
     atom   11 type  2   force =     0.35040824    1.28267526  -38.70279570
     atom   12 type  2   force =    -0.49281028   -0.77975200   38.12648395
     atom   13 type  1   force =    -0.63493822    0.70053890   -0.71186174
     atom   14 type  2   force =    -0.34914239    0.57099094  -37.98641407
     atom   15 type  2   force =    -0.24241989    0.23942290   37.12975632
     atom   16 type  1   force =    -1.96702713   -3.52740190    3.41251483
     atom   17 type  2   force =    -2.02558250    3.91944759  -33.01358247
     atom   18 type  2   force =     0.11510570    0.87610859   39.41053795
     atom   19 type  1   force =    -2.97328236    0.39461837    2.33722865
     atom   20 type  2   force =    -0.41693333    0.01984406   39.12902828
     atom   21 type  1   force =    -0.34141222   -0.29128109   -0.09472163
     atom   22 type  2   force =    -0.52145994    0.98290282  -37.85297611
     atom   23 type  2   force =     0.06831852   -0.81067603   38.65503581
     atom   24 type  1   force =     1.17610683   -0.23839726   -4.49340457
     atom   25 type  2   force =    -0.40998167    0.36657434  -38.73356586
     atom   26 type  2   force =     0.34823058    0.12750619   37.68460287
     atom   27 type  1   force =     1.91450250    0.16605898    7.10035523
     atom   28 type  2   force =     1.24737410   -0.33760279  -37.31260475
     atom   29 type  2   force =     0.45796890    0.57350865   37.79114515
     atom   30 type  1   force =     1.17526253   -0.04283160    1.68231099
     atom   31 type  2   force =     0.89798582   -2.49926998  -35.03335884
     atom   32 type  2   force =     0.63856321   -0.19379181   39.35640943
     atom   33 type  1   force =    -0.52783705    0.60553899   -0.96411686
     atom   34 type  2   force =    -0.00006059    1.09606386  -38.90373233
     atom   35 type  2   force =     0.37104781   -0.57947978   38.10297355
     atom   36 type  3   force =    -1.66158401   -2.84401247  -45.83894191
     The core correction contribution to forces
     atom    1 type  1   force =     0.00000000    0.00000000    0.00000000
     atom    2 type  2   force =     0.00020710   -0.00038311    0.02075074
     atom    3 type  2   force =     0.00066481   -0.00010011   -0.02092323
     atom    4 type  1   force =     0.00000000    0.00000000    0.00000000
     atom    5 type  2   force =    -0.00018599    0.00177778    0.02050281
     atom    6 type  2   force =     0.00041323   -0.00106208   -0.02088817
     atom    7 type  1   force =     0.00000000    0.00000000    0.00000000
     atom    8 type  2   force =    -0.00010863    0.00056702    0.02063699
     atom    9 type  2   force =    -0.00003663    0.00079770   -0.02106024
     atom   10 type  1   force =     0.00000000    0.00000000    0.00000000
     atom   11 type  2   force =    -0.00052685   -0.00056774    0.02094236
     atom   12 type  2   force =     0.00115909    0.00124900   -0.02073992
     atom   13 type  1   force =     0.00000000    0.00000000    0.00000000
     atom   14 type  2   force =    -0.00055305   -0.00000215    0.02063318
     atom   15 type  2   force =     0.00114402    0.00042205   -0.02072015
     atom   16 type  1   force =     0.00000000    0.00000000    0.00000000
     atom   17 type  2   force =     0.00499657   -0.01773525   -0.00543633
     atom   18 type  2   force =     0.00001749   -0.00040767   -0.02117946
     atom   19 type  1   force =     0.00000000    0.00000000    0.00000000
     atom   20 type  2   force =     0.00025513    0.00083379   -0.02103493
     atom   21 type  1   force =     0.00000000    0.00000000    0.00000000
     atom   22 type  2   force =     0.00026188   -0.00055318    0.02074540
     atom   23 type  2   force =    -0.00049626    0.00117521   -0.02094077
     atom   24 type  1   force =     0.00000000    0.00000000    0.00000000
     atom   25 type  2   force =    -0.00027362   -0.00050908    0.02067672
     atom   26 type  2   force =    -0.00045542    0.00063310   -0.02105690
     atom   27 type  1   force =     0.00000000    0.00000000    0.00000000
     atom   28 type  2   force =     0.00014781    0.00172286    0.02130053
     atom   29 type  2   force =    -0.00034895   -0.00045410   -0.02049373
     atom   30 type  1   force =     0.00000000    0.00000000    0.00000000
     atom   31 type  2   force =    -0.00147193    0.00085745    0.01891541
     atom   32 type  2   force =    -0.00019798    0.00055211   -0.02107561
     atom   33 type  1   force =     0.00000000    0.00000000    0.00000000
     atom   34 type  2   force =     0.00024483    0.00107607    0.02128378
     atom   35 type  2   force =    -0.00019599    0.00081551   -0.02110561
     atom   36 type  3   force =    -0.00369180    0.01471100    0.01175746
     The Hubbard contrib.    to forces
     atom    1 type  1   force =     0.00000000    0.00000000    0.00000000
     atom    2 type  2   force =     0.00000000    0.00000000    0.00000000
     atom    3 type  2   force =     0.00000000    0.00000000    0.00000000
     atom    4 type  1   force =     0.00000000    0.00000000    0.00000000
     atom    5 type  2   force =     0.00000000    0.00000000    0.00000000
     atom    6 type  2   force =     0.00000000    0.00000000    0.00000000
     atom    7 type  1   force =     0.00000000    0.00000000    0.00000000
     atom    8 type  2   force =     0.00000000    0.00000000    0.00000000
     atom    9 type  2   force =     0.00000000    0.00000000    0.00000000
     atom   10 type  1   force =     0.00000000    0.00000000    0.00000000
     atom   11 type  2   force =     0.00000000    0.00000000    0.00000000
     atom   12 type  2   force =     0.00000000    0.00000000    0.00000000
     atom   13 type  1   force =     0.00000000    0.00000000    0.00000000
     atom   14 type  2   force =     0.00000000    0.00000000    0.00000000
     atom   15 type  2   force =     0.00000000    0.00000000    0.00000000
     atom   16 type  1   force =     0.00000000    0.00000000    0.00000000
     atom   17 type  2   force =     0.00000000    0.00000000    0.00000000
     atom   18 type  2   force =     0.00000000    0.00000000    0.00000000
     atom   19 type  1   force =     0.00000000    0.00000000    0.00000000
     atom   20 type  2   force =     0.00000000    0.00000000    0.00000000
     atom   21 type  1   force =     0.00000000    0.00000000    0.00000000
     atom   22 type  2   force =     0.00000000    0.00000000    0.00000000
     atom   23 type  2   force =     0.00000000    0.00000000    0.00000000
     atom   24 type  1   force =     0.00000000    0.00000000    0.00000000
     atom   25 type  2   force =     0.00000000    0.00000000    0.00000000
     atom   26 type  2   force =     0.00000000    0.00000000    0.00000000
     atom   27 type  1   force =     0.00000000    0.00000000    0.00000000
     atom   28 type  2   force =     0.00000000    0.00000000    0.00000000
     atom   29 type  2   force =     0.00000000    0.00000000    0.00000000
     atom   30 type  1   force =     0.00000000    0.00000000    0.00000000
     atom   31 type  2   force =     0.00000000    0.00000000    0.00000000
     atom   32 type  2   force =     0.00000000    0.00000000    0.00000000
     atom   33 type  1   force =     0.00000000    0.00000000    0.00000000
     atom   34 type  2   force =     0.00000000    0.00000000    0.00000000
     atom   35 type  2   force =     0.00000000    0.00000000    0.00000000
     atom   36 type  3   force =     0.00000000    0.00000000    0.00000000
     The SCF correction term to forces
     atom    1 type  1   force =     0.00000138   -0.00010626    0.00072565
     atom    2 type  2   force =    -0.00000943   -0.00004160    0.00013695
     atom    3 type  2   force =    -0.00000729   -0.00003417    0.00042305
     atom    4 type  1   force =     0.00004835    0.00001534    0.00073982
     atom    5 type  2   force =    -0.00005909   -0.00000952    0.00013934
     atom    6 type  2   force =    -0.00001677   -0.00001326    0.00040300
     atom    7 type  1   force =    -0.00000515    0.00009409    0.00072399
     atom    8 type  2   force =     0.00003688    0.00002504    0.00015819
     atom    9 type  2   force =     0.00002445    0.00002405    0.00038433
     atom   10 type  1   force =    -0.00000698    0.00001422    0.00072814
     atom   11 type  2   force =     0.00001497    0.00004429    0.00014867
     atom   12 type  2   force =     0.00001384    0.00002572    0.00040573
     atom   13 type  1   force =    -0.00002914    0.00002384    0.00082296
     atom   14 type  2   force =     0.00001378    0.00000345    0.00015394
     atom   15 type  2   force =     0.00003368   -0.00002403    0.00040807
     atom   16 type  1   force =    -0.00012104   -0.00001597    0.00084820
     atom   17 type  2   force =    -0.00000673    0.00007235    0.00023930
     atom   18 type  2   force =     0.00001024    0.00003666    0.00042568
     atom   19 type  1   force =    -0.00008614   -0.00004535    0.00079931
     atom   20 type  2   force =    -0.00002301   -0.00000570    0.00039192
     atom   21 type  1   force =     0.00005612   -0.00002564    0.00075666
     atom   22 type  2   force =    -0.00000579   -0.00000218    0.00015728
     atom   23 type  2   force =    -0.00000597    0.00000180    0.00038836
     atom   24 type  1   force =     0.00000047   -0.00007502    0.00072576
     atom   25 type  2   force =    -0.00000456    0.00000444    0.00014356
     atom   26 type  2   force =    -0.00001854   -0.00002100    0.00040558
     atom   27 type  1   force =     0.00010581    0.00007056    0.00088902
     atom   28 type  2   force =     0.00005824    0.00000290    0.00015033
     atom   29 type  2   force =     0.00000776   -0.00000042    0.00040288
     atom   30 type  1   force =     0.00007377    0.00005819    0.00078228
     atom   31 type  2   force =     0.00004197   -0.00004348    0.00016333
     atom   32 type  2   force =    -0.00000070    0.00001111    0.00041971
     atom   33 type  1   force =    -0.00004006   -0.00006249    0.00075320
     atom   34 type  2   force =    -0.00001227    0.00000384    0.00012373
     atom   35 type  2   force =    -0.00001053   -0.00000136    0.00042077
     atom   36 type  3   force =     0.00001030    0.00001460    0.00015064

     Total force =     0.198065     Total SCF correction =     0.003104

     BFGS Geometry Optimization
     Energy error            =      0.0E+00 Ry
     Gradient error          =      1.2E-01 Ry/Bohr

     number of scf cycles    =   1
     number of bfgs steps    =   0

     energy             new  =   -2246.2947748434 Ry

     new trust radius        =       0.1203402697 bohr
     new conv_thr            =       0.0000010000 Ry


ATOMIC_POSITIONS (angstrom)
Mo            6.5803462596        1.7761232794        2.8273468610
S             8.1690199029        0.8184260976        4.4352373980
S             8.1871528425        0.8159067407        1.2763903714
Mo            8.0977790808        4.4950127630        2.7154801254
S             6.4981047428        3.7195470001        4.3449578381
S             6.5541033250        3.5170207826        1.1224976610
Mo            6.4942769097        7.2095646769        2.6645148739
S             8.0823434063        6.3424441050        4.2523295008
S             8.0876980706        6.3077873491        1.0897396463
Mo            8.1542312486        9.9081856252        2.8286393301
S             6.4973328508        8.9407751460        4.3785153276
S             6.6170931784        9.0496377989        1.1447377721
Mo            3.4204263117        1.7337564027        2.7779207104
S             4.9801538133        0.8151207701        4.3556685861
S             5.0495095606        0.8486391724        1.2210462016
Mo            4.9827649355        4.5202671189        2.6342958101
S             3.4240363464        3.7347475074        4.2870022995
S             3.4355043437        3.5450725162        1.0654928894
Mo            3.4535895180        7.2086432228        2.6280249694
S             4.9837472818        6.3248907684        1.0383510052
Mo            5.0093262874        9.9060061977        2.7443230503
S             3.4695222530        8.9430093757        4.3243739058
S             3.4089862868        9.0675713247        1.1003296409
Mo            0.2921712379        1.7473906619        2.8373716183
S             1.8576914845        0.7989604159        4.4016468379
S             1.8557071414        0.8540759619        1.2057163190
Mo            1.8502849780        4.4900511068        2.6415740744
S             0.2730270035        3.6531012641        4.3352136090
S             0.2318469308        3.5273683950        1.1708469306
Mo            0.2675842633        7.2274375785        2.6956815278
S             1.9019619948        6.3168898240        4.2221005828
S             1.8585884344        6.3146589294        1.0481862146
Mo            1.8513995749        9.9364786910        2.7691161601
S             0.2976683692        9.0667749085        4.4091947490
S             0.2727748686        9.0468314462        1.1583694579
O             3.1768453078        4.8100603746        5.3681060154



     Writing config-only to output data dir ./MoS2-V-O.save/
     NEW-OLD atomic charge density approx. for the potential

     negative rho (up, down):  1.776E-04 0.000E+00

     total cpu time spent up to now is      116.0 secs

     Self-consistent Calculation

     iteration #  1     ecut=    80.00 Ry     beta= 0.70
     Davidson diagonalization with overlap
     ethr =  1.00E-06,  avg # of iterations = 10.0

     negative rho (up, down):  1.012E-04 0.000E+00

     total cpu time spent up to now is      130.3 secs

     total energy              =   -2246.32551446 Ry
     estimated scf accuracy    <       0.00752989 Ry

     iteration #  2     ecut=    80.00 Ry     beta= 0.70
     Davidson diagonalization with overlap
     ethr =  2.41E-06,  avg # of iterations =  4.0

     negative rho (up, down):  9.021E-05 0.000E+00

     total cpu time spent up to now is      144.5 secs

     total energy              =   -2246.32673961 Ry
     estimated scf accuracy    <       0.00294835 Ry

     iteration #  3     ecut=    80.00 Ry     beta= 0.70
     Davidson diagonalization with overlap
     ethr =  9.45E-07,  avg # of iterations =  3.0

     negative rho (up, down):  5.827E-05 0.000E+00

     total cpu time spent up to now is      158.4 secs

     total energy              =   -2246.32693231 Ry
     estimated scf accuracy    <       0.00031285 Ry

     iteration #  4     ecut=    80.00 Ry     beta= 0.70
     Davidson diagonalization with overlap
     ethr =  1.00E-07,  avg # of iterations =  5.0

     negative rho (up, down):  5.458E-05 0.000E+00

     total cpu time spent up to now is      171.3 secs

     total energy              =   -2246.32697694 Ry
     estimated scf accuracy    <       0.00002539 Ry

     iteration #  5     ecut=    80.00 Ry     beta= 0.70
     Davidson diagonalization with overlap
     ethr =  8.14E-09,  avg # of iterations =  4.0

     negative rho (up, down):  5.764E-05 0.000E+00

     total cpu time spent up to now is      186.5 secs

     total energy              =   -2246.32698258 Ry
     estimated scf accuracy    <       0.00000698 Ry

     iteration #  6     ecut=    80.00 Ry     beta= 0.70
     Davidson diagonalization with overlap
     ethr =  2.24E-09,  avg # of iterations =  2.0

     negative rho (up, down):  6.589E-05 0.000E+00

     total cpu time spent up to now is      198.9 secs

     total energy              =   -2246.32698310 Ry
     estimated scf accuracy    <       0.00000321 Ry

     iteration #  7     ecut=    80.00 Ry     beta= 0.70
     Davidson diagonalization with overlap
     ethr =  1.03E-09,  avg # of iterations =  2.0

     negative rho (up, down):  2.013E-04 0.000E+00

     total cpu time spent up to now is      202.3 secs

     End of self-consistent calculation

          k = 0.0000 0.0000 0.0000 (105382 PWs)   bands (ev):

   -63.0472 -62.9867 -62.9740 -62.9587 -62.9475 -62.9272 -62.8973 -62.8741
   -62.8409 -62.8176 -62.8036 -62.7988 -37.3433 -37.2893 -37.2685 -37.2514
   -37.2311 -37.2237 -37.2059 -37.1878 -37.1795 -37.1642 -37.1547 -37.1415
   -37.1333 -37.1231 -37.1186 -37.1109 -37.0999 -37.0863 -37.0831 -37.0609
   -37.0370 -37.0238 -37.0083 -37.0033 -36.9930 -36.9883 -36.9814 -36.9771
   -36.9735 -36.9524 -36.9397 -36.9276 -36.8903 -36.8879 -36.8147 -36.7811
   -22.1888 -16.0301 -15.2574 -15.2134 -15.0269 -14.9770 -14.8654 -14.6436
   -14.5293 -14.5041 -14.4907 -14.4468 -14.4285 -14.4127 -14.3199 -14.2557
   -14.2052 -14.1919 -14.1316 -14.0021 -13.9475 -13.9268 -13.9089 -13.7466
    -8.1742  -7.8052  -7.6988  -7.5859  -7.4801  -7.3696  -7.3099  -7.2896
    -7.2769  -7.0574  -7.0113  -6.8623  -6.8438  -6.7266  -6.6782  -6.6275
    -6.5928  -6.5111  -6.4079  -6.3517  -6.2315  -6.0896  -6.0214  -5.9569
    -5.8719  -5.8542  -5.8374  -5.8014  -5.7448  -5.7323  -5.6806  -5.6557
    -5.6068  -5.5244  -5.4507  -5.3027  -5.2390  -5.2001  -5.1621  -5.0931
    -5.0666  -5.0346  -4.9939  -4.8835  -4.7704  -4.5972  -4.4898  -4.4062
    -4.3432  -4.3144  -4.2325  -4.1487  -4.0870  -3.9958  -3.9449  -3.8596
    -3.8091  -3.7869  -3.7335  -3.6622  -3.6518  -3.6055  -3.5665  -3.5280
    -3.4856  -3.4774  -3.3251  -3.2583  -3.1967  -3.0273  -2.9530  -2.9093
    -2.8666  -2.8252  -2.8032  -2.7634  -2.7434  -2.7141  -2.6799  -2.4275
    -2.2917  -2.0709  -1.9888  -1.8262  -1.0266  -0.8523  -0.5843  -0.2670
    -0.2045  -0.1571  -0.1321   0.0205   0.0586   0.0771   0.1496   0.1672
     0.2007   0.3315   0.3434   0.4195   0.4563   0.4778   0.5182   0.5561
     0.6360   0.6432   0.6589   0.7019   0.7388   0.8109   0.8144   0.8678
     0.9035   0.9798   1.1549

     the Fermi energy is    -1.4264 ev

!    total energy              =   -2246.32698296 Ry
     estimated scf accuracy    <       0.00000074 Ry
     smearing contrib. (-TS)   =      -0.00000201 Ry
     internal energy E=F+TS    =   -2246.32698096 Ry

     The total energy is F=E-TS. E is the sum of the following terms:
     one-electron contribution =  -18445.26300060 Ry
     hartree contribution      =    9210.55489483 Ry
     xc contribution           =    -392.09535997 Ry
     ewald contribution        =    7390.33743047 Ry
     one-center paw contrib.   =      -9.86094568 Ry

     convergence has been achieved in   7 iterations

     negative rho (up, down):  2.013E-04 0.000E+00

     Forces acting on atoms (cartesian axes, Ry/au):

     atom    1 type  1   force =     0.00063778   -0.01109760    0.00122183
     atom    2 type  2   force =    -0.00864379    0.01065398   -0.00126761
     atom    3 type  2   force =    -0.01069638    0.00797806   -0.00880121
     atom    4 type  1   force =     0.00418716    0.00001371    0.00140315
     atom    5 type  2   force =    -0.00155733   -0.00530910   -0.00406320
     atom    6 type  2   force =     0.00185882    0.00496316    0.00291713
     atom    7 type  1   force =     0.00627962   -0.01164205   -0.00416677
     atom    8 type  2   force =     0.00214675   -0.00301770    0.01220567
     atom    9 type  2   force =     0.01172334    0.00540443    0.00536665
     atom   10 type  1   force =    -0.00409587    0.00809950   -0.00943700
     atom   11 type  2   force =     0.00372664   -0.00408476   -0.01167574
     atom   12 type  2   force =    -0.00401621    0.00123474    0.00386629
     atom   13 type  1   force =    -0.00112103   -0.00338400    0.01142405
     atom   14 type  2   force =     0.00712139   -0.00293356    0.00865013
     atom   15 type  2   force =    -0.01166216    0.00287287   -0.00758289
     atom   16 type  1   force =     0.00496567    0.01347255    0.00009002
     atom   17 type  2   force =    -0.00107889    0.06106428   -0.03109416
     atom   18 type  2   force =    -0.00166253   -0.00770732    0.01194965
     atom   19 type  1   force =     0.00243469   -0.00762686   -0.00215533
     atom   20 type  2   force =     0.00084565   -0.00356817   -0.00273424
     atom   21 type  1   force =    -0.00321889    0.00413692    0.00318191
     atom   22 type  2   force =    -0.00124236   -0.00325420   -0.00316963
     atom   23 type  2   force =     0.00171032    0.00188141    0.00457296
     atom   24 type  1   force =    -0.00396628   -0.00247837   -0.00921956
     atom   25 type  2   force =     0.00804637    0.00849553    0.00134560
     atom   26 type  2   force =    -0.00662235   -0.00270827   -0.00680620
     atom   27 type  1   force =    -0.00982849    0.00309689   -0.01245390
     atom   28 type  2   force =     0.00177793   -0.00296986   -0.00766269
     atom   29 type  2   force =    -0.00450694   -0.00232070   -0.00966028
     atom   30 type  1   force =    -0.00370105    0.00604996   -0.00061407
     atom   31 type  2   force =    -0.01057188    0.00881255   -0.00783705
     atom   32 type  2   force =    -0.00700214    0.00872588    0.00060966
     atom   33 type  1   force =     0.00452490   -0.00205187    0.00034820
     atom   34 type  2   force =    -0.00013110   -0.03200608   -0.01406088
     atom   35 type  2   force =    -0.00565819    0.00939859    0.00701297
     atom   36 type  3   force =     0.03899680   -0.05819455    0.07829655
     The non-local contrib.  to forces
     atom    1 type  1   force =     0.00462676    0.02865147   -0.01254177
     atom    2 type  2   force =    -0.00523648    0.00284632   -0.27008994
     atom    3 type  2   force =    -0.01254178   -0.00198748    0.26602307
     atom    4 type  1   force =     0.00260285    0.01212250    0.01244264
     atom    5 type  2   force =    -0.00026577   -0.02913374   -0.25559981
     atom    6 type  2   force =    -0.00188254    0.00589649    0.26273348
     atom    7 type  1   force =    -0.02988187    0.00631992   -0.01197801
     atom    8 type  2   force =     0.00398275   -0.00482177   -0.26280395
     atom    9 type  2   force =     0.00447335   -0.01474497    0.27505706
     atom   10 type  1   force =     0.00246968   -0.00211740   -0.00109857
     atom   11 type  2   force =     0.01039644    0.00365039   -0.26665154
     atom   12 type  2   force =    -0.01343028   -0.01626055    0.25826581
     atom   13 type  1   force =     0.00083287    0.01836184   -0.02435755
     atom   14 type  2   force =     0.01086330   -0.00996376   -0.26193782
     atom   15 type  2   force =    -0.01742568   -0.00968822    0.26417244
     atom   16 type  1   force =    -0.01929283    0.01066874   -0.02476197
     atom   17 type  2   force =    -0.07718110    0.24452413    0.20954375
     atom   18 type  2   force =    -0.00249325   -0.00485317    0.27618724
     atom   19 type  1   force =     0.00626884    0.00089245   -0.01747757
     atom   20 type  2   force =    -0.00204112   -0.02031886    0.26052561
     atom   21 type  1   force =     0.00553431    0.01910750    0.00463583
     atom   22 type  2   force =    -0.00666448    0.00186395   -0.26240867
     atom   23 type  2   force =     0.00664955   -0.01698794    0.26698630
     atom   24 type  1   force =     0.00484988    0.01484318   -0.01154561
     atom   25 type  2   force =     0.00673551    0.00224148   -0.26211595
     atom   26 type  2   force =     0.00451801   -0.01463614    0.26679471
     atom   27 type  1   force =     0.01144084   -0.00046774    0.04000194
     atom   28 type  2   force =    -0.00235387   -0.01871935   -0.28002057
     atom   29 type  2   force =    -0.00073358   -0.00376316    0.25666220
     atom   30 type  1   force =     0.00721287    0.00818107    0.01191371
     atom   31 type  2   force =     0.02115193   -0.01149917   -0.23673584
     atom   32 type  2   force =    -0.00205277   -0.01089385    0.27246906
     atom   33 type  1   force =    -0.01096004    0.00177826    0.00206415
     atom   34 type  2   force =    -0.00080649   -0.02687797   -0.28049385
     atom   35 type  2   force =     0.00047144   -0.00626868    0.26627028
     atom   36 type  3   force =     0.34114739   -1.44591872   -1.33906700
     The ionic contribution  to forces
     atom    1 type  1   force =     0.53550824   -0.17722965    4.63116184
     atom    2 type  2   force =    -0.51464258    0.03337444   39.19351444
     atom    3 type  2   force =    -0.18381897   -0.05933045  -36.67963448
     atom    4 type  1   force =    -0.15847988    0.40869303   -0.80736220
     atom    5 type  2   force =    -0.03356676    1.00361759   38.18628893
     atom    6 type  2   force =     0.40816828   -0.70357777  -38.63262170
     atom    7 type  1   force =    -2.03636957   -1.75667190    0.89350163
     atom    8 type  2   force =    -1.05687435    0.35219903   37.17583991
     atom    9 type  2   force =     0.31275718    0.03214122  -38.62646363
     atom   10 type  1   force =    -0.93569911   -0.19536560    4.49355706
     atom   11 type  2   force =    -0.33110375   -1.32747856   38.86444429
     atom   12 type  2   force =     0.39443446    0.74653815  -38.30557764
     atom   13 type  1   force =     0.69607143   -0.17635775    1.20425039
     atom   14 type  2   force =     0.27948573   -0.46768302   38.33998222
     atom   15 type  2   force =     0.27868015   -0.13035239  -37.43553780
     atom   16 type  1   force =     1.89120315    3.12915438   -3.28284629
     atom   17 type  2   force =     2.13547752   -4.59390151   31.93245256
     atom   18 type  2   force =     0.01271772   -0.93123503  -39.46234153
     atom   19 type  1   force =     2.99117385   -0.34359464   -2.28117308
     atom   20 type  2   force =     0.38423615    0.01045464  -39.41358141
     atom   21 type  1   force =     0.37001163    0.08654610    0.26908644
     atom   22 type  2   force =     0.54194587   -1.04605018   38.11107889
     atom   23 type  2   force =    -0.02544755    0.76058476  -38.85851375
     atom   24 type  1   force =    -0.97076234    0.07145105    4.23921921
     atom   25 type  2   force =     0.26869526   -0.35577044   38.99806691
     atom   26 type  2   force =    -0.32772087   -0.11187879  -37.94652119
     atom   27 type  1   force =    -1.73290042   -0.15943107   -7.74181973
     atom   28 type  2   force =    -1.16248130    0.33371180   37.56782599
     atom   29 type  2   force =    -0.53116349   -0.59091790  -38.12142028
     atom   30 type  1   force =    -1.09866957   -0.16101708   -1.75448950
     atom   31 type  2   force =    -0.87989575    2.33505891   35.27597334
     atom   32 type  2   force =    -0.60785763    0.24045126  -39.56448305
     atom   33 type  1   force =     0.34434064   -0.45966671    1.08465866
     atom   34 type  2   force =    -0.06523166   -0.89693896   39.09265789
     atom   35 type  2   force =    -0.32049177    0.64589890  -38.29346016
     atom   36 type  3   force =     1.12827006    4.45457414   47.65428680
     The local contribution  to forces
     atom    1 type  1   force =    -0.53960519    0.13725310   -4.61806701
     atom    2 type  2   force =     0.51109334   -0.02542015  -38.94587422
     atom    3 type  2   force =     0.18508908    0.06918073   36.42558037
     atom    4 type  1   force =     0.16004392   -0.42090212    0.79570463
     atom    5 type  2   force =     0.03252802   -0.98163880  -37.95567788
     atom    6 type  2   force =    -0.40471491    0.70341943   38.39354563
     atom    7 type  1   force =     2.07256009    1.73918531   -0.88621564
     atom    8 type  2   force =     1.05514273   -0.35084933  -36.92204898
     atom    9 type  2   force =    -0.30558393   -0.01270291   38.37769797
     atom   10 type  1   force =     0.92916445    0.20563176   -4.50232035
     atom   11 type  2   force =     0.32490654    1.32037621  -38.63086015
     atom   12 type  2   force =    -0.38613770   -0.73025637   38.07183804
     atom   13 type  1   force =    -0.69798436    0.15441679   -1.16913368
     atom   14 type  2   force =    -0.28275170    0.47467003  -38.09049844
     atom   15 type  2   force =    -0.27395381    0.14233705   37.18452097
     atom   16 type  1   force =    -1.86690830   -3.12663166    3.30690438
     atom   17 type  2   force =    -2.06374438    4.42461073  -32.16846112
     atom   18 type  2   force =    -0.01197976    0.92867456   39.21928801
     atom   19 type  1   force =    -2.99491054    0.33549018    2.29586252
     atom   20 type  2   force =    -0.38155180    0.00558216   39.17123584
     atom   21 type  1   force =    -0.37868375   -0.10154516   -0.27110379
     atom   22 type  2   force =    -0.53668135    1.04157050  -37.87305088
     atom   23 type  2   force =     0.02102902   -0.74292799   38.61694828
     atom   24 type  1   force =     0.96201863   -0.08918549   -4.23739606
     atom   25 type  2   force =    -0.26719098    0.36234506  -38.75582135
     atom   26 type  2   force =     0.31712392    0.12303948   37.69395750
     atom   27 type  1   force =     1.71160708    0.16285321    7.68862318
     atom   28 type  2   force =     1.16635300   -0.31972526  -37.31722358
     atom   29 type  2   force =     0.52764323    0.59259410   37.87538303
     atom   30 type  1   force =     1.08765392    0.15912881    1.74144651
     atom   31 type  2   force =     0.84848043   -2.31451151  -35.06783653
     atom   32 type  2   force =     0.60312200   -0.22141804   39.31353182
     atom   33 type  1   force =    -0.32896783    0.45606712   -1.08687044
     atom   34 type  2   force =     0.06556252    0.89114231  -38.84804699
     atom   35 type  2   force =     0.31453028   -0.63088365   38.05509610
     atom   36 type  3   force =    -1.42641428   -3.08312281  -46.25164092
     The core correction contribution to forces
     atom    1 type  1   force =     0.00000000    0.00000000    0.00000000
     atom    2 type  2   force =     0.00014955   -0.00025465    0.02078782
     atom    3 type  2   force =     0.00056570    0.00003375   -0.02081340
     atom    4 type  1   force =     0.00000000    0.00000000    0.00000000
     atom    5 type  2   force =    -0.00018008    0.00169249    0.02048116
     atom    6 type  2   force =     0.00027953   -0.00088392   -0.02082006
     atom    7 type  1   force =     0.00000000    0.00000000    0.00000000
     atom    8 type  2   force =    -0.00011778    0.00058081    0.02079628
     atom    9 type  2   force =     0.00005212    0.00077546   -0.02100554
     atom   10 type  1   force =     0.00000000    0.00000000    0.00000000
     atom   11 type  2   force =    -0.00041885   -0.00054343    0.02095449
     atom   12 type  2   force =     0.00112054    0.00126102   -0.02067387
     atom   13 type  1   force =     0.00000000    0.00000000    0.00000000
     atom   14 type  2   force =    -0.00048547   -0.00001907    0.02065917
     atom   15 type  2   force =     0.00101060    0.00056546   -0.02075538
     atom   16 type  1   force =     0.00000000    0.00000000    0.00000000
     atom   17 type  2   force =     0.00438535   -0.01456171   -0.00536330
     atom   18 type  2   force =     0.00008704   -0.00044175   -0.02121387
     atom   19 type  1   force =     0.00000000    0.00000000    0.00000000
     atom   20 type  2   force =     0.00021498    0.00081343   -0.02099700
     atom   21 type  1   force =     0.00000000    0.00000000    0.00000000
     atom   22 type  2   force =     0.00016501   -0.00051604    0.02077622
     atom   23 type  2   force =    -0.00050727    0.00126701   -0.02089582
     atom   24 type  1   force =     0.00000000    0.00000000    0.00000000
     atom   25 type  2   force =    -0.00020507   -0.00040869    0.02076891
     atom   26 type  2   force =    -0.00051072    0.00072622   -0.02104045
     atom   27 type  1   force =     0.00000000    0.00000000    0.00000000
     atom   28 type  2   force =     0.00019609    0.00161744    0.02129288
     atom   29 type  2   force =    -0.00023509   -0.00030722   -0.02036134
     atom   30 type  1   force =     0.00000000    0.00000000    0.00000000
     atom   31 type  2   force =    -0.00043587   -0.00003889    0.02020848
     atom   32 type  2   force =    -0.00019724    0.00062942   -0.02098746
     atom   33 type  1   force =     0.00000000    0.00000000    0.00000000
     atom   34 type  2   force =     0.00029290    0.00077363    0.02144226
     atom   35 type  2   force =    -0.00018856    0.00074210   -0.02096005
     atom   36 type  3   force =    -0.00393968    0.01577235    0.01384361
     The Hubbard contrib.    to forces
     atom    1 type  1   force =     0.00000000    0.00000000    0.00000000
     atom    2 type  2   force =     0.00000000    0.00000000    0.00000000
     atom    3 type  2   force =     0.00000000    0.00000000    0.00000000
     atom    4 type  1   force =     0.00000000    0.00000000    0.00000000
     atom    5 type  2   force =     0.00000000    0.00000000    0.00000000
     atom    6 type  2   force =     0.00000000    0.00000000    0.00000000
     atom    7 type  1   force =     0.00000000    0.00000000    0.00000000
     atom    8 type  2   force =     0.00000000    0.00000000    0.00000000
     atom    9 type  2   force =     0.00000000    0.00000000    0.00000000
     atom   10 type  1   force =     0.00000000    0.00000000    0.00000000
     atom   11 type  2   force =     0.00000000    0.00000000    0.00000000
     atom   12 type  2   force =     0.00000000    0.00000000    0.00000000
     atom   13 type  1   force =     0.00000000    0.00000000    0.00000000
     atom   14 type  2   force =     0.00000000    0.00000000    0.00000000
     atom   15 type  2   force =     0.00000000    0.00000000    0.00000000
     atom   16 type  1   force =     0.00000000    0.00000000    0.00000000
     atom   17 type  2   force =     0.00000000    0.00000000    0.00000000
     atom   18 type  2   force =     0.00000000    0.00000000    0.00000000
     atom   19 type  1   force =     0.00000000    0.00000000    0.00000000
     atom   20 type  2   force =     0.00000000    0.00000000    0.00000000
     atom   21 type  1   force =     0.00000000    0.00000000    0.00000000
     atom   22 type  2   force =     0.00000000    0.00000000    0.00000000
     atom   23 type  2   force =     0.00000000    0.00000000    0.00000000
     atom   24 type  1   force =     0.00000000    0.00000000    0.00000000
     atom   25 type  2   force =     0.00000000    0.00000000    0.00000000
     atom   26 type  2   force =     0.00000000    0.00000000    0.00000000
     atom   27 type  1   force =     0.00000000    0.00000000    0.00000000
     atom   28 type  2   force =     0.00000000    0.00000000    0.00000000
     atom   29 type  2   force =     0.00000000    0.00000000    0.00000000
     atom   30 type  1   force =     0.00000000    0.00000000    0.00000000
     atom   31 type  2   force =     0.00000000    0.00000000    0.00000000
     atom   32 type  2   force =     0.00000000    0.00000000    0.00000000
     atom   33 type  1   force =     0.00000000    0.00000000    0.00000000
     atom   34 type  2   force =     0.00000000    0.00000000    0.00000000
     atom   35 type  2   force =     0.00000000    0.00000000    0.00000000
     atom   36 type  3   force =     0.00000000    0.00000000    0.00000000
     The SCF correction term to forces
     atom    1 type  1   force =     0.00010826    0.00022099    0.00064643
     atom    2 type  2   force =    -0.00000733    0.00010152    0.00037195
     atom    3 type  2   force =     0.00000989    0.00007501    0.00002090
     atom    4 type  1   force =     0.00002057    0.00009380    0.00059574
     atom    5 type  2   force =    -0.00007244    0.00014686    0.00042206
     atom    6 type  2   force =     0.00000876    0.00010242    0.00005743
     atom    7 type  1   force =    -0.00002874   -0.00048190    0.00050292
     atom    8 type  2   force =     0.00001369   -0.00013296    0.00040007
     atom    9 type  2   force =     0.00002491   -0.00007087    0.00005844
     atom   10 type  1   force =    -0.00003060   -0.00005577    0.00040252
     atom   11 type  2   force =    -0.00005344   -0.00009587    0.00041483
     atom   12 type  2   force =    -0.00000294   -0.00005401   -0.00000840
     atom   13 type  1   force =    -0.00004067    0.00018862    0.00064255
     atom   14 type  2   force =     0.00000983    0.00005576    0.00042266
     atom   15 type  2   force =     0.00002688    0.00000445   -0.00000547
     atom   16 type  1   force =    -0.00003606    0.00027459    0.00077156
     atom   17 type  2   force =    -0.00001599    0.00038614    0.00071161
     atom   18 type  2   force =     0.00000602    0.00014156    0.00000745
     atom   19 type  1   force =    -0.00009717   -0.00042135    0.00061045
     atom   20 type  2   force =    -0.00001226   -0.00010604    0.00006039
     atom   21 type  1   force =    -0.00008078    0.00002197    0.00054109
     atom   22 type  2   force =    -0.00000710   -0.00012893    0.00041247
     atom   23 type  2   force =    -0.00001313   -0.00006094    0.00002561
     atom   24 type  1   force =    -0.00007215    0.00040638    0.00048055
     atom   25 type  2   force =     0.00001195    0.00008161    0.00042473
     atom   26 type  2   force =    -0.00003238    0.00003444   -0.00001911
     atom   27 type  1   force =     0.00002431    0.00013598    0.00071836
     atom   28 type  2   force =     0.00006430    0.00013901    0.00044025
     atom   29 type  2   force =    -0.00001771    0.00006697    0.00005377
     atom   30 type  1   force =     0.00010201   -0.00024934    0.00049286
     atom   31 type  2   force =     0.00012766   -0.00020331    0.00053115
     atom   32 type  2   force =    -0.00001620   -0.00004941    0.00005694
     atom   33 type  1   force =     0.00011243   -0.00023705    0.00047348
     atom   34 type  2   force =     0.00005193   -0.00011159    0.00035747
     atom   35 type  2   force =     0.00002072   -0.00009659    0.00004445
     atom   36 type  3   force =    -0.00006639    0.00049399    0.00085173

     Total force =     0.145032     Total SCF correction =     0.002953
     Energy error            =      3.2E-02 Ry
     Gradient error          =      7.8E-02 Ry/Bohr

     number of scf cycles    =   2
     number of bfgs steps    =   1

     energy             old  =   -2246.2947748434 Ry
     energy             new  =   -2246.3269829628 Ry

     CASE: energy            _new < energy            _old

     new trust radius        =       0.1323742967 bohr
     new conv_thr            =       0.0000000783 Ry


ATOMIC_POSITIONS (angstrom)
Mo            6.5827236458        1.7666290131        2.8292559941
S             8.1621288427        0.8266497441        4.4348795327
S             8.1798528360        0.8213980000        1.2716379098
Mo            8.1007211710        4.4950035506        2.7153172456
S             6.4967134386        3.7159784916        4.3424016519
S             6.5552636211        3.5212877115        1.1243310305
Mo            6.4988218669        7.2008135977        2.6598842081
S             8.0835924679        6.3404876836        4.2617064038
S             8.0957405469        6.3114803584        1.0944120297
Mo            8.1499853859        9.9142139741        2.8188193067
S             6.4998929430        8.9380482433        4.3712782650
S             6.6148628027        9.0505607710        1.1483171238
Mo            3.4194482366        1.7274178786        2.7839149199
S             4.9853499447        0.8130640611        4.3616501250
S             5.0409447986        0.8508656783        1.2154059013
Mo            4.9862201843        4.5292584018        2.6348432262
S             3.4221594725        3.7865831057        4.2747027154
S             3.4338440314        3.5402501622        1.0737727651
Mo            3.4546593508        7.2022425410        2.6260442230
S             4.9843359898        6.3224508546        1.0374323860
Mo            5.0067336129        9.9095636626        2.7461778156
S             3.4684136585        8.9411843461        4.3224195083
S             3.4100052200        9.0693955560        1.1040443891
Mo            0.2888695452        1.7461601480        2.8286382116
S             1.8641317392        0.8052719377        4.4035201007
S             1.8507128691        0.8526526740        1.2011371401
Mo            1.8418552299        4.4895290836        2.6289497547
S             0.2741698297        3.6512139873        4.3306933891
S             0.2299064780        3.5262985204        1.1657977550
Mo            0.2645352583        7.2341936637        2.6932379530
S             1.8967955191        6.3225760014        4.2182210435
S             1.8539277504        6.3203836486        1.0497744204
Mo            1.8560887545        9.9341871615        2.7679145259
S             0.2982327819        9.0431344944        4.4007841398
S             0.2686345245        9.0525179655        1.1645785402
O             3.2043259968        4.7652886264        5.4144442210



     Writing config-only to output data dir ./MoS2-V-O.save/
     NEW-OLD atomic charge density approx. for the potential

     negative rho (up, down):  1.450E-04 0.000E+00

     total cpu time spent up to now is      209.7 secs

     Self-consistent Calculation

     iteration #  1     ecut=    80.00 Ry     beta= 0.70
     Davidson diagonalization with overlap
     ethr =  1.00E-06,  avg # of iterations =  8.0

     negative rho (up, down):  2.123E-04 0.000E+00

     total cpu time spent up to now is      222.4 secs

     total energy              =   -2246.34998184 Ry
     estimated scf accuracy    <       0.00523753 Ry

     iteration #  2     ecut=    80.00 Ry     beta= 0.70
     Davidson diagonalization with overlap
     ethr =  1.68E-06,  avg # of iterations =  5.0

     negative rho (up, down):  2.941E-04 0.000E+00

     total cpu time spent up to now is      244.5 secs

     total energy              =   -2246.35101903 Ry
     estimated scf accuracy    <       0.00223254 Ry

     iteration #  3     ecut=    80.00 Ry     beta= 0.70
     Davidson diagonalization with overlap
     ethr =  7.16E-07,  avg # of iterations =  3.0

     negative rho (up, down):  4.146E-04 0.000E+00

     total cpu time spent up to now is      256.2 secs

     total energy              =   -2246.35112336 Ry
     estimated scf accuracy    <       0.00025526 Ry

     iteration #  4     ecut=    80.00 Ry     beta= 0.70
     Davidson diagonalization with overlap
     ethr =  8.18E-08,  avg # of iterations =  5.0

     negative rho (up, down):  4.434E-04 0.000E+00

     total cpu time spent up to now is      269.1 secs

     total energy              =   -2246.35117035 Ry
     estimated scf accuracy    <       0.00006013 Ry

     iteration #  5     ecut=    80.00 Ry     beta= 0.70
     Davidson diagonalization with overlap
     ethr =  1.93E-08,  avg # of iterations =  2.0

     negative rho (up, down):  4.595E-04 0.000E+00

     total cpu time spent up to now is      284.0 secs

     total energy              =   -2246.35117077 Ry
     estimated scf accuracy    <       0.00001598 Ry

     iteration #  6     ecut=    80.00 Ry     beta= 0.70
     Davidson diagonalization with overlap
     ethr =  5.12E-09,  avg # of iterations =  5.0

     negative rho (up, down):  4.391E-04 0.000E+00

     total cpu time spent up to now is      295.6 secs

     total energy              =   -2246.35117452 Ry
     estimated scf accuracy    <       0.00000244 Ry

     iteration #  7     ecut=    80.00 Ry     beta= 0.70
     Davidson diagonalization with overlap
     ethr =  7.82E-10,  avg # of iterations =  4.0

     negative rho (up, down):  3.866E-04 0.000E+00

     total cpu time spent up to now is      306.2 secs

     total energy              =   -2246.35117517 Ry
     estimated scf accuracy    <       0.00000051 Ry

     iteration #  8     ecut=    80.00 Ry     beta= 0.70
     Davidson diagonalization with overlap
     ethr =  1.62E-10,  avg # of iterations =  4.0

     negative rho (up, down):  3.501E-04 0.000E+00

     total cpu time spent up to now is      316.4 secs

     total energy              =   -2246.35117529 Ry
     estimated scf accuracy    <       0.00000033 Ry

     iteration #  9     ecut=    80.00 Ry     beta= 0.70
     Davidson diagonalization with overlap
     ethr =  1.05E-10,  avg # of iterations =  2.0

     negative rho (up, down):  2.780E-04 0.000E+00

     total cpu time spent up to now is      328.7 secs

     total energy              =   -2246.35117536 Ry
     estimated scf accuracy    <       0.00000012 Ry

     iteration # 10     ecut=    80.00 Ry     beta= 0.70
     Davidson diagonalization with overlap
     ethr =  3.72E-11,  avg # of iterations =  4.0

     negative rho (up, down):  2.005E-04 0.000E+00

     total cpu time spent up to now is      332.3 secs

     End of self-consistent calculation

          k = 0.0000 0.0000 0.0000 (105382 PWs)   bands (ev):

   -63.0325 -62.9890 -62.9856 -62.9574 -62.9475 -62.9285 -62.8973 -62.8802
   -62.8576 -62.8237 -62.8118 -62.7951 -37.3396 -37.2765 -37.2626 -37.2533
   -37.2336 -37.2204 -37.2086 -37.1848 -37.1797 -37.1667 -37.1598 -37.1454
   -37.1365 -37.1270 -37.1215 -37.1112 -37.1044 -37.0902 -37.0826 -37.0653
   -37.0422 -37.0248 -37.0186 -37.0104 -37.0033 -36.9901 -36.9862 -36.9836
   -36.9796 -36.9606 -36.9424 -36.9353 -36.9009 -36.8975 -36.8129 -36.7947
   -22.4479 -16.0346 -15.2583 -15.2159 -15.0247 -14.9806 -14.8678 -14.6052
   -14.5205 -14.5128 -14.4998 -14.4564 -14.4266 -14.4191 -14.3237 -14.2433
   -14.2108 -14.1994 -14.1358 -13.9839 -13.9567 -13.9395 -13.9172 -13.7227
    -8.1459  -7.8043  -7.7187  -7.5916  -7.4962  -7.3795  -7.3104  -7.2923
    -7.2883  -7.0790  -7.0255  -6.8697  -6.8492  -6.7293  -6.6966  -6.6229
    -6.5964  -6.5142  -6.4170  -6.3590  -6.2386  -6.1010  -6.0210  -5.9545
    -5.8764  -5.8591  -5.8401  -5.8032  -5.7517  -5.7296  -5.6893  -5.6678
    -5.6130  -5.5241  -5.4519  -5.2976  -5.2363  -5.2038  -5.1646  -5.1074
    -5.0739  -5.0441  -4.9933  -4.8812  -4.7760  -4.6149  -4.5059  -4.4152
    -4.3633  -4.3186  -4.2518  -4.1558  -4.0941  -4.0085  -3.9459  -3.8709
    -3.8040  -3.7845  -3.7442  -3.6758  -3.6518  -3.6027  -3.5746  -3.5253
    -3.4921  -3.4770  -3.3448  -3.2672  -3.2192  -3.0333  -2.9716  -2.9115
    -2.8537  -2.8414  -2.8000  -2.7734  -2.7544  -2.7248  -2.6967  -2.4701
    -2.3046  -2.0764  -2.0100  -1.8857  -0.9945  -0.8455  -0.5443  -0.2652
    -0.2029  -0.1541  -0.1225   0.0341   0.0641   0.0748   0.1430   0.1801
     0.2114   0.3314   0.3460   0.4114   0.4594   0.4762   0.5158   0.5646
     0.6148   0.6337   0.6496   0.7047   0.7445   0.8108   0.8216   0.8644
     0.9073   0.9816   1.1854

     the Fermi energy is    -1.4401 ev

!    total energy              =   -2246.35117541 Ry
     estimated scf accuracy    <       0.00000001 Ry
     smearing contrib. (-TS)   =      -0.00000025 Ry
     internal energy E=F+TS    =   -2246.35117517 Ry

     The total energy is F=E-TS. E is the sum of the following terms:
     one-electron contribution =  -18442.17261582 Ry
     hartree contribution      =    9208.90924355 Ry
     xc contribution           =    -392.12993289 Ry
     ewald contribution        =    7388.90114894 Ry
     one-center paw contrib.   =      -9.85901894 Ry

     convergence has been achieved in  10 iterations

     negative rho (up, down):  2.005E-04 0.000E+00

     Forces acting on atoms (cartesian axes, Ry/au):

     atom    1 type  1   force =    -0.00596876   -0.00253655   -0.00370132
     atom    2 type  2   force =    -0.00402317    0.00587699   -0.00224508
     atom    3 type  2   force =    -0.00925748    0.00651789   -0.01130465
     atom    4 type  1   force =     0.00297971   -0.00003429    0.00361827
     atom    5 type  2   force =    -0.00023735   -0.00464592   -0.00393127
     atom    6 type  2   force =     0.00225915    0.00147765    0.00296988
     atom    7 type  1   force =     0.00420672   -0.00682770    0.00111818
     atom    8 type  2   force =     0.00236724   -0.00367178    0.00772196
     atom    9 type  2   force =     0.00983671    0.00418410    0.00126943
     atom   10 type  1   force =     0.00034595    0.00546498    0.00120082
     atom   11 type  2   force =     0.00347065   -0.00379439   -0.01171401
     atom   12 type  2   force =    -0.00516432    0.00058452    0.00075895
     atom   13 type  1   force =     0.00055118    0.00889455    0.01138021
     atom   14 type  2   force =     0.00475894   -0.00215345    0.00820377
     atom   15 type  2   force =    -0.00866786    0.00148820   -0.00350174
     atom   16 type  1   force =     0.00563706    0.01355688   -0.00346166
     atom   17 type  2   force =     0.00055580    0.02716506   -0.04249554
     atom   18 type  2   force =     0.00046170   -0.00741909    0.01026669
     atom   19 type  1   force =     0.00365629   -0.00194191   -0.00072457
     atom   20 type  2   force =     0.00148037   -0.00242222   -0.00623611
     atom   21 type  1   force =    -0.00154095    0.00130665    0.00240071
     atom   22 type  2   force =    -0.00009071   -0.00449293   -0.00269760
     atom   23 type  2   force =     0.00179311   -0.00048210    0.00249863
     atom   24 type  1   force =    -0.00255388   -0.00324953   -0.00222869
     atom   25 type  2   force =     0.00310175    0.00567994   -0.00037322
     atom   26 type  2   force =    -0.00349575   -0.00328891   -0.00393482
     atom   27 type  1   force =    -0.00440164    0.01332551    0.00151899
     atom   28 type  2   force =     0.00204065   -0.00289314   -0.00837549
     atom   29 type  2   force =    -0.00733130   -0.00375772   -0.01257845
     atom   30 type  1   force =    -0.00237835   -0.00284874    0.00332701
     atom   31 type  2   force =    -0.01260696    0.00560385   -0.00733140
     atom   32 type  2   force =    -0.00637990    0.00860098   -0.00347929
     atom   33 type  1   force =    -0.00112353    0.00102830    0.00330881
     atom   34 type  2   force =    -0.00234162   -0.02029167   -0.01416972
     atom   35 type  2   force =    -0.00380805    0.01030777    0.00159504
     atom   36 type  3   force =     0.03186860   -0.04431177    0.08132726
     The non-local contrib.  to forces
     atom    1 type  1   force =     0.00499387    0.02586713   -0.01290299
     atom    2 type  2   force =    -0.00189984   -0.00105001   -0.26963059
     atom    3 type  2   force =    -0.01038698   -0.00378318    0.26306832
     atom    4 type  1   force =     0.00309946    0.01261448    0.01177192
     atom    5 type  2   force =     0.00061215   -0.02760988   -0.25648359
     atom    6 type  2   force =    -0.00034574    0.00220795    0.26252253
     atom    7 type  1   force =    -0.02827543    0.00652702   -0.01442229
     atom    8 type  2   force =     0.00465242   -0.00513371   -0.26574304
     atom    9 type  2   force =     0.00280274   -0.01588083    0.27237725
     atom   10 type  1   force =     0.00188975   -0.00117066   -0.00118610
     atom   11 type  2   force =     0.00943089    0.00297340   -0.26690858
     atom   12 type  2   force =    -0.01383063   -0.01726502    0.25775806
     atom   13 type  1   force =    -0.00009480    0.01823978   -0.02191947
     atom   14 type  2   force =     0.00820657   -0.00831366   -0.26222438
     atom   15 type  2   force =    -0.01413482   -0.01112861    0.26505707
     atom   16 type  1   force =    -0.01907256    0.01162959   -0.02189278
     atom   17 type  2   force =    -0.06836904    0.19486458    0.22299698
     atom   18 type  2   force =    -0.00174101   -0.00293301    0.27701161
     atom   19 type  1   force =     0.00700859   -0.00100726   -0.01834488
     atom   20 type  2   force =    -0.00134204   -0.01888427    0.25866501
     atom   21 type  1   force =     0.00405526    0.02062231    0.00446134
     atom   22 type  2   force =    -0.00492370    0.00073482   -0.26255839
     atom   23 type  2   force =     0.00731005   -0.01931636    0.26625066
     atom   24 type  1   force =     0.00461225    0.01541562   -0.01108963
     atom   25 type  2   force =     0.00314470    0.00025104   -0.26348765
     atom   26 type  2   force =     0.00592607   -0.01506623    0.26755685
     atom   27 type  1   force =     0.01135238   -0.00288271    0.04120493
     atom   28 type  2   force =    -0.00307269   -0.01747170   -0.27985299
     atom   29 type  2   force =    -0.00303279   -0.00607708    0.25435450
     atom   30 type  1   force =     0.00573629    0.01259196    0.01079715
     atom   31 type  2   force =     0.00634775   -0.00113119   -0.25320172
     atom   32 type  2   force =    -0.00115972   -0.01174022    0.27096747
[...]
     atom   28 type  2   force =    -0.00124779   -0.00775212   -0.27925998
     atom   29 type  2   force =    -0.00082575   -0.00820137    0.26511260
     atom   30 type  1   force =    -0.00052538    0.01965000    0.00757129
     atom   31 type  2   force =    -0.00606319    0.00106159   -0.26940759
     atom   32 type  2   force =     0.00569225   -0.01486764    0.26981639
     atom   33 type  1   force =    -0.00800221    0.00441966   -0.00058070
     atom   34 type  2   force =     0.00236154   -0.00821236   -0.27557242
     atom   35 type  2   force =     0.00015817   -0.01534776    0.26716158
     atom   36 type  3   force =    -0.02139104   -0.04346183   -2.31798650
     The ionic contribution  to forces
     atom    1 type  1   force =     0.50090789    0.00357859    1.41107509
     atom    2 type  2   force =    -0.19839073   -0.22603440   38.66600361
     atom    3 type  2   force =     0.04246463   -0.17615239  -37.79349524
     atom    4 type  1   force =     0.09087601    0.46694387   -0.84999526
     atom    5 type  2   force =     0.27275470    1.09612115   37.68616901
     atom    6 type  2   force =     0.28683374   -0.50275441  -38.90421560
     atom    7 type  1   force =    -2.37882372   -1.11129885    0.51045207
     atom    8 type  2   force =    -1.14086927    0.47465350   37.91610306
     atom    9 type  2   force =     0.40721187    0.09254594  -38.57763568
     atom   10 type  1   force =    -0.45564691   -0.42498336    2.71474343
     atom   11 type  2   force =    -0.39765098   -1.44073322   38.30681018
     atom   12 type  2   force =     0.21003444    0.40810681  -38.35645181
     atom   13 type  1   force =     0.07582693   -0.59093630   -1.55511959
     atom   14 type  2   force =     0.54889188   -1.03300911   38.01918301
     atom   15 type  2   force =     0.10841246   -0.22524184  -38.24803152
     atom   16 type  1   force =     0.53094188    3.79176717   -2.56498895
     atom   17 type  2   force =     0.79281951    0.95439083   28.05673712
     atom   18 type  2   force =    -0.19609458   -0.42322832  -38.63529339
     atom   19 type  1   force =     2.69429639   -0.94338689    1.42912653
     atom   20 type  2   force =    -0.06843750    0.20624185  -39.57396143
     atom   21 type  1   force =     0.17228910   -0.72237426    0.24611045
     atom   22 type  2   force =     0.47312869   -1.32655646   38.25404169
     atom   23 type  2   force =    -0.22148490    0.37012346  -38.18220849
     atom   24 type  1   force =    -0.57763346   -0.08823627    1.24978730
     atom   25 type  2   force =    -0.36192300   -0.85471662   38.35009593
     atom   26 type  2   force =    -0.15423321   -0.15763954  -38.22677528
     atom   27 type  1   force =    -0.85491752    0.79797684   -3.58284380
     atom   28 type  2   force =    -0.95601421    0.43037650   37.44133980
     atom   29 type  2   force =    -0.04040596   -0.22007658  -38.36022019
     atom   30 type  1   force =    -0.24657555   -0.07709116    0.97016747
     atom   31 type  2   force =     0.60402272    1.24536001   37.57861491
     atom   32 type  2   force =    -0.32747276    0.19340519  -38.66580856
     atom   33 type  1   force =     0.35312520   -0.88426896    2.36351801
     atom   34 type  2   force =    -0.13061278   -0.47410067   38.81912649
     atom   35 type  2   force =    -0.04056665    0.21190477  -37.87452136
     atom   36 type  3   force =     0.58291565    1.15932314   49.96236099
     The local contribution  to forces
     atom    1 type  1   force =    -0.49883917   -0.02969027   -1.40371652
     atom    2 type  2   force =     0.19795896    0.23561638  -38.41784449
     atom    3 type  2   force =    -0.03920149    0.18467561   37.54583819
     atom    4 type  1   force =    -0.09251695   -0.47730518    0.83669971
     atom    5 type  2   force =    -0.27274497   -1.08067219  -37.44716872
     atom    6 type  2   force =    -0.28753893    0.50380541   38.66356218
     atom    7 type  1   force =     2.39650745    1.09844436   -0.49167039
     atom    8 type  2   force =     1.13233506   -0.47501213  -37.66680548
     atom    9 type  2   force =    -0.39958519   -0.07676016   38.32943380
     atom   10 type  1   force =     0.45368604    0.41923126   -2.71756828
     atom   11 type  2   force =     0.39233508    1.44057319  -38.06614535
     atom   12 type  2   force =    -0.20251874   -0.39266720   38.11445081
     atom   13 type  1   force =    -0.07496993    0.55907213    1.54760734
     atom   14 type  2   force =    -0.54858943    1.04217262  -37.76714182
     atom   15 type  2   force =    -0.10745699    0.23472775   38.00720243
     atom   16 type  1   force =    -0.52158091   -3.81317466    2.58505393
     atom   17 type  2   force =    -0.78277909   -0.95823262  -28.34568771
     atom   18 type  2   force =     0.19534785    0.42657063   38.37954288
     atom   19 type  1   force =    -2.70664383    0.94286898   -1.40569717
     atom   20 type  2   force =     0.06705453   -0.19333750   39.33273759
     atom   21 type  1   force =    -0.17382833    0.69763090   -0.24931122
     atom   22 type  2   force =    -0.46737536    1.32681517  -38.01346700
     atom   23 type  2   force =     0.21196984   -0.35623175   37.93633614
     atom   24 type  1   force =     0.57540220    0.07291279   -1.24838285
     atom   25 type  2   force =     0.36131821    0.86391169  -38.10022389
     atom   26 type  2   force =     0.15068052    0.16685169   37.98109787
     atom   27 type  1   force =     0.84539826   -0.79646105    3.55858503
     atom   28 type  2   force =     0.95703826   -0.42407178  -37.18362544
     atom   29 type  2   force =     0.04131544    0.22727972   38.11565047
     atom   30 type  1   force =     0.24725293    0.05806322   -0.97707203
     atom   31 type  2   force =    -0.59776988   -1.24572621  -37.32940439
     atom   32 type  2   force =     0.32200118   -0.17943913   38.41613398
     atom   33 type  1   force =    -0.34373298    0.87999177   -2.36317787
     atom   34 type  2   force =     0.12929824    0.48221640  -38.56505964
     atom   35 type  2   force =     0.04083590   -0.19731334   37.62913967
     atom   36 type  3   force =    -0.56266769   -1.11683402  -47.66978533
     The core correction contribution to forces
     atom    1 type  1   force =     0.00000000    0.00000000    0.00000000
     atom    2 type  2   force =    -0.00006759    0.00039731    0.02098900
     atom    3 type  2   force =     0.00018420    0.00028549   -0.02095039
     atom    4 type  1   force =     0.00000000    0.00000000    0.00000000
     atom    5 type  2   force =    -0.00020192    0.00073283    0.02087615
     atom    6 type  2   force =     0.00016782   -0.00052361   -0.02075507
     atom    7 type  1   force =     0.00000000    0.00000000    0.00000000
     atom    8 type  2   force =    -0.00048285    0.00033192    0.02110431
     atom    9 type  2   force =     0.00084169    0.00078099   -0.02101215
     atom   10 type  1   force =     0.00000000    0.00000000    0.00000000
     atom   11 type  2   force =    -0.00017484   -0.00040254    0.02075537
     atom   12 type  2   force =     0.00065721    0.00114237   -0.02081677
     atom   13 type  1   force =     0.00000000    0.00000000    0.00000000
     atom   14 type  2   force =     0.00006918    0.00017458    0.02132610
     atom   15 type  2   force =     0.00019064    0.00045850   -0.02067773
     atom   16 type  1   force =     0.00000000    0.00000000    0.00000000
     atom   17 type  2   force =     0.00072470   -0.00030205   -0.00995249
     atom   18 type  2   force =    -0.00015840   -0.00030310   -0.02128077
     atom   19 type  1   force =     0.00000000    0.00000000    0.00000000
     atom   20 type  2   force =    -0.00020194    0.00072981   -0.02116232
     atom   21 type  1   force =     0.00000000    0.00000000    0.00000000
     atom   22 type  2   force =     0.00010103   -0.00021909    0.02069596
     atom   23 type  2   force =    -0.00081207    0.00096776   -0.02087345
     atom   24 type  1   force =     0.00000000    0.00000000    0.00000000
     atom   25 type  2   force =    -0.00004846    0.00044305    0.02124299
     atom   26 type  2   force =    -0.00029465    0.00036570   -0.02090316
     atom   27 type  1   force =     0.00000000    0.00000000    0.00000000
     atom   28 type  2   force =     0.00008691    0.00060497    0.02153191
     atom   29 type  2   force =     0.00005420    0.00013537   -0.02067976
     atom   30 type  1   force =     0.00000000    0.00000000    0.00000000
     atom   31 type  2   force =     0.00033704    0.00021785    0.02120428
     atom   32 type  2   force =    -0.00050664    0.00083497   -0.02101789
     atom   33 type  1   force =     0.00000000    0.00000000    0.00000000
     atom   34 type  2   force =    -0.00013767    0.00025766    0.02134683
     atom   35 type  2   force =    -0.00003927    0.00090635   -0.02097788
     atom   36 type  3   force =     0.00024246    0.00043822    0.02459603
     The Hubbard contrib.    to forces
     atom    1 type  1   force =     0.00000000    0.00000000    0.00000000
     atom    2 type  2   force =     0.00000000    0.00000000    0.00000000
     atom    3 type  2   force =     0.00000000    0.00000000    0.00000000
     atom    4 type  1   force =     0.00000000    0.00000000    0.00000000
     atom    5 type  2   force =     0.00000000    0.00000000    0.00000000
     atom    6 type  2   force =     0.00000000    0.00000000    0.00000000
     atom    7 type  1   force =     0.00000000    0.00000000    0.00000000
     atom    8 type  2   force =     0.00000000    0.00000000    0.00000000
     atom    9 type  2   force =     0.00000000    0.00000000    0.00000000
     atom   10 type  1   force =     0.00000000    0.00000000    0.00000000
     atom   11 type  2   force =     0.00000000    0.00000000    0.00000000
     atom   12 type  2   force =     0.00000000    0.00000000    0.00000000
     atom   13 type  1   force =     0.00000000    0.00000000    0.00000000
     atom   14 type  2   force =     0.00000000    0.00000000    0.00000000
     atom   15 type  2   force =     0.00000000    0.00000000    0.00000000
     atom   16 type  1   force =     0.00000000    0.00000000    0.00000000
     atom   17 type  2   force =     0.00000000    0.00000000    0.00000000
     atom   18 type  2   force =     0.00000000    0.00000000    0.00000000
     atom   19 type  1   force =     0.00000000    0.00000000    0.00000000
     atom   20 type  2   force =     0.00000000    0.00000000    0.00000000
     atom   21 type  1   force =     0.00000000    0.00000000    0.00000000
     atom   22 type  2   force =     0.00000000    0.00000000    0.00000000
     atom   23 type  2   force =     0.00000000    0.00000000    0.00000000
     atom   24 type  1   force =     0.00000000    0.00000000    0.00000000
     atom   25 type  2   force =     0.00000000    0.00000000    0.00000000
     atom   26 type  2   force =     0.00000000    0.00000000    0.00000000
     atom   27 type  1   force =     0.00000000    0.00000000    0.00000000
     atom   28 type  2   force =     0.00000000    0.00000000    0.00000000
     atom   29 type  2   force =     0.00000000    0.00000000    0.00000000
     atom   30 type  1   force =     0.00000000    0.00000000    0.00000000
     atom   31 type  2   force =     0.00000000    0.00000000    0.00000000
     atom   32 type  2   force =     0.00000000    0.00000000    0.00000000
     atom   33 type  1   force =     0.00000000    0.00000000    0.00000000
     atom   34 type  2   force =     0.00000000    0.00000000    0.00000000
     atom   35 type  2   force =     0.00000000    0.00000000    0.00000000
     atom   36 type  3   force =     0.00000000    0.00000000    0.00000000
     The SCF correction term to forces
     atom    1 type  1   force =     0.00001049    0.00003753    0.00002009
     atom    2 type  2   force =    -0.00000079   -0.00000193    0.00001337
     atom    3 type  2   force =     0.00000079   -0.00000441   -0.00000018
     atom    4 type  1   force =     0.00000779    0.00004651    0.00001585
     atom    5 type  2   force =    -0.00000053    0.00003608    0.00000928
     atom    6 type  2   force =     0.00000875    0.00003521    0.00001022
     atom    7 type  1   force =     0.00000998   -0.00002722    0.00002908
     atom    8 type  2   force =    -0.00000328   -0.00000637    0.00000287
     atom    9 type  2   force =    -0.00000177   -0.00000636    0.00000887
     atom   10 type  1   force =    -0.00000710   -0.00004628    0.00002283
     atom   11 type  2   force =     0.00000039   -0.00002785    0.00001165
     atom   12 type  2   force =     0.00000583   -0.00002473    0.00000562
     atom   13 type  1   force =    -0.00001101    0.00004485   -0.00000539
     atom   14 type  2   force =     0.00000624   -0.00000038    0.00001164
     atom   15 type  2   force =     0.00000271   -0.00000176   -0.00000111
     atom   16 type  1   force =    -0.00000089    0.00007752    0.00003542
     atom   17 type  2   force =    -0.00000654    0.00008249    0.00001707
     atom   18 type  2   force =    -0.00001297    0.00003057    0.00001152
     atom   19 type  1   force =    -0.00001190   -0.00005987    0.00004647
     atom   20 type  2   force =    -0.00000012   -0.00000354    0.00001442
     atom   21 type  1   force =     0.00000896   -0.00006314    0.00001911
     atom   22 type  2   force =    -0.00000481   -0.00003824    0.00001702
     atom   23 type  2   force =    -0.00000460   -0.00002506    0.00000827
     atom   24 type  1   force =    -0.00000222    0.00004507    0.00001343
     atom   25 type  2   force =    -0.00000756   -0.00000316    0.00000718
     atom   26 type  2   force =    -0.00000248   -0.00000232    0.00000214
     atom   27 type  1   force =    -0.00001516    0.00008783    0.00002362
     atom   28 type  2   force =     0.00000794    0.00003949   -0.00000131
     atom   29 type  2   force =     0.00000561    0.00004037    0.00001973
     atom   30 type  1   force =     0.00001364   -0.00005842    0.00002511
     atom   31 type  2   force =     0.00001852   -0.00001963    0.00001299
     atom   32 type  2   force =     0.00000259   -0.00002076    0.00002063
     atom   33 type  1   force =    -0.00000028   -0.00005697    0.00002258
     atom   34 type  2   force =     0.00000121   -0.00002210    0.00001253
     atom   35 type  2   force =    -0.00000268   -0.00002303    0.00000145
     atom   36 type  3   force =     0.00000970    0.00018368    0.00004258

     Total force =     0.006275     Total SCF correction =     0.000325
     Energy error            =      8.0E-05 Ry
     Gradient error          =      1.5E-03 Ry/Bohr

     bfgs converged in  24 scf cycles and  23 bfgs steps
     (criteria: energy <  1.0E-04 Ry, force <  1.0E-02 Ry/Bohr)

     End of BFGS Geometry Optimization

     Final energy             =   -2246.4442820117 Ry

     File ./MoS2-V-O.bfgs deleted, as requested
Begin final coordinates

ATOMIC_POSITIONS (angstrom)
Mo            6.5480291233        1.8022862133        2.7652196652
S             8.1179942255        0.8894981359        4.3784671241
S             8.1292392181        0.8746049665        1.1866361051
Mo            8.1079117483        4.5275672278        2.7103757715
S             6.5002196390        3.7272040612        4.3149547556
S             6.5537310867        3.5904654235        1.0999667330
Mo            6.5255630878        7.2165635325        2.6497196900
S             8.0793016331        6.3420086725        4.2969232134
S             8.1523088372        6.3597864202        1.1026380381
Mo            8.1262687529        9.9699619842        2.7799340057
S             6.5112654109        8.9679354372        4.3211190515
S             6.5879888457        9.0743652736        1.1271849263
Mo            3.4120918488        1.7512134446        2.7453226808
S             4.9860382398        0.8498537469        4.3501659176
S             4.9999971421        0.8669403809        1.1615617086
Mo            5.0145557499        4.5963920973        2.6344998009
S             3.4585123158        3.6774421753        4.2097458273
S             3.4222141485        3.5920305145        1.1215205115
Mo            3.4757010424        7.2168965244        2.6738784886
S             4.9926273789        6.3699445611        1.0232251810
Mo            4.9920988681        9.9438920977        2.7337080885
S             3.4619914146        8.9800362991        4.3283525464
S             3.3877990060        9.0675052686        1.1397458149
Mo            0.2550444904        1.7787829589        2.7742666821
S             1.8414361833        0.8779193461        4.3766786858
S             1.8149267198        0.8574312988        1.1708600600
Mo            1.8376758810        4.5465540539        2.6982418318
S             0.2585451534        3.6539536764        4.3142153432
S             0.2465615350        3.5864602872        1.1403820260
Mo            0.2672603378        7.2504918730        2.7375202218
S             1.9069139227        6.3342069462        4.3092589562
S             1.8522331281        6.3791954070        1.1059583687
Mo            1.8318648820        9.9678675584        2.7783807813
S             0.2506150265        9.0529857102        4.3719147794
S             0.2507089855        9.0868317445        1.1789090842
O             3.4673653365        3.7111599802        5.7088874056
End final coordinates



     Writing all to output data dir ./MoS2-V-O.save/
 
     init_run     :      4.55s CPU      5.08s WALL (       1 calls)
     electrons    :   2308.95s CPU   2612.32s WALL (      24 calls)
     update_pot   :     73.08s CPU     77.87s WALL (      23 calls)
     forces       :     65.58s CPU     74.94s WALL (      24 calls)

     Called by init_run:
     wfcinit      :      0.48s CPU      0.54s WALL (       1 calls)
     potinit      :      2.33s CPU      2.57s WALL (       1 calls)
     hinit0       :      0.44s CPU      0.47s WALL (       1 calls)

     Called by electrons:
     c_bands      :    328.35s CPU    336.58s WALL (     231 calls)
     sum_band     :    130.24s CPU    167.78s WALL (     231 calls)
     v_of_rho     :    216.63s CPU    264.33s WALL (     247 calls)
     newd         :     76.52s CPU    111.62s WALL (     247 calls)
     PAW_pot      :      9.78s CPU      9.81s WALL (     270 calls)
     mix_rho      :   1571.29s CPU   1748.53s WALL (     231 calls)

     Called by c_bands:
     init_us_2    :      5.27s CPU      5.72s WALL (     486 calls)
     init_us_2:cp :      5.27s CPU      5.72s WALL (     486 calls)
     regterg      :    310.92s CPU    318.68s WALL (     231 calls)

     Called by *egterg:
     rdiaghg      :     20.86s CPU     21.06s WALL (    1183 calls)
     h_psi        :    202.13s CPU    203.78s WALL (    1215 calls)
     s_psi        :     19.24s CPU     19.30s WALL (    1215 calls)
     g_psi        :      0.98s CPU      0.99s WALL (     983 calls)

     Called by h_psi:
     h_psi:calbec :     21.97s CPU     22.07s WALL (    1215 calls)
     vloc_psi     :    158.46s CPU    159.89s WALL (    1215 calls)
     add_vuspsi   :     19.19s CPU     19.29s WALL (    1215 calls)

     General routines
     calbec       :     32.12s CPU     32.29s WALL (    1565 calls)
     fft          :    150.20s CPU    173.85s WALL (   16466 calls)
     ffts         :    698.03s CPU    869.02s WALL (  385445 calls)
     fftw         :    101.31s CPU    102.09s WALL (  140406 calls)
     interpolate  :      3.09s CPU      3.51s WALL (     247 calls)
 
     Parallel routines
 
     PWSCF        :  41m 2.68s CPU  46m25.48s WALL

 
   This run was terminated on:  17: 9:28   1Nov2023            

=------------------------------------------------------------------------------=
   JOB DONE.
=------------------------------------------------------------------------------=
