
     Program PWSCF v.7.2 starts on  1Nov2023 at 20:10:51 

     This program is part of the open-source Quantum ESPRESSO suite
     for quantum simulation of materials; please cite
         "P. Giannozzi et al., J. Phys.:Condens. Matter 21 395502 (2009);
         "P. Giannozzi et al., J. Phys.:Condens. Matter 29 465901 (2017);
         "P. Giannozzi et al., J. Chem. Phys. 152 154105 (2020);
          URL http://www.quantum-espresso.org", 
     in publications or presentations arising from this work. More details at
     http://www.quantum-espresso.org/quote

     Parallel version (MPI & OpenMP), running on      48 processor cores
     Number of MPI processes:                48
     Threads/MPI process:                     1

     MPI processes distributed on     1 nodes
     57934 MiB available memory on the printing compute node when the environment starts
 
     Waiting for input...
     Reading input from standard input
Warning: card &CELL ignored
Warning: card CELL_DYNAMICS = 'BFGS', ignored
Warning: card CELL_DOFREE = '2DXY' ignored
Warning: card / ignored

     Current dimensions of program PWSCF are:
     Max number of different atomic species (ntypx) = 10
     Max number of k-points (npk) =  40000
     Max angular momentum in pseudopotentials (lmaxx) =  4
     file O.pbe-n-kjpaw_psl.0.1.UPF: wavefunction(s)  2P renormalized

     IMPORTANT: XC functional enforced from input :
     Exchange-correlation= RVV10
                           (   1   4  13   4  26   0   0)
     Any further DFT definition will be discarded
     Please, verify this is what you really want


     gamma-point specific algorithms are used
     signal trapping enabled: kill the code with -SIGUSR1 to stop cleanly the simulation 
 
     R & G space division:  proc/nbgrp/npool/nimage =      48
     Subspace diagonalization in iterative solution of the eigenvalue problem:
     one sub-group per band group will be used
     scalapack distributed-memory algorithm (size of sub-group:  2*  2 procs)

 
     Parallelization info
     --------------------
     sticks:   dense  smooth     PW     G-vecs:    dense   smooth      PW
     Min         396     194     47               101632    35090    4376
     Max         398     196     50               101674    35128    4410
     Sum       19091    9389   2349              4879585  1685513  210763
 
     Using Slab Decomposition
 


     bravais-lattice index     =            0
     lattice parameter (alat)  =      17.8707  a.u.
     unit-cell volume          =   17436.2743 (a.u.)^3
     number of atoms/cell      =           36
     number of atomic types    =            3
     number of electrons       =       312.00
     number of Kohn-Sham states=          187
     kinetic-energy cutoff     =      80.0000  Ry
     charge density cutoff     =     650.0000  Ry
     scf convergence threshold =      1.0E-06
     mixing beta               =       0.7000
     number of iterations used =            8  local-TF  mixing
     energy convergence thresh.=      1.0E-04
     force convergence thresh. =      1.0E-02
     Exchange-correlation= RVV10
                           (   1   4  13   4  26   0   0)
     nstep                     =          200


     celldm(1)=  17.870686  celldm(2)=   0.000000  celldm(3)=   0.000000
     celldm(4)=   0.000000  celldm(5)=   0.000000  celldm(6)=   0.000000

     crystal axes: (cart. coord. in units of alat)
               a(1) = (   1.000000   0.000000   0.000000 )  
               a(2) = (   0.000000   1.155671   0.000000 )  
               a(3) = (   0.000000   0.000000   2.643601 )  

     reciprocal axes: (cart. coord. in units 2 pi/alat)
               b(1) = (  1.000000  0.000000  0.000000 )  
               b(2) = (  0.000000  0.865298  0.000000 )  
               b(3) = (  0.000000  0.000000  0.378272 )  


     PseudoPot. # 1 for Mo read from file:
     ../pseudo/Mo_ONCV_PBE-1.0.oncvpsp.upf
     MD5 check sum: 1b5d28e075c9ccadda658a603575cd1f
     Pseudo is Norm-conserving, Zval = 14.0
     Generated using ONCVPSP code by D. R. Hamann
     Using radial grid of 1526 points,  6 beta functions with: 
                l(1) =   0
                l(2) =   0
                l(3) =   1
                l(4) =   1
                l(5) =   2
                l(6) =   2

     PseudoPot. # 2 for S  read from file:
     ../pseudo/s_pbe_v1.4.uspp.F.UPF
     MD5 check sum: 88d86576ff6df21479756cfb9bdac1df
     Pseudo is Ultrasoft + core correction, Zval =  6.0
     Generated by new atomic code, or converted to UPF format
     Using radial grid of  907 points,  6 beta functions with: 
                l(1) =   0
                l(2) =   0
                l(3) =   1
                l(4) =   1
                l(5) =   2
                l(6) =   2
     Q(r) pseudized with  8 coefficients,  rinner =    1.300   1.300   1.300
                                                       1.300   1.300

     PseudoPot. # 3 for O  read from file:
     ../pseudo/O.pbe-n-kjpaw_psl.0.1.UPF
     MD5 check sum: 0234752ac141de4415c5fc33072bef88
     Pseudo is Projector augmented-wave + core cor, Zval =  6.0
     Generated using "atomic" code by A. Dal Corso  v.5.0.99 svn rev. 10869
     Shape of augmentation charge: BESSEL
     Using radial grid of 1095 points,  4 beta functions with: 
                l(1) =   0
                l(2) =   0
                l(3) =   1
                l(4) =   1
     Q(r) pseudized with 0 coefficients 


     atomic species   valence    mass     pseudopotential
        Mo            14.00    95.94000     Mo( 1.00)
        S              6.00    32.06500     S ( 1.00)
        O              6.00    15.99940     O ( 1.00)

     No symmetry found



   Cartesian axes

     site n.     atom                  positions (alat units)
         1           Mo  tau(   1) = (   0.6952221   0.1890506   0.2985846  )
         2           S   tau(   2) = (   0.8646417   0.0856217   0.4689279  )
         3           S   tau(   3) = (   0.8663890   0.0857843   0.1351291  )
         4           Mo  tau(   4) = (   0.8560186   0.4753274   0.2873942  )
         5           S   tau(   5) = (   0.6873294   0.3936244   0.4596353  )
         6           S   tau(   6) = (   0.6929804   0.3713468   0.1185692  )
         7           Mo  tau(   7) = (   0.6862796   0.7633098   0.2825370  )
         8           S   tau(   8) = (   0.8545980   0.6708292   0.4486168  )
         9           S   tau(   9) = (   0.8545123   0.6666874   0.1146125  )
        10           Mo  tau(  10) = (   0.8629403   1.0471007   0.3006803  )
        11           S   tau(  11) = (   0.6868280   0.9456650   0.4634891  )
        12           S   tau(  12) = (   0.6998113   0.9568511   0.1205389  )
        13           Mo  tau(  13) = (   0.3618216   0.1847309   0.2935964  )
        14           S   tau(  14) = (   0.5260962   0.0863870   0.4600448  )
        15           S   tau(  15) = (   0.5348379   0.0894875   0.1297123  )
        16           Mo  tau(  16) = (   0.5265817   0.4772436   0.2784130  )
        17           S   tau(  17) = (   0.3624753   0.3882513   0.4525556  )
        18           S   tau(  18) = (   0.3635411   0.3752055   0.1119148  )
        19           Mo  tau(  19) = (   0.3652268   0.7630864   0.2781795  )
        20           S   tau(  20) = (   0.5269494   0.6690381   0.1096838  )
        21           Mo  tau(  21) = (   0.5300192   1.0470394   0.2900995  )
        22           S   tau(  22) = (   0.3670346   0.9457522   0.4574073  )
        23           S   tau(  23) = (   0.3604225   0.9585725   0.1159032  )
        24           Mo  tau(  24) = (   0.0313099   0.1847895   0.3013130  )
        25           S   tau(  25) = (   0.1956761   0.0838230   0.4650863  )
        26           S   tau(  26) = (   0.1967693   0.0903508   0.1278874  )
        27           Mo  tau(  27) = (   0.1967578   0.4753919   0.2813011  )
        28           S   tau(  28) = (   0.0287851   0.3864324   0.4586755  )
        29           S   tau(  29) = (   0.0244514   0.3729871   0.1239344  )
        30           Mo  tau(  30) = (   0.0286728   0.7631204   0.2856894  )
        31           S   tau(  31) = (   0.2011512   0.6675435   0.4465001  )
        32           S   tau(  32) = (   0.1969214   0.6672839   0.1104564  )
        33           Mo  tau(  33) = (   0.1950294   1.0511147   0.2932237  )
        34           S   tau(  34) = (   0.0312912   0.9612169   0.4667423  )
        35           S   tau(  35) = (   0.0292670   0.9563028   0.1216485  )
        36           O   tau(  36) = (   0.0000000   0.8988550   0.5792558  )

     number of k points=     1  Gaussian smearing, width (Ry)=  0.0100
                       cart. coord. in units 2pi/alat
        k(    1) = (   0.0000000   0.0000000   0.0000000), wk =   2.0000000

     Dense  grid:  2439793 G-vectors     FFT dimensions: ( 150, 180, 384)

     Smooth grid:   842757 G-vectors     FFT dimensions: ( 108, 120, 270)

     Estimated max dynamical RAM per process >     269.22 MB

     Estimated total dynamical RAM >      12.62 GB

     Initial potential from superposition of free atoms

     starting charge     311.9873, renormalised to     312.0000

     negative rho (up, down):  2.755E-04 0.000E+00


---------------------------------------------------------------------------------
Carrying out rVV10 run using the following parameters:
Nqs =      20    Nr_points =    1024   r_max =   100.000
b_value =  6.30000    beta =  0.00901
     q_mesh =  0.00010000  0.00030000  0.00058939  0.00100810
               0.00161396  0.00249058  0.00375900  0.00559430
               0.00824984  0.01209221  0.01765183  0.02569619
               0.03733578  0.05417739  0.07854596  0.11380545
               0.16482331  0.23864234  0.34545298  0.50000000

Gradients computed in Reciprocal space

---------------------------------------------------------------------------------


     Starting wfcs are  216 randomized atomic wfcs
     Checking if some PAW data can be deallocated... 

     total cpu time spent up to now is        6.0 secs

     Self-consistent Calculation

     iteration #  1     ecut=    80.00 Ry     beta= 0.70
     Davidson diagonalization with overlap
     ethr =  1.00E-02,  avg # of iterations =  2.0

     Threshold (ethr) on eigenvalues was too large:
     Diagonalizing with lowered threshold

     Davidson diagonalization with overlap
     ethr =  4.66E-04,  avg # of iterations =  4.0

     negative rho (up, down):  3.916E-08 0.000E+00

     total cpu time spent up to now is       20.4 secs

     total energy              =   -2246.15667242 Ry
     estimated scf accuracy    <       1.70224402 Ry

     iteration #  2     ecut=    80.00 Ry     beta= 0.70
     Davidson diagonalization with overlap
     ethr =  5.46E-04,  avg # of iterations =  4.0

     total cpu time spent up to now is       24.9 secs

     total energy              =   -2246.14517792 Ry
     estimated scf accuracy    <       0.56435784 Ry

     iteration #  3     ecut=    80.00 Ry     beta= 0.70
     Davidson diagonalization with overlap
     ethr =  1.81E-04,  avg # of iterations =  2.0

     total cpu time spent up to now is       28.9 secs

     total energy              =   -2246.16371708 Ry
     estimated scf accuracy    <       0.10828839 Ry

     iteration #  4     ecut=    80.00 Ry     beta= 0.70
     Davidson diagonalization with overlap
     ethr =  3.47E-05,  avg # of iterations = 20.0

     total cpu time spent up to now is       34.0 secs

     total energy              =   -2246.18021271 Ry
     estimated scf accuracy    <       0.02249559 Ry

     iteration #  5     ecut=    80.00 Ry     beta= 0.70
     Davidson diagonalization with overlap
     ethr =  7.21E-06,  avg # of iterations =  2.0

     total cpu time spent up to now is       37.7 secs

     total energy              =   -2246.17970574 Ry
     estimated scf accuracy    <       0.01417304 Ry

     iteration #  6     ecut=    80.00 Ry     beta= 0.70
     Davidson diagonalization with overlap
     ethr =  4.54E-06,  avg # of iterations =  1.0

     total cpu time spent up to now is       41.2 secs

     total energy              =   -2246.17849093 Ry
     estimated scf accuracy    <       0.00920694 Ry

     iteration #  7     ecut=    80.00 Ry     beta= 0.70
     Davidson diagonalization with overlap
     ethr =  2.95E-06,  avg # of iterations =  2.0

     negative rho (up, down):  7.416E-05 0.000E+00

     total cpu time spent up to now is       48.0 secs

     total energy              =   -2246.17766733 Ry
     estimated scf accuracy    <       0.00512667 Ry

     iteration #  8     ecut=    80.00 Ry     beta= 0.70
     Davidson diagonalization with overlap
     ethr =  1.64E-06,  avg # of iterations =  9.0

     negative rho (up, down):  1.617E-02 0.000E+00

     total cpu time spent up to now is       54.0 secs

     total energy              =   -2246.17710381 Ry
     estimated scf accuracy    <       0.00300880 Ry

     iteration #  9     ecut=    80.00 Ry     beta= 0.70
     Davidson diagonalization with overlap
     ethr =  9.64E-07,  avg # of iterations =  2.0

     negative rho (up, down):  3.004E-02 0.000E+00

     total cpu time spent up to now is       59.4 secs

     total energy              =   -2246.17703868 Ry
     estimated scf accuracy    <       0.00156367 Ry

     iteration # 10     ecut=    80.00 Ry     beta= 0.70
     Davidson diagonalization with overlap
     ethr =  5.01E-07,  avg # of iterations =  2.0

     negative rho (up, down):  2.015E-02 0.000E+00

     total cpu time spent up to now is       65.9 secs

     total energy              =   -2246.17703419 Ry
     estimated scf accuracy    <       0.00052436 Ry

     iteration # 11     ecut=    80.00 Ry     beta= 0.70
     Davidson diagonalization with overlap
     ethr =  1.68E-07,  avg # of iterations =  2.0

     negative rho (up, down):  9.065E-03 0.000E+00

     total cpu time spent up to now is       73.6 secs

     total energy              =   -2246.17704115 Ry
     estimated scf accuracy    <       0.00006546 Ry

     iteration # 12     ecut=    80.00 Ry     beta= 0.70
     Davidson diagonalization with overlap
     ethr =  2.10E-08,  avg # of iterations =  6.0

     negative rho (up, down):  3.366E-03 0.000E+00

     total cpu time spent up to now is       83.4 secs

     total energy              =   -2246.17709108 Ry
     estimated scf accuracy    <       0.00001407 Ry

     iteration # 13     ecut=    80.00 Ry     beta= 0.70
     Davidson diagonalization with overlap
     ethr =  4.51E-09,  avg # of iterations =  2.0

     negative rho (up, down):  3.675E-04 0.000E+00

     total cpu time spent up to now is       92.0 secs

     total energy              =   -2246.17709630 Ry
     estimated scf accuracy    <       0.00000380 Ry

     iteration # 14     ecut=    80.00 Ry     beta= 0.70
     Davidson diagonalization with overlap
     ethr =  1.22E-09,  avg # of iterations =  2.0

     negative rho (up, down):  2.336E-04 0.000E+00

     total cpu time spent up to now is       95.6 secs

     End of self-consistent calculation

          k = 0.0000 0.0000 0.0000 (105382 PWs)   bands (ev):

   -62.9709 -62.9339 -62.9109 -62.8922 -62.8846 -62.8784 -62.8698 -62.8432
   -62.8263 -62.8041 -62.7597 -62.5461 -37.2845 -37.2413 -37.1999 -37.1971
   -37.1736 -37.1615 -37.1594 -37.1471 -37.1255 -37.1058 -37.0968 -37.0904
   -37.0748 -37.0666 -37.0619 -37.0569 -37.0421 -37.0360 -37.0214 -37.0034
   -37.0002 -36.9891 -36.9759 -36.9693 -36.9663 -36.9603 -36.9526 -36.9149
   -36.9091 -36.8795 -36.8542 -36.8106 -36.7975 -36.7603 -36.6563 -36.6406
   -26.6541 -15.9709 -15.1975 -15.1352 -14.9945 -14.9060 -14.8042 -14.5204
   -14.5045 -14.4787 -14.4309 -14.3724 -14.3671 -14.3060 -14.2804 -14.1640
   -14.1428 -14.1259 -14.0495 -14.0311 -13.8643 -13.8377 -13.8155 -13.2895
    -9.4516  -9.3506  -8.3366  -7.5905  -7.4782  -7.2839  -7.2419  -7.2199
    -7.1562  -7.1394  -7.0955  -6.8354  -6.8036  -6.7527  -6.7097  -6.6206
    -6.5141  -6.4552  -6.3289  -6.2785  -6.2623  -6.1301  -5.9422  -5.8803
    -5.8755  -5.8451  -5.8245  -5.7623  -5.6937  -5.6629  -5.6194  -5.5638
    -5.5382  -5.4718  -5.4577  -5.4207  -5.3171  -5.2992  -5.1569  -5.0812
    -5.0192  -4.9520  -4.9109  -4.8348  -4.6967  -4.6165  -4.5573  -4.4589
    -4.3420  -4.3009  -4.2026  -4.1674  -4.0682  -4.0606  -3.8484  -3.8302
    -3.7851  -3.7296  -3.6673  -3.6400  -3.5993  -3.5281  -3.4955  -3.4878
    -3.4261  -3.4054  -3.3813  -3.3077  -3.0805  -3.0339  -2.9573  -2.8928
    -2.8252  -2.7540  -2.7427  -2.7205  -2.6668  -2.6390  -2.5787  -2.3478
    -2.2904  -2.0755  -1.9835  -1.7356  -0.8486  -0.7663  -0.4339  -0.2050
    -0.1468  -0.0916  -0.0473   0.0738   0.0956   0.1712   0.2334   0.2495
     0.2731   0.3886   0.4484   0.4826   0.5100   0.5387   0.5626   0.6129
     0.6729   0.7259   0.7311   0.7764   0.8385   0.8769   0.8974   0.9619
     0.9690   1.0312   1.1341

     the Fermi energy is    -1.2922 ev

!    total energy              =   -2246.17709680 Ry
     estimated scf accuracy    <       0.00000047 Ry
     smearing contrib. (-TS)   =      -0.00000028 Ry
     internal energy E=F+TS    =   -2246.17709652 Ry

     The total energy is F=E-TS. E is the sum of the following terms:
     one-electron contribution =  -18444.45133702 Ry
     hartree contribution      =    9210.30992464 Ry
     xc contribution           =    -392.50222977 Ry
     ewald contribution        =    7390.30429124 Ry
     one-center paw contrib.   =      -9.83774561 Ry

     convergence has been achieved in  14 iterations

     negative rho (up, down):  2.336E-04 0.000E+00

     Forces acting on atoms (cartesian axes, Ry/au):

     atom    1 type  1   force =     0.01385288   -0.02688257    0.00379477
     atom    2 type  2   force =    -0.01396698    0.02091346    0.00355618
     atom    3 type  2   force =    -0.01024266    0.01449977   -0.00375586
     atom    4 type  1   force =     0.00412281    0.00525563   -0.00175425
     atom    5 type  2   force =    -0.00138302   -0.00525849   -0.00664721
     atom    6 type  2   force =     0.00092010    0.01121193   -0.00003126
     atom    7 type  1   force =     0.00657703   -0.01407498   -0.00843837
     atom    8 type  2   force =     0.00118722   -0.00601858    0.01840858
     atom    9 type  2   force =     0.00804580    0.00629254    0.01242315
     atom   10 type  1   force =    -0.01252972    0.00922570   -0.01921059
     atom   11 type  2   force =     0.00640839   -0.00063942   -0.01023224
     atom   12 type  2   force =    -0.00179196   -0.00226097    0.00432450
     atom   13 type  1   force =     0.00480124    0.00388074   -0.00696055
     atom   14 type  2   force =     0.00803088    0.00010819    0.01301496
     atom   15 type  2   force =    -0.01223028    0.00378498   -0.00841496
     atom   16 type  1   force =    -0.00036521    0.01040799    0.00505193
     atom   17 type  2   force =     0.00601594    0.00092969    0.00123585
     atom   18 type  2   force =    -0.00340501   -0.00595000    0.01336452
     atom   19 type  1   force =     0.00300288   -0.01122663   -0.00716936
     atom   20 type  2   force =     0.00242356   -0.00474546    0.00035258
     atom   21 type  1   force =    -0.00472217    0.00459660    0.00561460
     atom   22 type  2   force =    -0.00079686   -0.00165980   -0.00642044
     atom   23 type  2   force =    -0.00262680   -0.00052551    0.00588353
     atom   24 type  1   force =    -0.01163843   -0.00301519   -0.01847946
     atom   25 type  2   force =     0.01773781    0.02692369    0.00830092
     atom   26 type  2   force =    -0.01209796    0.00129209   -0.00690489
     atom   27 type  1   force =     0.00145944    0.00135155    0.00576333
     atom   28 type  2   force =     0.00104968   -0.00142108   -0.00463309
     atom   29 type  2   force =     0.00291871   -0.00112567   -0.00175531
     atom   30 type  1   force =     0.00423827    0.00203816   -0.05814843
     atom   31 type  2   force =    -0.00136186    0.00239852    0.02177520
     atom   32 type  2   force =    -0.00474700    0.00610300    0.00848440
     atom   33 type  1   force =     0.02910064   -0.01056589    0.02437236
     atom   34 type  2   force =     0.17397947    0.36696253   -0.92968922
     atom   35 type  2   force =    -0.00782403    0.00627911    0.01592211
     atom   36 type  3   force =    -0.19414281   -0.40908566    0.92700200
     The non-local contrib.  to forces
     atom    1 type  1   force =    -0.00403562    0.03213040   -0.01073736
     atom    2 type  2   force =    -0.00796525   -0.01135739   -0.26938011
     atom    3 type  2   force =    -0.01309059    0.00362240    0.26751121
     atom    4 type  1   force =    -0.00127453    0.00670287    0.00296538
     atom    5 type  2   force =     0.00515492   -0.03403656   -0.25243246
     atom    6 type  2   force =    -0.00131468    0.01057428    0.26391026
     atom    7 type  1   force =    -0.01313591    0.00500597   -0.01864637
     atom    8 type  2   force =    -0.01071416   -0.01374101   -0.25431771
     atom    9 type  2   force =    -0.00137740   -0.00913307    0.27692526
     atom   10 type  1   force =     0.03935280   -0.01074684    0.02227359
     atom   11 type  2   force =     0.00873411    0.01074435   -0.26188503
     atom   12 type  2   force =    -0.01537163   -0.01801261    0.25914682
     atom   13 type  1   force =     0.00283688    0.02236992   -0.00809333
     atom   14 type  2   force =     0.01139896   -0.01168758   -0.26434523
     atom   15 type  2   force =    -0.01360865   -0.00621232    0.26197701
     atom   16 type  1   force =    -0.00032997    0.03172658   -0.03239295
     atom   17 type  2   force =     0.00363001   -0.03075198   -0.24926355
     atom   18 type  2   force =    -0.00405788   -0.00436948    0.27446870
     atom   19 type  1   force =     0.00721109    0.00206871   -0.01434416
     atom   20 type  2   force =    -0.00037955   -0.02125101    0.26720392
     atom   21 type  1   force =     0.00415266    0.03488846    0.01103559
     atom   22 type  2   force =    -0.01657183    0.01167440   -0.26133176
     atom   23 type  2   force =     0.00495067   -0.01169632    0.26745770
     atom   24 type  1   force =     0.00514127    0.01831885   -0.01163652
     atom   25 type  2   force =     0.00873533   -0.00373402   -0.25820969
     atom   26 type  2   force =    -0.00189845   -0.01054090    0.26219100
     atom   27 type  1   force =    -0.00410666    0.00814497    0.00925609
     atom   28 type  2   force =    -0.00376699   -0.02458635   -0.27607445
     atom   29 type  2   force =     0.00720706    0.00128057    0.26389865
     atom   30 type  1   force =     0.00245123    0.05232020    0.04369788
     atom   31 type  2   force =    -0.00639491    0.00365030   -0.25161334
     atom   32 type  2   force =     0.00511491   -0.00990295    0.27320976
     atom   33 type  1   force =    -0.02062477   -0.00660979    0.00907009
     atom   34 type  2   force =     0.12347784    0.15261609   -0.39802198
     atom   35 type  2   force =    -0.00181270   -0.00714598    0.27260299
     atom   36 type  3   force =     0.68898573    1.31474432   -1.88174165
     The ionic contribution  to forces
     atom    1 type  1   force =     0.03885993    0.72573395    4.60152760
     atom    2 type  2   force =    -1.10516799    1.52559570   38.78400949
     atom    3 type  2   force =    -0.25522401    0.25754164  -36.78105792
     atom    4 type  1   force =    -0.24550488   -0.24749451   -0.73237812
     atom    5 type  2   force =    -1.14387478    1.32084621   38.52308016
     atom    6 type  2   force =     0.28617550   -0.54236204  -38.52053961
     atom    7 type  1   force =    -3.73004716   -3.45609698    0.48880116
     atom    8 type  2   force =    -2.06566215   -1.73355910   36.24174588
     atom    9 type  2   force =     0.21529436   -0.27176065  -38.82609759
     atom   10 type  1   force =    -2.60072947    1.42878249    1.81392547
     atom   11 type  2   force =    -2.02363746   -1.33951088   38.38053053
     atom   12 type  2   force =     0.24244809    0.75606160  -38.65975453
     atom   13 type  1   force =     0.75571952    1.42087166    1.80351000
     atom   14 type  2   force =     0.00036310    0.33505751   38.26746653
     atom   15 type  2   force =     0.13514363    0.06719352  -37.33546377
     atom   16 type  1   force =    -0.08163105    3.55478083   -0.55208557
     atom   17 type  2   force =     0.95052735    1.36051920   37.70937937
     atom   18 type  2   force =    -0.11455352   -0.68565020  -39.04824915
     atom   19 type  1   force =     3.53010954   -2.98436767   -1.14169137
     atom   20 type  2   force =     0.20693724   -0.32176647  -39.06908133
     atom   21 type  1   force =    -0.15050631    0.52068612   -0.31177768
     atom   22 type  2   force =     1.38113408   -1.53767242   37.86368100
     atom   23 type  2   force =     0.06287310    0.72048114  -39.01920532
     atom   24 type  1   force =    -0.46650805    2.02711846    4.42445717
     atom   25 type  2   force =     1.15746861    1.18729333   38.82825023
     atom   26 type  2   force =    -0.18208807    0.27106856  -37.98209245
     atom   27 type  1   force =     0.40810291   -0.31468391   -3.58472366
     atom   28 type  2   force =     0.08910390    0.71157154   37.91388877
     atom   29 type  2   force =    -0.25532562   -0.49129076  -37.82342789
     atom   30 type  1   force =     0.04415976   -2.81443640   -4.78636097
     atom   31 type  2   force =     2.25898090   -1.33002030   36.45707721
     atom   32 type  2   force =    -0.33828357   -0.21442956  -39.40601433
     atom   33 type  1   force =     2.30278247    0.46892119   -1.00092950
     atom   34 type  2   force =     3.24673350    4.58231385   28.38324536
     atom   35 type  2   force =    -0.25274583    0.58568070  -38.98677675
     atom   36 type  3   force =    -2.30142757   -5.54301735   53.08313156
     The local contribution  to forces
     atom    1 type  1   force =    -0.02088303   -0.78447955   -4.58739156
     atom    2 type  2   force =     1.09918293   -1.49413988  -38.53192581
     atom    3 type  2   force =     0.25747405   -0.24635012   36.53063499
     atom    4 type  1   force =     0.25098822    0.24653471    0.72734044
     atom    5 type  2   force =     1.13795261   -1.29382241  -38.29799388
     atom    6 type  2   force =    -0.28425117    0.54423513   38.27756098
     atom    7 type  1   force =     3.75003025    3.43691362   -0.47877721
     atom    8 type  2   force =     2.07711645    1.74037988  -35.98975946
     atom    9 type  2   force =    -0.20622539    0.28657936   38.58267706
     atom   10 type  1   force =     2.54887987   -1.40929787   -1.85543587
     atom   11 type  2   force =     2.02195330    1.32883055  -38.14987758
     atom   12 type  2   force =    -0.23018238   -0.74188292   38.42570720
     atom   13 type  1   force =    -0.75379884   -1.43909425   -1.80282408
     atom   14 type  2   force =    -0.00311614   -0.32346928  -38.01115072
     atom   15 type  2   force =    -0.13451175   -0.05757245   37.08573810
     atom   16 type  1   force =     0.08161283   -3.57587137    0.58902919
     atom   17 type  2   force =    -0.94808464   -1.33032261  -37.47946747
     atom   18 type  2   force =     0.11517841    0.68469225   38.80826109
     atom   19 type  1   force =    -3.53460601    2.97093908    1.14862953
     atom   20 type  2   force =    -0.20433633    0.33739210   38.82347172
     atom   21 type  1   force =     0.14166288   -0.55141586    0.30612495
     atom   22 type  2   force =    -1.36633263    1.52506099  -37.62969962
     atom   23 type  2   force =    -0.07002448   -0.71062667   38.77863197
     atom   24 type  1   force =     0.44968234   -2.04826827   -4.43161214
     atom   25 type  2   force =    -1.14859380   -1.15696497  -38.58251555
     atom   26 type  2   force =     0.17209349   -0.25981001   37.73389921
     atom   27 type  1   force =    -0.40263262    0.30840601    3.58084602
     atom   28 type  2   force =    -0.08458616   -0.69003206  -37.66382020
     atom   29 type  2   force =     0.25162113    0.48965467   37.57842174
     atom   30 type  1   force =    -0.04233797    2.76393960    4.68456521
     atom   31 type  2   force =    -2.25450522    1.32910667  -36.20439265
     atom   32 type  2   force =     0.32907064    0.22978405   39.16239782
     atom   33 type  1   force =    -2.25313037   -0.47342569    1.01620212
     atom   34 type  2   force =    -3.18833092   -4.35592307  -28.94918069
     atom   35 type  2   force =     0.24686237   -0.57318894   38.75148772
     atom   36 type  3   force =     1.42382310    3.82933475  -50.28725292
     The core correction contribution to forces
     atom    1 type  1   force =     0.00000000    0.00000000    0.00000000
     atom    2 type  2   force =     0.00001828    0.00066151    0.02059055
     atom    3 type  2   force =     0.00057351   -0.00031511   -0.02075995
     atom    4 type  1   force =     0.00000000    0.00000000    0.00000000
     atom    5 type  2   force =    -0.00054823    0.00192545    0.02036136
     atom    6 type  2   force =     0.00028730   -0.00104250   -0.02092664
     atom    7 type  1   force =     0.00000000    0.00000000    0.00000000
     atom    8 type  2   force =     0.00060073    0.00100302    0.02051104
     atom    9 type  2   force =     0.00040121    0.00055650   -0.02096444
     atom   10 type  1   force =     0.00000000    0.00000000    0.00000000
     atom   11 type  2   force =    -0.00046508   -0.00084808    0.02078231
     atom   12 type  2   force =     0.00133741    0.00141709   -0.02067812
     atom   13 type  1   force =     0.00000000    0.00000000    0.00000000
     atom   14 type  2   force =    -0.00057189    0.00014533    0.02071965
     atom   15 type  2   force =     0.00075739    0.00040709   -0.02063190
     atom   16 type  1   force =     0.00000000    0.00000000    0.00000000
     atom   17 type  2   force =    -0.00008947    0.00166193    0.02022877
     atom   18 type  2   force =     0.00005585   -0.00042730   -0.02108714
     atom   19 type  1   force =     0.00000000    0.00000000    0.00000000
     atom   20 type  2   force =     0.00015935    0.00083075   -0.02127142
     atom   21 type  1   force =     0.00000000    0.00000000    0.00000000
     atom   22 type  2   force =     0.00083348   -0.00091390    0.02061632
     atom   23 type  2   force =    -0.00044834    0.00109164   -0.02087713
     atom   24 type  1   force =     0.00000000    0.00000000    0.00000000
     atom   25 type  2   force =     0.00003941    0.00017456    0.02048987
     atom   26 type  2   force =    -0.00019233    0.00058049   -0.02083029
     atom   27 type  1   force =     0.00000000    0.00000000    0.00000000
     atom   28 type  2   force =     0.00024887    0.00187630    0.02104986
     atom   29 type  2   force =    -0.00059788   -0.00055236   -0.02060243
     atom   30 type  1   force =     0.00000000    0.00000000    0.00000000
     atom   31 type  2   force =     0.00040860   -0.00019481    0.02038146
     atom   32 type  2   force =    -0.00065092    0.00064053   -0.02096112
     atom   33 type  1   force =     0.00000000    0.00000000    0.00000000
     atom   34 type  2   force =    -0.00790740   -0.01223664    0.03411594
     atom   35 type  2   force =    -0.00012596    0.00071371   -0.02123556
     atom   36 type  3   force =    -0.00553249   -0.01026187    0.01248757
     The Hubbard contrib.    to forces
     atom    1 type  1   force =     0.00000000    0.00000000    0.00000000
     atom    2 type  2   force =     0.00000000    0.00000000    0.00000000
     atom    3 type  2   force =     0.00000000    0.00000000    0.00000000
     atom    4 type  1   force =     0.00000000    0.00000000    0.00000000
     atom    5 type  2   force =     0.00000000    0.00000000    0.00000000
     atom    6 type  2   force =     0.00000000    0.00000000    0.00000000
     atom    7 type  1   force =     0.00000000    0.00000000    0.00000000
     atom    8 type  2   force =     0.00000000    0.00000000    0.00000000
     atom    9 type  2   force =     0.00000000    0.00000000    0.00000000
     atom   10 type  1   force =     0.00000000    0.00000000    0.00000000
     atom   11 type  2   force =     0.00000000    0.00000000    0.00000000
     atom   12 type  2   force =     0.00000000    0.00000000    0.00000000
     atom   13 type  1   force =     0.00000000    0.00000000    0.00000000
     atom   14 type  2   force =     0.00000000    0.00000000    0.00000000
     atom   15 type  2   force =     0.00000000    0.00000000    0.00000000
     atom   16 type  1   force =     0.00000000    0.00000000    0.00000000
     atom   17 type  2   force =     0.00000000    0.00000000    0.00000000
     atom   18 type  2   force =     0.00000000    0.00000000    0.00000000
     atom   19 type  1   force =     0.00000000    0.00000000    0.00000000
     atom   20 type  2   force =     0.00000000    0.00000000    0.00000000
     atom   21 type  1   force =     0.00000000    0.00000000    0.00000000
     atom   22 type  2   force =     0.00000000    0.00000000    0.00000000
     atom   23 type  2   force =     0.00000000    0.00000000    0.00000000
     atom   24 type  1   force =     0.00000000    0.00000000    0.00000000
     atom   25 type  2   force =     0.00000000    0.00000000    0.00000000
     atom   26 type  2   force =     0.00000000    0.00000000    0.00000000
     atom   27 type  1   force =     0.00000000    0.00000000    0.00000000
     atom   28 type  2   force =     0.00000000    0.00000000    0.00000000
     atom   29 type  2   force =     0.00000000    0.00000000    0.00000000
     atom   30 type  1   force =     0.00000000    0.00000000    0.00000000
     atom   31 type  2   force =     0.00000000    0.00000000    0.00000000
     atom   32 type  2   force =     0.00000000    0.00000000    0.00000000
     atom   33 type  1   force =     0.00000000    0.00000000    0.00000000
     atom   34 type  2   force =     0.00000000    0.00000000    0.00000000
     atom   35 type  2   force =     0.00000000    0.00000000    0.00000000
     atom   36 type  3   force =     0.00000000    0.00000000    0.00000000
     The SCF correction term to forces
     atom    1 type  1   force =    -0.00008887   -0.00026874    0.00039378
     atom    2 type  2   force =    -0.00003542    0.00015215    0.00025977
     atom    3 type  2   force =     0.00002391   -0.00000040   -0.00008648
     atom    4 type  1   force =    -0.00008647   -0.00048881    0.00031576
     atom    5 type  2   force =    -0.00006800   -0.00017255    0.00033532
     atom    6 type  2   force =     0.00002269   -0.00019432   -0.00003855
     atom    7 type  1   force =    -0.00027061    0.00010104    0.00018176
     atom    8 type  2   force =    -0.00015412   -0.00010275    0.00022653
     atom    9 type  2   force =    -0.00004746    0.00004903   -0.00011944
     atom   10 type  1   force =    -0.00003337    0.00048655    0.00002392
     atom   11 type  2   force =    -0.00017694    0.00014326    0.00021523
     atom   12 type  2   force =    -0.00002392    0.00015450   -0.00009916
     atom   13 type  1   force =     0.00004321   -0.00026797    0.00044455
     atom   14 type  2   force =    -0.00004361    0.00006084    0.00032244
     atom   15 type  2   force =    -0.00001137   -0.00003224   -0.00003670
     atom   16 type  1   force =    -0.00001750   -0.00022943    0.00049897
     atom   17 type  2   force =     0.00003222   -0.00017823    0.00035644
     atom   18 type  2   force =    -0.00002834   -0.00019664   -0.00003128
     atom   19 type  1   force =     0.00028780    0.00013187    0.00023435
     atom   20 type  2   force =     0.00004239    0.00004779    0.00002739
     atom   21 type  1   force =    -0.00003186    0.00043650    0.00022945
     atom   22 type  2   force =     0.00013958    0.00018976    0.00031132
     atom   23 type  2   force =     0.00002178    0.00022332   -0.00012598
     atom   24 type  1   force =     0.00004553   -0.00018560    0.00030973
     atom   25 type  2   force =     0.00008779    0.00015340    0.00028377
     atom   26 type  2   force =    -0.00001307   -0.00000743   -0.00007465
     atom   27 type  1   force =     0.00009534   -0.00051690    0.00038259
     atom   28 type  2   force =     0.00004959   -0.00025187    0.00032062
     atom   29 type  2   force =     0.00001354   -0.00021916   -0.00004768
     atom   30 type  1   force =    -0.00003521    0.00021338   -0.00005284
     atom   31 type  2   force =     0.00014831   -0.00014471    0.00032022
     atom   32 type  2   force =     0.00000148    0.00000956   -0.00015002
     atom   33 type  1   force =     0.00007284    0.00054703    0.00002736
     atom   34 type  2   force =     0.00000600    0.00019094    0.00014985
     atom   35 type  2   force =    -0.00000239    0.00021825   -0.00015859
     atom   36 type  3   force =     0.00000796    0.00011312    0.00037514

     Total force =     1.451423     Total SCF correction =     0.002161

     BFGS Geometry Optimization
     Energy error            =      0.0E+00 Ry
     Gradient error          =      9.3E-01 Ry/Bohr

     number of scf cycles    =   1
     number of bfgs steps    =   0

     energy             new  =   -2246.1770967971 Ry

     new trust radius        =       0.5000000000 bohr
     new conv_thr            =       0.0000010000 Ry


ATOMIC_POSITIONS (angstrom)
Mo            6.5781011505        1.7809118607        2.8246162470
S             8.1731273339        0.8150675404        4.4354503805
S             8.1906062288        0.8149603921        1.2769201901
Mo            8.0962199096        4.4964048168        2.7173684942
S             6.4995545640        3.7210628828        4.3449558898
S             6.5535857700        3.5146129946        1.1212722112
Mo            6.4916684578        7.2148275815        2.6697203607
S             8.0820322054        6.3423274540        4.2471826730
S             8.0829810914        6.3063161179        1.0870490702
Mo            8.1574056469        9.9045464582        2.8385349662
S             6.4968111081        8.9427628271        4.3804813497
S             6.6174876279        9.0481313598        1.1410163742
Mo            3.4228910014        1.7479511149        2.7746860417
S             4.9772251087        0.8169689559        4.3538709416
S             5.0546971464        0.8472328140        1.2245003392
Mo            4.9796630191        4.5158472625        2.6341801783
S             3.4293845255        3.6718381163        4.2800265297
S             3.4370473227        3.5467027463        1.0617791781
Mo            3.4546318670        7.2134453288        2.6288381906
S             4.9838557462        6.3257152544        1.0373441548
Mo            5.0110528620        9.9027789054        2.7448408955
S             3.4707537532        8.9433255919        4.3239447103
S             3.4077554907        9.0648552099        1.0975772039
Mo            0.2931056662        1.7467362481        2.8447054205
S             1.8550112938        0.7995989211        4.4003383132
S             1.8576973624        0.8547572907        1.2076300099
Mo            1.8610656018        4.4960133841        2.6616754574
S             0.2724830530        3.6540343733        4.3363958849
S             0.2319797458        3.5269605331        1.1715677129
Mo            0.2722391072        7.2171688052        2.6867835409
S             1.9018889830        6.3134139665        4.2280286431
S             1.8610207878        6.3119090018        1.0467352119
Mo            1.8518098836        9.9374294008        2.7791968476
S             0.3405320986        9.1841099315        4.1754391056
S             0.2747648288        9.0451360714        1.1544842022
O            -0.0497903375        8.3953404525        5.7156246165



     Writing config-only to output data dir ./MoS2-V-O.save/
     NEW-OLD atomic charge density approx. for the potential

     negative rho (up, down):  1.890E-04 0.000E+00

     total cpu time spent up to now is      102.8 secs

     Self-consistent Calculation

     iteration #  1     ecut=    80.00 Ry     beta= 0.70
     Davidson diagonalization with overlap
     ethr =  1.00E-06,  avg # of iterations = 14.0

     negative rho (up, down):  6.632E-03 0.000E+00

     total cpu time spent up to now is      119.5 secs

     total energy              =   -2246.26787658 Ry
     estimated scf accuracy    <       0.19924068 Ry

     iteration #  2     ecut=    80.00 Ry     beta= 0.70
     Davidson diagonalization with overlap
     ethr =  6.39E-05,  avg # of iterations =  5.0

     negative rho (up, down):  1.096E-02 0.000E+00

     total cpu time spent up to now is      133.4 secs

     total energy              =   -2246.28635446 Ry
     estimated scf accuracy    <       0.10918301 Ry

     iteration #  3     ecut=    80.00 Ry     beta= 0.70
     Davidson diagonalization with overlap
     ethr =  3.50E-05,  avg # of iterations =  4.0

     negative rho (up, down):  1.958E-02 0.000E+00

     total cpu time spent up to now is      145.3 secs

     total energy              =   -2246.28846546 Ry
     estimated scf accuracy    <       0.01963621 Ry

     iteration #  4     ecut=    80.00 Ry     beta= 0.70
     Davidson diagonalization with overlap
     ethr =  6.29E-06,  avg # of iterations =  3.0

     negative rho (up, down):  2.141E-02 0.000E+00

     total cpu time spent up to now is      158.4 secs

     total energy              =   -2246.28973776 Ry
     estimated scf accuracy    <       0.00851924 Ry

     iteration #  5     ecut=    80.00 Ry     beta= 0.70
     Davidson diagonalization with overlap
     ethr =  2.73E-06,  avg # of iterations =  2.0

     negative rho (up, down):  2.117E-02 0.000E+00

     total cpu time spent up to now is      167.9 secs

     total energy              =   -2246.28936657 Ry
     estimated scf accuracy    <       0.00248346 Ry

     iteration #  6     ecut=    80.00 Ry     beta= 0.70
     Davidson diagonalization with overlap
     ethr =  7.96E-07,  avg # of iterations =  6.0

     negative rho (up, down):  1.815E-02 0.000E+00

     total cpu time spent up to now is      177.5 secs

     total energy              =   -2246.28964930 Ry
     estimated scf accuracy    <       0.00108615 Ry

     iteration #  7     ecut=    80.00 Ry     beta= 0.70
     Davidson diagonalization with overlap
     ethr =  3.48E-07,  avg # of iterations =  4.0

     negative rho (up, down):  1.298E-02 0.000E+00

     total cpu time spent up to now is      187.1 secs

     total energy              =   -2246.28967110 Ry
     estimated scf accuracy    <       0.00012063 Ry

     iteration #  8     ecut=    80.00 Ry     beta= 0.70
     Davidson diagonalization with overlap
     ethr =  3.87E-08,  avg # of iterations =  8.0

     negative rho (up, down):  1.031E-02 0.000E+00

     total cpu time spent up to now is      199.7 secs

     total energy              =   -2246.28963565 Ry
     estimated scf accuracy    <       0.00015552 Ry

     iteration #  9     ecut=    80.00 Ry     beta= 0.70
     Davidson diagonalization with overlap
     ethr =  3.87E-08,  avg # of iterations =  2.0

     negative rho (up, down):  5.239E-03 0.000E+00

     total cpu time spent up to now is      208.5 secs

     total energy              =   -2246.28956475 Ry
     estimated scf accuracy    <       0.00005265 Ry

     iteration # 10     ecut=    80.00 Ry     beta= 0.70
     Davidson diagonalization with overlap
     ethr =  1.69E-08,  avg # of iterations =  5.0

     negative rho (up, down):  3.431E-03 0.000E+00

     total cpu time spent up to now is      217.1 secs

     total energy              =   -2246.28955122 Ry
     estimated scf accuracy    <       0.00001566 Ry

     iteration # 11     ecut=    80.00 Ry     beta= 0.70
     Davidson diagonalization with overlap
     ethr =  5.02E-09,  avg # of iterations =  4.0

     negative rho (up, down):  1.298E-03 0.000E+00

     total cpu time spent up to now is      224.6 secs

     total energy              =   -2246.28953669 Ry
     estimated scf accuracy    <       0.00000485 Ry

     iteration # 12     ecut=    80.00 Ry     beta= 0.70
     Davidson diagonalization with overlap
     ethr =  1.56E-09,  avg # of iterations =  2.0

     negative rho (up, down):  9.342E-04 0.000E+00

     total cpu time spent up to now is      232.2 secs

     total energy              =   -2246.28953474 Ry
     estimated scf accuracy    <       0.00000285 Ry

     iteration # 13     ecut=    80.00 Ry     beta= 0.70
     Davidson diagonalization with overlap
     ethr =  9.13E-10,  avg # of iterations =  2.0

     negative rho (up, down):  3.339E-04 0.000E+00

     total cpu time spent up to now is      242.1 secs

     total energy              =   -2246.28953148 Ry
     estimated scf accuracy    <       0.00000132 Ry

     iteration # 14     ecut=    80.00 Ry     beta= 0.70
     Davidson diagonalization with overlap
     ethr =  4.23E-10,  avg # of iterations =  2.0

     negative rho (up, down):  1.840E-04 0.000E+00

     total cpu time spent up to now is      245.5 secs

     End of self-consistent calculation

          k = 0.0000 0.0000 0.0000 (105382 PWs)   bands (ev):

   -63.1299 -63.1007 -63.0886 -63.0599 -63.0509 -63.0471 -63.0297 -63.0092
   -63.0035 -62.9893 -62.9760 -62.8441 -37.4898 -37.4524 -37.4025 -37.3750
   -37.3417 -37.3374 -37.3301 -37.3153 -37.3004 -37.2850 -37.2843 -37.2716
   -37.2509 -37.2407 -37.2286 -37.2252 -37.2228 -37.2147 -37.1978 -37.1970
   -37.1811 -37.1664 -37.1544 -37.1424 -37.1392 -37.1366 -37.1312 -37.1173
   -37.1092 -37.0710 -37.0304 -37.0266 -37.0077 -36.9776 -36.9661 -36.8864
   -19.4273 -16.1689 -15.4286 -15.3028 -15.1766 -15.1271 -14.9591 -14.7438
   -14.6872 -14.6451 -14.6175 -14.5663 -14.5377 -14.4952 -14.4809 -14.3761
   -14.3148 -14.3024 -14.2768 -14.1953 -14.1389 -14.0573 -14.0285 -13.9454
    -8.0179  -7.8973  -7.7284  -7.6593  -7.5034  -7.4286  -7.4077  -7.3485
    -7.2852  -7.0478  -7.0000  -6.9776  -6.9486  -6.8575  -6.7671  -6.6852
    -6.6315  -6.5472  -6.5050  -6.4331  -6.2502  -6.1512  -6.0941  -6.0393
    -6.0157  -5.9918  -5.9262  -5.8750  -5.8542  -5.8438  -5.7711  -5.7272
    -5.6318  -5.6109  -5.5895  -5.4613  -5.3813  -5.3270  -5.2936  -5.2022
    -5.1812  -5.1177  -5.0758  -4.8418  -4.7624  -4.6897  -4.6242  -4.5463
    -4.4827  -4.4086  -4.3095  -4.2403  -4.0644  -4.0028  -3.9826  -3.9516
    -3.9472  -3.8792  -3.8336  -3.8050  -3.7166  -3.6979  -3.6864  -3.6572
    -3.6143  -3.5509  -3.4373  -3.3347  -3.2240  -3.0924  -3.0816  -3.0230
    -2.9625  -2.9512  -2.9026  -2.8832  -2.8472  -2.7880  -2.4614  -2.4369
    -2.3139  -2.2375  -2.1862  -1.8359  -1.0103  -0.9214  -0.6376  -0.4000
    -0.3620  -0.2557  -0.2179  -0.1255  -0.1128  -0.0081   0.0484   0.0704
     0.0955   0.2253   0.2623   0.2939   0.3234   0.3510   0.3790   0.4391
     0.4923   0.5363   0.5749   0.5989   0.6654   0.6881   0.7302   0.7708
     0.7990   0.8587   0.9593

     the Fermi energy is    -1.4232 ev

!    total energy              =   -2246.28953190 Ry
     estimated scf accuracy    <       0.00000030 Ry
     smearing contrib. (-TS)   =      -0.00000114 Ry
     internal energy E=F+TS    =   -2246.28953076 Ry

     The total energy is F=E-TS. E is the sum of the following terms:
     one-electron contribution =  -18422.87076571 Ry
     hartree contribution      =    9198.30360328 Ry
     xc contribution           =    -392.01424445 Ry
     ewald contribution        =    7380.16189837 Ry
     one-center paw contrib.   =      -9.87002225 Ry

     convergence has been achieved in  14 iterations

     negative rho (up, down):  1.840E-04 0.000E+00

     Forces acting on atoms (cartesian axes, Ry/au):

     atom    1 type  1   force =     0.01046807   -0.01966410    0.00054343
     atom    2 type  2   force =    -0.01263678    0.01767088    0.00583788
     atom    3 type  2   force =    -0.01155549    0.01133677   -0.00536228
     atom    4 type  1   force =     0.00043363    0.00349025   -0.00219742
     atom    5 type  2   force =     0.00005234   -0.00494815   -0.00578422
     atom    6 type  2   force =     0.00083956    0.00896955    0.00079432
     atom    7 type  1   force =     0.00622358   -0.01329778   -0.00196120
     atom    8 type  2   force =     0.00865533    0.00206332    0.01706466
     atom    9 type  2   force =     0.00898346    0.00519547    0.00873815
     atom   10 type  1   force =    -0.05301665    0.03985667   -0.06511334
     atom   11 type  2   force =     0.00958835   -0.00186435   -0.00898846
     atom   12 type  2   force =    -0.00415496   -0.00232811    0.00451870
     atom   13 type  1   force =     0.00215308    0.00347765   -0.00692620
     atom   14 type  2   force =     0.00742809   -0.00020444    0.01317407
     atom   15 type  2   force =    -0.01047109    0.00277761   -0.00759600
     atom   16 type  1   force =     0.00024750    0.00853161    0.00476567
     atom   17 type  2   force =     0.00543796    0.00135959    0.00216383
     atom   18 type  2   force =    -0.00275439   -0.00490236    0.01169648
     atom   19 type  1   force =     0.00284029   -0.01214445   -0.00325214
     atom   20 type  2   force =     0.00230739   -0.00492727   -0.00164912
     atom   21 type  1   force =    -0.00660155    0.00199369   -0.00032605
     atom   22 type  2   force =     0.00080632   -0.00372963   -0.00196365
     atom   23 type  2   force =     0.00092564   -0.00314196    0.00458239
     atom   24 type  1   force =    -0.00945576   -0.00225646   -0.01706038
     atom   25 type  2   force =     0.01637381    0.02701151    0.00988574
     atom   26 type  2   force =    -0.00905283    0.00182583   -0.00503174
     atom   27 type  1   force =     0.00253910    0.00181260    0.00604527
     atom   28 type  2   force =     0.00070450   -0.00154865   -0.00424532
     atom   29 type  2   force =     0.00285857   -0.00021688   -0.00283387
     atom   30 type  1   force =     0.00206298   -0.00815365   -0.03934362
     atom   31 type  2   force =    -0.00551169    0.00380743    0.01790421
     atom   32 type  2   force =    -0.00548744    0.00515787    0.00574035
     atom   33 type  1   force =     0.08835344    0.03796507   -0.05898981
     atom   34 type  2   force =    -0.10212788   -0.21369242    0.24425116
     atom   35 type  2   force =    -0.00623528    0.00790553   -0.00231142
     atom   36 type  3   force =     0.05877882    0.10481176   -0.11677004
     The non-local contrib.  to forces
     atom    1 type  1   force =    -0.00254863    0.03130482   -0.01054946
     atom    2 type  2   force =    -0.00793241   -0.00742753   -0.27895103
     atom    3 type  2   force =    -0.01213700   -0.00172349    0.26712687
     atom    4 type  1   force =    -0.00020311    0.01107833    0.00442886
     atom    5 type  2   force =     0.00628983   -0.03355615   -0.25584752
     atom    6 type  2   force =    -0.00154129    0.00927543    0.26523897
     atom    7 type  1   force =    -0.01637190    0.00243694   -0.01842155
     atom    8 type  2   force =    -0.00948287   -0.00225240   -0.25886141
     atom    9 type  2   force =     0.00179695   -0.00844003    0.27465301
     atom   10 type  1   force =     0.01662190   -0.00774501    0.01081820
     atom   11 type  2   force =     0.00472523    0.00630919   -0.26747457
     atom   12 type  2   force =    -0.01547547   -0.02075832    0.25579098
     atom   13 type  1   force =     0.00388316    0.02450275   -0.00692452
     atom   14 type  2   force =     0.01045266   -0.01142608   -0.26791359
     atom   15 type  2   force =    -0.01238648   -0.00594138    0.26227161
     atom   16 type  1   force =    -0.00017493    0.03155105   -0.03387304
     atom   17 type  2   force =     0.00268095   -0.02946423   -0.25176537
     atom   18 type  2   force =    -0.00338972   -0.00347765    0.27430950
     atom   19 type  1   force =     0.01044666    0.00084897   -0.01416771
     atom   20 type  2   force =    -0.00047768   -0.02129754    0.26554813
     atom   21 type  1   force =     0.00625945    0.02919090    0.01213569
     atom   22 type  2   force =    -0.01016941    0.00892392   -0.26523389
     atom   23 type  2   force =     0.00892598   -0.01717108    0.26356270
     atom   24 type  1   force =     0.00355015    0.02326258   -0.01114057
     atom   25 type  2   force =     0.01029790   -0.00308481   -0.26771812
     atom   26 type  2   force =    -0.00183574   -0.00964991    0.26272177
     atom   27 type  1   force =    -0.00400434    0.00989789    0.00953934
     atom   28 type  2   force =    -0.00354316   -0.02587012   -0.27875344
     atom   29 type  2   force =     0.00749843    0.00101268    0.26465276
     atom   30 type  1   force =     0.00133865    0.02829759    0.02790451
     atom   31 type  2   force =    -0.00022717    0.00216778   -0.26178280
     atom   32 type  2   force =     0.00142195   -0.00932150    0.27252474
     atom   33 type  1   force =    -0.01635822   -0.00973518    0.01007965
     atom   34 type  2   force =    -0.07031807   -0.25059770    0.40723969
     atom   35 type  2   force =    -0.00110380   -0.00649757    0.26813203
     atom   36 type  3   force =     0.39895302    0.78784702   -1.35284883
     The ionic contribution  to forces
     atom    1 type  1   force =    -0.10890428    0.89929531    4.68095431
     atom    2 type  2   force =    -1.02262429    1.36803984   38.96441556
     atom    3 type  2   force =    -0.27899446    0.28249669  -36.85000810
     atom    4 type  1   force =    -0.24834162   -0.22153586   -0.62914007
     atom    5 type  2   force =    -1.13529086    1.31228101   38.48030991
     atom    6 type  2   force =     0.26046358   -0.56216353  -38.45900902
     atom    7 type  1   force =    -3.64325125   -3.32977069    0.63389300
     atom    8 type  2   force =    -1.88340514   -1.47192171   36.24023705
     atom    9 type  2   force =     0.16688687   -0.31533524  -38.79108958
     atom   10 type  1   force =    -3.44680181    1.35245321    1.93421850
     atom   11 type  2   force =    -1.80616055   -1.37280305   38.38624409
     atom   12 type  2   force =     0.17987133    0.72790712  -38.61652116
     atom   13 type  1   force =     0.77888517    1.44636672    1.78758660
     atom   14 type  2   force =    -0.01625896    0.33739923   38.33320948
     atom   15 type  2   force =     0.14601710    0.08201668  -37.34494766
     atom   16 type  1   force =    -0.04367347    3.47707710   -0.42136681
     atom   17 type  2   force =     0.94269076    1.35745672   37.72486793
     atom   18 type  2   force =    -0.09850678   -0.66365226  -38.99962316
     atom   19 type  1   force =     3.52838802   -2.99653417   -1.02751238
     atom   20 type  2   force =     0.20800785   -0.32018586  -39.07390048
     atom   21 type  1   force =    -0.06650810    0.43997118   -0.12702329
     atom   22 type  2   force =     1.32934959   -1.62835921   38.00169641
     atom   23 type  2   force =     0.11182250    0.70938655  -39.01624285
     atom   24 type  1   force =    -0.37709465    2.13273404    4.35751455
     atom   25 type  2   force =     1.10195872    1.18903663   38.97511613
     atom   26 type  2   force =    -0.14189177    0.27618995  -37.98300649
     atom   27 type  1   force =     0.37607373   -0.26160659   -3.37614531
     atom   28 type  2   force =     0.09173400    0.71205679   37.90501202
     atom   29 type  2   force =    -0.24539882   -0.45562452  -37.80876056
     atom   30 type  1   force =    -0.12195245   -3.10371874   -4.59902210
     atom   31 type  2   force =     2.08604311   -1.11792262   36.55140238
     atom   32 type  2   force =    -0.28267494   -0.28167579  -39.38894100
     atom   33 type  1   force =     3.37221153    0.91711850   -1.06413774
     atom   34 type  2   force =     1.22238794    0.72244107   32.08866513
     atom   35 type  2   force =    -0.23737793    0.61703514  -39.10998363
     atom   36 type  3   force =    -0.69767969   -2.25594962   47.64103832
     The local contribution  to forces
     atom    1 type  1   force =     0.12207043   -0.95053388   -4.66982933
     atom    2 type  2   force =     1.01793138   -1.34348568  -38.70074934
     atom    3 type  2   force =     0.27907178   -0.26952691   36.59822306
     atom    4 type  1   force =     0.24909597    0.21418992    0.62251994
     atom    5 type  2   force =     1.12971771   -1.28552316  -38.25067508
     atom    6 type  2   force =    -0.25832991    0.56285980   38.21526134
     atom    7 type  1   force =     3.66592513    3.31433669   -0.61721983
     atom    8 type  2   force =     1.90070013    1.47546090  -35.98530461
     atom    9 type  2   force =    -0.15981424    0.32860875   38.54599237
     atom   10 type  1   force =     3.37736312   -1.30507314   -2.00974334
     atom   11 type  2   force =     1.81098924    1.36530405  -38.14896595
     atom   12 type  2   force =    -0.16981193   -0.71101743   38.38569352
     atom   13 type  1   force =    -0.78079890   -1.46770334   -1.78758721
     atom   14 type  2   force =     0.01377195   -0.32651400  -38.07295775
     atom   15 type  2   force =    -0.14482146   -0.07378884   37.09554735
     atom   16 type  1   force =     0.04408167   -3.49984698    0.45993850
     atom   17 type  2   force =    -0.93996565   -1.32819277  -37.49122189
     atom   18 type  2   force =     0.09907279    0.66267296   38.75786124
     atom   19 type  1   force =    -3.53614674    2.98384954    1.03866473
     atom   20 type  2   force =    -0.20540275    0.33585257   38.82774984
     atom   21 type  1   force =     0.05361257   -0.46746663    0.11475441
     atom   22 type  2   force =    -1.31894577    1.61653116  -37.75934801
     atom   23 type  2   force =    -0.11922724   -0.69675233   38.77788825
     atom   24 type  1   force =     0.36411389   -2.15862438   -4.36327471
     atom   25 type  2   force =    -1.09590806   -1.15931982  -38.71843559
     atom   26 type  2   force =     0.13484542   -0.26532203   37.73596160
     atom   27 type  1   force =    -0.36963913    0.25382254    3.37267384
     atom   28 type  2   force =    -0.08771756   -0.68965046  -37.65162385
     atom   29 type  2   force =     0.24135863    0.45490855   37.56170739
     atom   30 type  1   force =     0.12275780    3.06758673    4.53208312
     atom   31 type  2   force =    -2.09120418    1.11959695  -36.29276043
     atom   32 type  2   force =     0.27610786    0.29572813   39.14305184
     atom   33 type  1   force =    -3.26766169   -0.86969084    0.99552397
     atom   34 type  2   force =    -1.25838503   -0.69845820  -32.23814497
     atom   35 type  2   force =     0.23236383   -0.60344853   38.86045292
     atom   36 type  3   force =     0.36229861    1.58230406  -46.42026788
     The core correction contribution to forces
     atom    1 type  1   force =     0.00000000    0.00000000    0.00000000
     atom    2 type  2   force =     0.00010249    0.00030545    0.02132217
     atom    3 type  2   force =     0.00053225    0.00000216   -0.02082753
     atom    4 type  1   force =     0.00000000    0.00000000    0.00000000
     atom    5 type  2   force =    -0.00059352    0.00188782    0.02054799
     atom    6 type  2   force =     0.00028306   -0.00100384   -0.02093782
     atom    7 type  1   force =     0.00000000    0.00000000    0.00000000
     atom    8 type  2   force =     0.00090744    0.00099371    0.02114898
     atom    9 type  2   force =     0.00014448    0.00045799   -0.02094383
     atom   10 type  1   force =     0.00000000    0.00000000    0.00000000
     atom   11 type  2   force =     0.00012558   -0.00071856    0.02139778
     atom   12 type  2   force =     0.00127062    0.00150515   -0.02055007
     atom   13 type  1   force =     0.00000000    0.00000000    0.00000000
     atom   14 type  2   force =    -0.00054432    0.00015489    0.02094674
     atom   15 type  2   force =     0.00070968    0.00040233   -0.02065098
     atom   16 type  1   force =     0.00000000    0.00000000    0.00000000
     atom   17 type  2   force =    -0.00004603    0.00159873    0.02039781
     atom   18 type  2   force =     0.00003131   -0.00045026   -0.02110210
     atom   19 type  1   force =     0.00000000    0.00000000    0.00000000
     atom   20 type  2   force =     0.00016361    0.00083052   -0.02121015
     atom   21 type  1   force =     0.00000000    0.00000000    0.00000000
     atom   22 type  2   force =     0.00042578   -0.00088844    0.02109279
     atom   23 type  2   force =    -0.00062577    0.00135082   -0.02071771
     atom   24 type  1   force =     0.00000000    0.00000000    0.00000000
     atom   25 type  2   force =    -0.00008999    0.00012455    0.02109138
     atom   26 type  2   force =    -0.00018806    0.00051401   -0.02083091
     atom   27 type  1   force =     0.00000000    0.00000000    0.00000000
     atom   28 type  2   force =     0.00023050    0.00194214    0.02124971
     atom   29 type  2   force =    -0.00060374   -0.00050439   -0.02063303
     atom   30 type  1   force =     0.00000000    0.00000000    0.00000000
     atom   31 type  2   force =    -0.00017391    0.00022722    0.02120579
     atom   32 type  2   force =    -0.00036294    0.00053753   -0.02100317
     atom   33 type  1   force =     0.00000000    0.00000000    0.00000000
     atom   34 type  2   force =     0.00422561    0.01286802   -0.01313221
     atom   35 type  2   force =    -0.00010304    0.00078241   -0.02097392
     atom   36 type  3   force =    -0.00459254   -0.00903341    0.01512023
     The Hubbard contrib.    to forces
     atom    1 type  1   force =     0.00000000    0.00000000    0.00000000
     atom    2 type  2   force =     0.00000000    0.00000000    0.00000000
     atom    3 type  2   force =     0.00000000    0.00000000    0.00000000
     atom    4 type  1   force =     0.00000000    0.00000000    0.00000000
     atom    5 type  2   force =     0.00000000    0.00000000    0.00000000
     atom    6 type  2   force =     0.00000000    0.00000000    0.00000000
     atom    7 type  1   force =     0.00000000    0.00000000    0.00000000
     atom    8 type  2   force =     0.00000000    0.00000000    0.00000000
     atom    9 type  2   force =     0.00000000    0.00000000    0.00000000
     atom   10 type  1   force =     0.00000000    0.00000000    0.00000000
     atom   11 type  2   force =     0.00000000    0.00000000    0.00000000
     atom   12 type  2   force =     0.00000000    0.00000000    0.00000000
     atom   13 type  1   force =     0.00000000    0.00000000    0.00000000
     atom   14 type  2   force =     0.00000000    0.00000000    0.00000000
     atom   15 type  2   force =     0.00000000    0.00000000    0.00000000
     atom   16 type  1   force =     0.00000000    0.00000000    0.00000000
     atom   17 type  2   force =     0.00000000    0.00000000    0.00000000
     atom   18 type  2   force =     0.00000000    0.00000000    0.00000000
     atom   19 type  1   force =     0.00000000    0.00000000    0.00000000
     atom   20 type  2   force =     0.00000000    0.00000000    0.00000000
     atom   21 type  1   force =     0.00000000    0.00000000    0.00000000
     atom   22 type  2   force =     0.00000000    0.00000000    0.00000000
     atom   23 type  2   force =     0.00000000    0.00000000    0.00000000
     atom   24 type  1   force =     0.00000000    0.00000000    0.00000000
     atom   25 type  2   force =     0.00000000    0.00000000    0.00000000
     atom   26 type  2   force =     0.00000000    0.00000000    0.00000000
     atom   27 type  1   force =     0.00000000    0.00000000    0.00000000
     atom   28 type  2   force =     0.00000000    0.00000000    0.00000000
     atom   29 type  2   force =     0.00000000    0.00000000    0.00000000
     atom   30 type  1   force =     0.00000000    0.00000000    0.00000000
     atom   31 type  2   force =     0.00000000    0.00000000    0.00000000
     atom   32 type  2   force =     0.00000000    0.00000000    0.00000000
     atom   33 type  1   force =     0.00000000    0.00000000    0.00000000
     atom   34 type  2   force =     0.00000000    0.00000000    0.00000000
     atom   35 type  2   force =     0.00000000    0.00000000    0.00000000
     atom   36 type  3   force =     0.00000000    0.00000000    0.00000000
     The SCF correction term to forces
     atom    1 type  1   force =    -0.00015109    0.00026897   -0.00004596
     atom    2 type  2   force =    -0.00011560    0.00023811   -0.00021337
     atom    3 type  2   force =    -0.00002970    0.00008763    0.00010954
     atom    4 type  1   force =    -0.00011925   -0.00024282   -0.00002003
     atom    5 type  2   force =    -0.00007247   -0.00003835   -0.00013338
     atom    6 type  2   force =    -0.00003752    0.00000100    0.00022698
     atom    7 type  1   force =    -0.00008003   -0.00030140   -0.00022669
     atom    8 type  2   force =    -0.00006588   -0.00021786   -0.00016921
     atom    9 type  2   force =    -0.00003224   -0.00009669    0.00011231
     atom   10 type  1   force =    -0.00020151    0.00022093   -0.00042058
     atom   11 type  2   force =    -0.00009278    0.00004332   -0.00020368
     atom   12 type  2   force =    -0.00001114    0.00003468    0.00009156
     atom   13 type  1   force =     0.00018201    0.00031083   -0.00001494
     atom   14 type  2   force =     0.00000512    0.00018083   -0.00012469
     atom   15 type  2   force =     0.00000842    0.00008812    0.00016982
     atom   16 type  1   force =     0.00001259   -0.00025024    0.00005315
     atom   17 type  2   force =     0.00007630   -0.00003955   -0.00012852
     atom   18 type  2   force =     0.00003636    0.00000415    0.00023713
     atom   19 type  1   force =     0.00015072   -0.00030949   -0.00025065
     atom   20 type  2   force =     0.00001471   -0.00012765    0.00014967
     atom   21 type  1   force =     0.00003290    0.00029756   -0.00020674
     atom   22 type  2   force =     0.00014451    0.00006225   -0.00018481
     atom   23 type  2   force =     0.00002853    0.00004339    0.00007814
     atom   24 type  1   force =    -0.00002679    0.00037061   -0.00017352
     atom   25 type  2   force =     0.00011359    0.00025427   -0.00018193
     atom   26 type  2   force =     0.00001568    0.00009312    0.00010841
     atom   27 type  1   force =     0.00010720   -0.00030193   -0.00003647
     atom   28 type  2   force =    -0.00000092   -0.00002769   -0.00014363
     atom   29 type  2   force =     0.00000242   -0.00000990    0.00018570
     atom   30 type  1   force =    -0.00008267   -0.00031992   -0.00032303
     atom   31 type  2   force =     0.00004883   -0.00026257   -0.00017460
     atom   32 type  2   force =     0.00001898   -0.00011120    0.00009407
     atom   33 type  1   force =     0.00016018    0.00027191   -0.00046955
     atom   34 type  2   force =    -0.00003997    0.00005369   -0.00039035
     atom   35 type  2   force =    -0.00001598    0.00003340    0.00004732
     atom   36 type  3   force =    -0.00020223   -0.00035698    0.00017425

     Total force =     0.415403     Total SCF correction =     0.001795
     Energy error            =      1.1E-01 Ry
     Gradient error          =      2.4E-01 Ry/Bohr

     number of scf cycles    =   2
     number of bfgs steps    =   1

     energy             old  =   -2246.1770967971 Ry
     energy             new  =   -2246.2895318988 Ry

     CASE: energy            _new < energy            _old

     new trust radius        =       0.1728973959 bohr
     new conv_thr            =       0.0000002443 Ry


ATOMIC_POSITIONS (angstrom)
Mo            6.5834692811        1.7707753350        2.8250829181
S             8.1668155143        0.8239782924        4.4381892536
S             8.1849890891        0.8207432735        1.2743745306
Mo            8.0966592070        4.4982335799        2.7163121528
S             6.4994926329        3.7186042514        4.3420512564
S             6.5540046366        3.5191724556        1.1216133820
Mo            6.4947585735        7.2082236624        2.6683574855
S             8.0858431930        6.3428507654        4.2556784785
S             8.0873530318        6.3089447790        1.0915826214
Mo            8.1337407561        9.9223253176        2.8092368950
S             6.5013442311        8.9419184892        4.3759736043
S             6.6155834816        9.0469875991        1.1432324281
Mo            3.4241144370        1.7496903945        2.7712690085
S             4.9809243417        0.8168872690        4.3603566339
S             5.0494268892        0.8486638763        1.2207051065
Mo            4.9797475959        4.5201684294        2.6365473698
S             3.4321010195        3.6724821788        4.2810366751
S             3.4356495119        3.5442216214        1.0676480333
Mo            3.4560421991        7.2075136590        2.6269952976
S             4.9850004949        6.3232969983        1.0366534163
Mo            5.0079128736        9.9039209877        2.7450432563
S             3.4710533123        8.9416132312        4.3227041232
S             3.4079947306        9.0634660093        1.0999160631
Mo            0.2883101276        1.7455773321        2.8362071320
S             1.8631677028        0.8129114610        4.4051155626
S             1.8530477721        0.8556248841        1.2050346359
Mo            1.8622515000        4.4968788997        2.6646388196
S             0.2728515028        3.6532786141        4.3342790463
S             0.2333928256        3.5267980512        1.1702364126
Mo            0.2733892140        7.2137716537        2.6662359009
S             1.8994251258        6.3152050858        4.2370928480
S             1.8583604867        6.3145098374        1.0497331947
Mo            1.8917503732        9.9531814868        2.7552076450
S             0.3070553053        9.1142420318        4.2241095910
S             0.2715934383        9.0489344467        1.1544590812
O            -0.0362693960        8.4156057262        5.7218516774



     Writing config-only to output data dir ./MoS2-V-O.save/
     NEW-OLD atomic charge density approx. for the potential

     negative rho (up, down):  1.887E-04 0.000E+00

     total cpu time spent up to now is      252.8 secs

     Self-consistent Calculation

     iteration #  1     ecut=    80.00 Ry     beta= 0.70
     Davidson diagonalization with overlap
     ethr =  1.00E-06,  avg # of iterations = 16.0

     negative rho (up, down):  9.211E-05 0.000E+00

     total cpu time spent up to now is      272.2 secs

     total energy              =   -2246.35745527 Ry
     estimated scf accuracy    <       0.01019649 Ry

     iteration #  2     ecut=    80.00 Ry     beta= 0.70
     Davidson diagonalization with overlap
     ethr =  3.27E-06,  avg # of iterations =  2.0

     negative rho (up, down):  7.271E-05 0.000E+00

     total cpu time spent up to now is      288.7 secs

     total energy              =   -2246.35747316 Ry
     estimated scf accuracy    <       0.00276280 Ry

     iteration #  3     ecut=    80.00 Ry     beta= 0.70
     Davidson diagonalization with overlap
     ethr =  8.86E-07,  avg # of iterations =  2.0

     negative rho (up, down):  7.608E-05 0.000E+00

     total cpu time spent up to now is      299.4 secs

     total energy              =   -2246.35755036 Ry
     estimated scf accuracy    <       0.00054904 Ry

     iteration #  4     ecut=    80.00 Ry     beta= 0.70
     Davidson diagonalization with overlap
     ethr =  1.76E-07,  avg # of iterations =  7.0

     negative rho (up, down):  6.814E-05 0.000E+00

     total cpu time spent up to now is      310.2 secs

     total energy              =   -2246.35762508 Ry
     estimated scf accuracy    <       0.00008161 Ry

     iteration #  5     ecut=    80.00 Ry     beta= 0.70
     Davidson diagonalization with overlap
     ethr =  2.62E-08,  avg # of iterations =  5.0

     negative rho (up, down):  5.588E-05 0.000E+00

     total cpu time spent up to now is      322.6 secs

     total energy              =   -2246.35764089 Ry
     estimated scf accuracy    <       0.00001872 Ry

     iteration #  6     ecut=    80.00 Ry     beta= 0.70
     Davidson diagonalization with overlap
     ethr =  6.00E-09,  avg # of iterations =  2.0

     negative rho (up, down):  4.011E-05 0.000E+00

     total cpu time spent up to now is      334.7 secs

     total energy              =   -2246.35764243 Ry
     estimated scf accuracy    <       0.00000756 Ry

     iteration #  7     ecut=    80.00 Ry     beta= 0.70
     Davidson diagonalization with overlap
     ethr =  2.42E-09,  avg # of iterations =  5.0

     negative rho (up, down):  3.195E-05 0.000E+00

     total cpu time spent up to now is      345.5 secs

     total energy              =   -2246.35764472 Ry
     estimated scf accuracy    <       0.00000196 Ry

     iteration #  8     ecut=    80.00 Ry     beta= 0.70
     Davidson diagonalization with overlap
     ethr =  6.28E-10,  avg # of iterations =  4.0

     negative rho (up, down):  3.612E-05 0.000E+00

     total cpu time spent up to now is      356.6 secs

     total energy              =   -2246.35764600 Ry
     estimated scf accuracy    <       0.00000086 Ry

     iteration #  9     ecut=    80.00 Ry     beta= 0.70
     Davidson diagonalization with overlap
     ethr =  2.75E-10,  avg # of iterations =  4.0

     negative rho (up, down):  6.430E-05 0.000E+00

     total cpu time spent up to now is      369.6 secs

     total energy              =   -2246.35764668 Ry
     estimated scf accuracy    <       0.00000029 Ry

     iteration # 10     ecut=    80.00 Ry     beta= 0.70
     Davidson diagonalization with overlap
     ethr =  9.16E-11,  avg # of iterations =  4.0

     negative rho (up, down):  1.826E-04 0.000E+00

     total cpu time spent up to now is      373.1 secs

     End of self-consistent calculation

          k = 0.0000 0.0000 0.0000 (105382 PWs)   bands (ev):

   -63.1017 -63.0764 -63.0614 -63.0430 -63.0304 -63.0264 -63.0168 -62.9960
   -62.9828 -62.9760 -62.9637 -62.8343 -37.4334 -37.4055 -37.3675 -37.3453
   -37.3246 -37.3174 -37.3061 -37.2880 -37.2754 -37.2652 -37.2553 -37.2486
   -37.2307 -37.2185 -37.2090 -37.2055 -37.1948 -37.1897 -37.1829 -37.1782
   -37.1643 -37.1512 -37.1365 -37.1259 -37.1231 -37.1209 -37.1092 -37.0995
   -37.0839 -37.0549 -37.0139 -37.0091 -36.9993 -36.9766 -36.9525 -36.8816
   -20.2207 -16.1394 -15.3792 -15.2879 -15.1505 -15.0868 -14.9379 -14.6743
   -14.6491 -14.6281 -14.6035 -14.5594 -14.5119 -14.4749 -14.4489 -14.3223
   -14.2968 -14.2894 -14.2355 -14.1749 -14.0768 -14.0559 -14.0139 -13.9262
    -7.9298  -7.8116  -7.6992  -7.6198  -7.4799  -7.4125  -7.3983  -7.3397
    -7.2837  -7.0268  -6.9833  -6.9591  -6.9224  -6.8448  -6.7844  -6.6864
    -6.6372  -6.5599  -6.4805  -6.4200  -6.2233  -6.1530  -6.0810  -6.0182
    -5.9974  -5.9720  -5.9176  -5.8575  -5.8446  -5.8277  -5.7777  -5.7116
    -5.6141  -5.5827  -5.5408  -5.4435  -5.3546  -5.3160  -5.2901  -5.1971
    -5.1612  -5.1185  -5.0602  -4.8184  -4.7965  -4.6736  -4.5794  -4.5268
    -4.4729  -4.4185  -4.3228  -4.2406  -4.0873  -4.0162  -3.9752  -3.9588
    -3.9286  -3.8575  -3.8008  -3.7871  -3.7256  -3.6790  -3.6684  -3.6421
    -3.5856  -3.5340  -3.4519  -3.3318  -3.1786  -3.1033  -3.0675  -3.0277
    -2.9603  -2.9430  -2.8788  -2.8631  -2.8149  -2.7766  -2.6188  -2.4427
    -2.3998  -2.2079  -2.1717  -1.9705  -0.9815  -0.9230  -0.5104  -0.3689
    -0.3418  -0.2360  -0.2038  -0.1137  -0.0584   0.0267   0.0682   0.1075
     0.1340   0.2476   0.2725   0.3186   0.3449   0.3682   0.3913   0.4729
     0.5217   0.5697   0.5947   0.6389   0.6641   0.7125   0.7359   0.8092
     0.8205   0.8671   0.9574

     the Fermi energy is    -1.4763 ev

!    total energy              =   -2246.35764680 Ry
     estimated scf accuracy    <       0.00000010 Ry
     smearing contrib. (-TS)   =      -0.00000002 Ry
     internal energy E=F+TS    =   -2246.35764678 Ry

     The total energy is F=E-TS. E is the sum of the following terms:
     one-electron contribution =  -18413.99912227 Ry
     hartree contribution      =    9194.02254549 Ry
     xc contribution           =    -392.00694764 Ry
     ewald contribution        =    7375.49329073 Ry
     one-center paw contrib.   =      -9.86741308 Ry

     convergence has been achieved in  10 iterations

     negative rho (up, down):  1.826E-04 0.000E+00

     Forces acting on atoms (cartesian axes, Ry/au):

     atom    1 type  1   force =     0.00270751   -0.00845098   -0.00089367
     atom    2 type  2   force =    -0.00913418    0.01082068   -0.00024846
     atom    3 type  2   force =    -0.01125771    0.01420877   -0.01541270
     atom    4 type  1   force =     0.00204359    0.00371662    0.00123108
     atom    5 type  2   force =     0.00072136   -0.00543393   -0.00583735
     atom    6 type  2   force =     0.00019202    0.00640364    0.00241284
     atom    7 type  1   force =     0.00521075   -0.00788041    0.00140776
     atom    8 type  2   force =     0.00854390   -0.00047256    0.00824198
     atom    9 type  2   force =     0.00605700    0.00274687    0.00156307
     atom   10 type  1   force =    -0.01708568    0.01743495   -0.01811913
     atom   11 type  2   force =     0.00660372    0.00029102   -0.01215666
     atom   12 type  2   force =    -0.00788080   -0.00311973   -0.00276028
     atom   13 type  1   force =     0.00364027    0.00585119   -0.00206371
     atom   14 type  2   force =     0.00525482   -0.00020131    0.00847931
     atom   15 type  2   force =    -0.00799668    0.00234877   -0.00695209
     atom   16 type  1   force =     0.00044844    0.00587883    0.00336475
     atom   17 type  2   force =     0.00505245    0.00118632    0.00208705
     atom   18 type  2   force =    -0.00137887   -0.00289166    0.00980004
     atom   19 type  1   force =     0.00185669   -0.00596220    0.00210266
     atom   20 type  2   force =     0.00282734   -0.00497476   -0.00347335
     atom   21 type  1   force =    -0.00244132   -0.00137227    0.00302484
     atom   22 type  2   force =     0.00216881   -0.00266080   -0.00352415
     atom   23 type  2   force =     0.00641978   -0.00380450   -0.00196099
     atom   24 type  1   force =    -0.00455937   -0.00476080   -0.00612496
     atom   25 type  2   force =     0.01292654    0.01745478    0.00081198
     atom   26 type  2   force =    -0.00446597    0.00510110   -0.01019592
     atom   27 type  1   force =     0.00197440    0.00241857    0.00699588
     atom   28 type  2   force =    -0.00009171   -0.00193896   -0.00519314
     atom   29 type  2   force =     0.00254937    0.00147447   -0.00340307
     atom   30 type  1   force =    -0.00149580   -0.00999353   -0.01330577
     atom   31 type  2   force =    -0.00551815    0.00333610    0.00888628
     atom   32 type  2   force =    -0.00163037    0.00176866    0.00006258
     atom   33 type  1   force =     0.01343870    0.00810866    0.00090927
     atom   34 type  2   force =    -0.06639810   -0.15672832    0.15916680
     atom   35 type  2   force =    -0.00117795    0.01350647   -0.00047255
     atom   36 type  3   force =     0.05187521    0.09659028   -0.10845022
     The non-local contrib.  to forces
     atom    1 type  1   force =    -0.00118710    0.02814188   -0.01121332
     atom    2 type  2   force =    -0.00581765   -0.00907839   -0.27734416
     atom    3 type  2   force =    -0.01136012   -0.00036603    0.25931729
     atom    4 type  1   force =    -0.00047464    0.01082184    0.00316821
     atom    5 type  2   force =     0.00714071   -0.03402932   -0.25670050
     atom    6 type  2   force =    -0.00238030    0.00679649    0.26682842
     atom    7 type  1   force =    -0.01593181    0.00192898   -0.02078448
[...]
     atom   28 type  2   force =     0.00108424   -0.01322704   -0.27736148
     atom   29 type  2   force =    -0.00128933   -0.00784774    0.27026973
     atom   30 type  1   force =     0.00009115    0.03070856    0.01901249
     atom   31 type  2   force =    -0.00824051    0.00458395   -0.27158848
     atom   32 type  2   force =     0.00478601   -0.01324118    0.26889963
     atom   33 type  1   force =    -0.01040275   -0.00107312    0.02044867
     atom   34 type  2   force =    -0.00030350   -0.00827873    0.29493966
     atom   35 type  2   force =    -0.00038110   -0.01589098    0.27662456
     atom   36 type  3   force =    -0.00107936    0.02469352   -2.31963989
     The ionic contribution  to forces
     atom    1 type  1   force =    -0.56122366    1.28587402    1.54918417
     atom    2 type  2   force =    -0.71682580    1.11933524   38.26923639
     atom    3 type  2   force =     0.04679890    0.15665939  -38.30491598
     atom    4 type  1   force =    -0.35709319   -0.21729912   -0.89780071
     atom    5 type  2   force =    -0.91172782    1.13579385   38.11301635
     atom    6 type  2   force =     0.10958782   -0.36978348  -38.45681911
     atom    7 type  1   force =    -3.26421629   -2.46310750    0.78201134
     atom    8 type  2   force =    -1.78486400   -0.81027187   37.52519701
     atom    9 type  2   force =     0.23126270   -0.10929745  -38.85846640
     atom   10 type  1   force =    -1.42267370    0.18759657   -1.29822794
     atom   11 type  2   force =    -1.40181166   -1.53714853   37.81879538
     atom   12 type  2   force =     0.10385073    0.29414329  -38.76594178
     atom   13 type  1   force =     0.56352847    1.28486460    2.04163838
     atom   14 type  2   force =     0.02738297    0.29066835   38.35399359
     atom   15 type  2   force =    -0.01636711    0.03453151  -37.87482995
     atom   16 type  1   force =     0.02570751    3.24762356    1.26237553
     atom   17 type  2   force =     0.95666779    1.14120245   38.25096942
     atom   18 type  2   force =    -0.13622541   -0.36607321  -38.34702011
     atom   19 type  1   force =     3.32888083   -2.46667831    1.44178628
     atom   20 type  2   force =    -0.02656485   -0.13209591  -39.01381583
     atom   21 type  1   force =     0.04394840    0.02245523    0.00715281
     atom   22 type  2   force =     1.44235685   -1.51620423   37.88742780
     atom   23 type  2   force =    -0.12567671    0.25489269  -38.67724841
     atom   24 type  1   force =    -0.01970499    1.41419789    1.10159460
     atom   25 type  2   force =     0.68872131    1.13564036   38.33130156
     atom   26 type  2   force =    -0.02085097    0.16275427  -38.24536528
     atom   27 type  1   force =     0.34094978   -0.22699038   -0.13252140
     atom   28 type  2   force =    -0.03565602    0.47350782   37.83099484
     atom   29 type  2   force =     0.03152964   -0.13547100  -37.99652464
     atom   30 type  1   force =    -0.01708169   -1.80623934   -2.36888692
     atom   31 type  2   force =     1.73796682   -0.81306159   37.66577849
     atom   32 type  2   force =    -0.20950674   -0.11747786  -38.72834647
     atom   33 type  1   force =     1.39198339    0.20476444   -1.17052878
     atom   34 type  2   force =    -0.03556659   -0.43272803   28.63011091
     atom   35 type  2   force =     0.01508803    0.14119668  -38.18582817
     atom   36 type  3   force =    -0.02257474   -0.46777439   50.46052303
     The local contribution  to forces
     atom    1 type  1   force =     0.56497343   -1.30905248   -1.54454422
     atom    2 type  2   force =     0.71733283   -1.10806813  -38.01889283
     atom    3 type  2   force =    -0.04417307   -0.14734185   38.06043825
     atom    4 type  1   force =     0.35477151    0.21262531    0.89530206
     atom    5 type  2   force =     0.90750958   -1.11284327  -37.87730718
     atom    6 type  2   force =    -0.11047533    0.37186349   38.21184770
     atom    7 type  1   force =     3.27896358    2.45890112   -0.76005394
     atom    8 type  2   force =     1.77610487    0.80586888  -37.27524110
     atom    9 type  2   force =    -0.22584787    0.12185086   38.61162787
     atom   10 type  1   force =     1.41212461   -0.18633423    1.27775362
     atom   11 type  2   force =     1.39864921    1.53344840  -37.57598016
     atom   12 type  2   force =    -0.09645929   -0.28079990   38.52522728
     atom   13 type  1   force =    -0.56685349   -1.30939919   -2.03679770
     atom   14 type  2   force =    -0.02679696   -0.28000236  -38.10215555
     atom   15 type  2   force =     0.01615024   -0.02279736   37.63083159
     atom   16 type  1   force =    -0.02602270   -3.28106863   -1.22633296
     atom   17 type  2   force =    -0.95175583   -1.11874820  -38.01564520
     atom   18 type  2   force =     0.13641088    0.36852013   38.10199295
     atom   19 type  1   force =    -3.34331830    2.46275241   -1.41960314
     atom   20 type  2   force =     0.02589180    0.14346689   38.77004459
     atom   21 type  1   force =    -0.04387023   -0.05325593   -0.01889845
     atom   22 type  2   force =    -1.43844933    1.51320271  -37.64437573
     atom   23 type  2   force =     0.11810733   -0.24170393   38.43589152
     atom   24 type  1   force =     0.02054850   -1.42659212   -1.10007520
     atom   25 type  2   force =    -0.68943533   -1.12477636  -38.08106550
     atom   26 type  2   force =     0.01879505   -0.15314355   38.00075208
     atom   27 type  1   force =    -0.33929788    0.22301607    0.12991531
     atom   28 type  2   force =     0.03485618   -0.46101412  -37.57480255
     atom   29 type  2   force =    -0.03077792    0.14336754   37.74690924
     atom   30 type  1   force =     0.01658397    1.77419110    2.34993449
     atom   31 type  2   force =    -1.73015297    0.80892231  -37.41587213
     atom   32 type  2   force =     0.20456152    0.13006226   38.48113169
     atom   33 type  1   force =    -1.38340097   -0.20484945    1.15071469
     atom   34 type  2   force =     0.03545167    0.44089670  -28.91724098
     atom   35 type  2   force =    -0.01489638   -0.12775428   37.93006316
     atom   36 type  3   force =     0.02347748    0.44352587  -48.16469244
     The core correction contribution to forces
     atom    1 type  1   force =     0.00000000    0.00000000    0.00000000
     atom    2 type  2   force =     0.00003132    0.00045847    0.02122746
     atom    3 type  2   force =     0.00017816    0.00047459   -0.02083729
     atom    4 type  1   force =     0.00000000    0.00000000    0.00000000
     atom    5 type  2   force =    -0.00033611    0.00110464    0.02046958
     atom    6 type  2   force =     0.00012757   -0.00036492   -0.02087194
     atom    7 type  1   force =     0.00000000    0.00000000    0.00000000
     atom    8 type  2   force =    -0.00050597    0.00004741    0.02127981
     atom    9 type  2   force =     0.00056030    0.00077402   -0.02100346
     atom   10 type  1   force =     0.00000000    0.00000000    0.00000000
     atom   11 type  2   force =     0.00006699   -0.00046995    0.02103109
     atom   12 type  2   force =     0.00061576    0.00096760   -0.02074390
     atom   13 type  1   force =     0.00000000    0.00000000    0.00000000
     atom   14 type  2   force =     0.00005114    0.00017845    0.02113319
     atom   15 type  2   force =    -0.00008422    0.00050429   -0.02072148
     atom   16 type  1   force =     0.00000000    0.00000000    0.00000000
     atom   17 type  2   force =     0.00047064    0.00111273    0.02049581
     atom   18 type  2   force =    -0.00018436   -0.00035301   -0.02086237
     atom   19 type  1   force =     0.00000000    0.00000000    0.00000000
     atom   20 type  2   force =    -0.00011232    0.00050950   -0.02126763
     atom   21 type  1   force =     0.00000000    0.00000000    0.00000000
     atom   22 type  2   force =    -0.00008769   -0.00037971    0.02103057
     atom   23 type  2   force =    -0.00064291    0.00090161   -0.02072482
     atom   24 type  1   force =     0.00000000    0.00000000    0.00000000
     atom   25 type  2   force =    -0.00009775    0.00042332    0.02122799
     atom   26 type  2   force =    -0.00015742    0.00049673   -0.02082377
     atom   27 type  1   force =     0.00000000    0.00000000    0.00000000
     atom   28 type  2   force =    -0.00008956    0.00088494    0.02126966
     atom   29 type  2   force =     0.00010450    0.00017424   -0.02088062
     atom   30 type  1   force =     0.00000000    0.00000000    0.00000000
     atom   31 type  2   force =     0.00038067    0.00010939    0.02131498
     atom   32 type  2   force =    -0.00047174    0.00067954   -0.02099264
     atom   33 type  1   force =     0.00000000    0.00000000    0.00000000
     atom   34 type  2   force =     0.00000326    0.00034755   -0.00962580
     atom   35 type  2   force =     0.00002458    0.00089001   -0.02130643
     atom   36 type  3   force =     0.00001280   -0.00027729    0.02458626
     The Hubbard contrib.    to forces
     atom    1 type  1   force =     0.00000000    0.00000000    0.00000000
     atom    2 type  2   force =     0.00000000    0.00000000    0.00000000
     atom    3 type  2   force =     0.00000000    0.00000000    0.00000000
     atom    4 type  1   force =     0.00000000    0.00000000    0.00000000
     atom    5 type  2   force =     0.00000000    0.00000000    0.00000000
     atom    6 type  2   force =     0.00000000    0.00000000    0.00000000
     atom    7 type  1   force =     0.00000000    0.00000000    0.00000000
     atom    8 type  2   force =     0.00000000    0.00000000    0.00000000
     atom    9 type  2   force =     0.00000000    0.00000000    0.00000000
     atom   10 type  1   force =     0.00000000    0.00000000    0.00000000
     atom   11 type  2   force =     0.00000000    0.00000000    0.00000000
     atom   12 type  2   force =     0.00000000    0.00000000    0.00000000
     atom   13 type  1   force =     0.00000000    0.00000000    0.00000000
     atom   14 type  2   force =     0.00000000    0.00000000    0.00000000
     atom   15 type  2   force =     0.00000000    0.00000000    0.00000000
     atom   16 type  1   force =     0.00000000    0.00000000    0.00000000
     atom   17 type  2   force =     0.00000000    0.00000000    0.00000000
     atom   18 type  2   force =     0.00000000    0.00000000    0.00000000
     atom   19 type  1   force =     0.00000000    0.00000000    0.00000000
     atom   20 type  2   force =     0.00000000    0.00000000    0.00000000
     atom   21 type  1   force =     0.00000000    0.00000000    0.00000000
     atom   22 type  2   force =     0.00000000    0.00000000    0.00000000
     atom   23 type  2   force =     0.00000000    0.00000000    0.00000000
     atom   24 type  1   force =     0.00000000    0.00000000    0.00000000
     atom   25 type  2   force =     0.00000000    0.00000000    0.00000000
     atom   26 type  2   force =     0.00000000    0.00000000    0.00000000
     atom   27 type  1   force =     0.00000000    0.00000000    0.00000000
     atom   28 type  2   force =     0.00000000    0.00000000    0.00000000
     atom   29 type  2   force =     0.00000000    0.00000000    0.00000000
     atom   30 type  1   force =     0.00000000    0.00000000    0.00000000
     atom   31 type  2   force =     0.00000000    0.00000000    0.00000000
     atom   32 type  2   force =     0.00000000    0.00000000    0.00000000
     atom   33 type  1   force =     0.00000000    0.00000000    0.00000000
     atom   34 type  2   force =     0.00000000    0.00000000    0.00000000
     atom   35 type  2   force =     0.00000000    0.00000000    0.00000000
     atom   36 type  3   force =     0.00000000    0.00000000    0.00000000
     The SCF correction term to forces
     atom    1 type  1   force =     0.00000858    0.00001259   -0.00000205
     atom    2 type  2   force =    -0.00000319    0.00000143   -0.00000296
     atom    3 type  2   force =     0.00000468    0.00000700   -0.00000929
     atom    4 type  1   force =     0.00000444    0.00002459   -0.00003770
     atom    5 type  2   force =     0.00000158    0.00000936   -0.00001415
     atom    6 type  2   force =     0.00001161    0.00001911   -0.00000661
     atom    7 type  1   force =    -0.00000254   -0.00000428   -0.00003372
     atom    8 type  2   force =     0.00001514    0.00000085   -0.00001240
     atom    9 type  2   force =     0.00001436   -0.00000548   -0.00000869
     atom   10 type  1   force =     0.00002416   -0.00003680   -0.00000504
     atom   11 type  2   force =    -0.00000621    0.00000015   -0.00000340
     atom   12 type  2   force =    -0.00000824   -0.00001408   -0.00000763
     atom   13 type  1   force =     0.00001252   -0.00000492    0.00000169
     atom   14 type  2   force =    -0.00000982   -0.00000642   -0.00000388
     atom   15 type  2   force =    -0.00000684   -0.00000765    0.00000815
     atom   16 type  1   force =    -0.00001140    0.00001682   -0.00001514
     atom   17 type  2   force =    -0.00000081    0.00001051   -0.00000623
     atom   18 type  2   force =    -0.00000145    0.00001910   -0.00000321
     atom   19 type  1   force =    -0.00000965   -0.00000971   -0.00001803
     atom   20 type  2   force =    -0.00000324    0.00000525   -0.00000786
     atom   21 type  1   force =    -0.00000154   -0.00002332   -0.00000245
     atom   22 type  2   force =    -0.00000605   -0.00000609   -0.00000865
     atom   23 type  2   force =     0.00000833   -0.00002266    0.00000481
     atom   24 type  1   force =     0.00000789    0.00002748   -0.00002106
     atom   25 type  2   force =     0.00000480   -0.00000355   -0.00000515
     atom   26 type  2   force =    -0.00000700    0.00001018    0.00000076
     atom   27 type  1   force =    -0.00002081    0.00003577   -0.00001977
     atom   28 type  2   force =     0.00000668    0.00001169   -0.00001784
     atom   29 type  2   force =    -0.00000232    0.00000993   -0.00000396
     atom   30 type  1   force =     0.00000922   -0.00000359   -0.00001711
     atom   31 type  2   force =    -0.00000251    0.00000572   -0.00001567
     atom   32 type  2   force =    -0.00000679   -0.00000114    0.00000484
     atom   33 type  1   force =    -0.00001352   -0.00004245    0.00002865
     atom   34 type  2   force =     0.00001113   -0.00001589   -0.00001898
     atom   35 type  2   force =     0.00000097   -0.00001270    0.00000972
     atom   36 type  3   force =     0.00000151   -0.00004711   -0.00002732

     Total force =     0.006474     Total SCF correction =     0.000151
     Energy error            =      7.7E-05 Ry
     Gradient error          =      1.8E-03 Ry/Bohr

     bfgs converged in  21 scf cycles and  20 bfgs steps
     (criteria: energy <  1.0E-04 Ry, force <  1.0E-02 Ry/Bohr)

     End of BFGS Geometry Optimization

     Final energy             =   -2246.4498163991 Ry

     File ./MoS2-V-O.bfgs deleted, as requested
Begin final coordinates

ATOMIC_POSITIONS (angstrom)
Mo            6.5558158796        1.7433959280        2.7624939729
S             8.1216235263        0.8322222023        4.3749583272
S             8.1296872189        0.8466661714        1.1687875239
Mo            8.1137181826        4.4873294085        2.7080153466
S             6.5213856910        3.6536126273        4.3088871024
S             6.5463474007        3.5475939967        1.1143292883
Mo            6.5150243264        7.1717090770        2.6641799079
S             8.0767828118        6.2904077622        4.3010846466
S             8.1238748292        6.3076970871        1.0924570090
Mo            8.1070037283        9.9414621840        2.7549638461
S             6.5212179514        8.9339405895        4.3230525319
S             6.5705270697        9.0143053438        1.1161490799
Mo            3.4180102225        1.7464847585        2.7715604656
S             4.9895985967        0.7972680914        4.3547574412
S             4.9811754993        0.8241692693        1.1792528387
Mo            4.9904504979        4.5229748010        2.6643758578
S             3.4659428181        3.6579556711        4.3202151813
S             3.4298102378        3.5476126557        1.1242836518
Mo            3.4615524325        7.1703198694        2.6765836372
S             4.9830664560        6.2960896094        1.0521423184
Mo            4.9870033035        9.8845549850        2.7368084324
S             3.4520691191        8.9404672663        4.3287321126
S             3.4032672495        9.0099613844        1.1251431310
Mo            0.2574980846        1.7282084484        2.7741361532
S             1.8475083464        0.8349685905        4.3803022050
S             1.8453257849        0.8490521271        1.1743336557
Mo            1.8661502779        4.4859657361        2.7221815770
S             0.2554870611        3.5970476920        4.3187416245
S             0.2660099960        3.5472873722        1.1549339168
Mo            0.2609714829        7.1747924836        2.7212333065
S             1.8941860055        6.2927529917        4.3131273867
S             1.8590042484        6.3005044255        1.1042533379
Mo            1.8704302715        9.9448089412        2.7585243020
S             0.2605870297        9.0110908023        4.2636584326
S             0.2631602122        9.0463599348        1.1842794240
O             0.2610731622        9.0001616814        5.7618425642
End final coordinates



     Writing all to output data dir ./MoS2-V-O.save/
 
     init_run     :      5.37s CPU      5.87s WALL (       1 calls)
     electrons    :   1849.41s CPU   2092.38s WALL (      21 calls)
     update_pot   :     60.95s CPU     64.95s WALL (      20 calls)
     forces       :     57.36s CPU     65.36s WALL (      21 calls)

     Called by init_run:
     wfcinit      :      0.48s CPU      0.53s WALL (       1 calls)
     potinit      :      3.13s CPU      3.37s WALL (       1 calls)
     hinit0       :      0.45s CPU      0.47s WALL (       1 calls)

     Called by electrons:
     c_bands      :    270.72s CPU    277.54s WALL (     192 calls)
     sum_band     :    107.47s CPU    138.50s WALL (     192 calls)
     v_of_rho     :    180.36s CPU    219.35s WALL (     205 calls)
     newd         :     63.80s CPU     92.71s WALL (     205 calls)
     PAW_pot      :      8.16s CPU      8.19s WALL (     225 calls)
     mix_rho      :   1240.83s CPU   1380.00s WALL (     192 calls)

     Called by c_bands:
     init_us_2    :      4.43s CPU      4.75s WALL (     405 calls)
     init_us_2:cp :      4.43s CPU      4.74s WALL (     405 calls)
     regterg      :    256.25s CPU    262.75s WALL (     192 calls)

     Called by *egterg:
     rdiaghg      :     17.49s CPU     17.70s WALL (     981 calls)
     h_psi        :    166.87s CPU    168.45s WALL (    1010 calls)
     s_psi        :     15.83s CPU     15.90s WALL (    1010 calls)
     g_psi        :      0.81s CPU      0.82s WALL (     817 calls)

     Called by h_psi:
     h_psi:calbec :     17.74s CPU     17.84s WALL (    1010 calls)
     vloc_psi     :    131.41s CPU    132.80s WALL (    1010 calls)
     add_vuspsi   :     15.62s CPU     15.70s WALL (    1010 calls)

     General routines
     calbec       :     25.89s CPU     26.04s WALL (    1306 calls)
     fft          :    123.44s CPU    143.04s WALL (   13730 calls)
     ffts         :    558.02s CPU    692.06s WALL (  305656 calls)
     fftw         :     84.40s CPU     85.19s WALL (  116842 calls)
     interpolate  :      2.54s CPU      2.93s WALL (     205 calls)
 
     Parallel routines
 
     PWSCF        :  33m 2.23s CPU  37m21.97s WALL

 
   This run was terminated on:  20:48:13   1Nov2023            

=------------------------------------------------------------------------------=
   JOB DONE.
=------------------------------------------------------------------------------=
