
     Program PWSCF v.7.2 starts on  1Nov2023 at 18:53:55 

     This program is part of the open-source Quantum ESPRESSO suite
     for quantum simulation of materials; please cite
         "P. Giannozzi et al., J. Phys.:Condens. Matter 21 395502 (2009);
         "P. Giannozzi et al., J. Phys.:Condens. Matter 29 465901 (2017);
         "P. Giannozzi et al., J. Chem. Phys. 152 154105 (2020);
          URL http://www.quantum-espresso.org", 
     in publications or presentations arising from this work. More details at
     http://www.quantum-espresso.org/quote

     Parallel version (MPI & OpenMP), running on      48 processor cores
     Number of MPI processes:                48
     Threads/MPI process:                     1

     MPI processes distributed on     1 nodes
     44425 MiB available memory on the printing compute node when the environment starts
 
     Waiting for input...
     Reading input from standard input
Warning: card &CELL ignored
Warning: card CELL_DYNAMICS = 'BFGS', ignored
Warning: card CELL_DOFREE = '2DXY' ignored
Warning: card / ignored

     Current dimensions of program PWSCF are:
     Max number of different atomic species (ntypx) = 10
     Max number of k-points (npk) =  40000
     Max angular momentum in pseudopotentials (lmaxx) =  4
     file O.pbe-n-kjpaw_psl.0.1.UPF: wavefunction(s)  2P renormalized

     IMPORTANT: XC functional enforced from input :
     Exchange-correlation= RVV10
                           (   1   4  13   4  26   0   0)
     Any further DFT definition will be discarded
     Please, verify this is what you really want


     gamma-point specific algorithms are used
     signal trapping enabled: kill the code with -SIGUSR1 to stop cleanly the simulation 
 
     R & G space division:  proc/nbgrp/npool/nimage =      48
     Subspace diagonalization in iterative solution of the eigenvalue problem:
     one sub-group per band group will be used
     scalapack distributed-memory algorithm (size of sub-group:  2*  2 procs)

 
     Parallelization info
     --------------------
     sticks:   dense  smooth     PW     G-vecs:    dense   smooth      PW
     Min         396     194     47               101632    35090    4376
     Max         398     196     50               101674    35128    4410
     Sum       19091    9389   2349              4879585  1685513  210763
 
     Using Slab Decomposition
 


     bravais-lattice index     =            0
     lattice parameter (alat)  =      17.8707  a.u.
     unit-cell volume          =   17436.2743 (a.u.)^3
     number of atoms/cell      =           36
     number of atomic types    =            3
     number of electrons       =       312.00
     number of Kohn-Sham states=          187
     kinetic-energy cutoff     =      80.0000  Ry
     charge density cutoff     =     650.0000  Ry
     scf convergence threshold =      1.0E-06
     mixing beta               =       0.7000
     number of iterations used =            8  local-TF  mixing
     energy convergence thresh.=      1.0E-04
     force convergence thresh. =      1.0E-02
     Exchange-correlation= RVV10
                           (   1   4  13   4  26   0   0)
     nstep                     =          200


     celldm(1)=  17.870686  celldm(2)=   0.000000  celldm(3)=   0.000000
     celldm(4)=   0.000000  celldm(5)=   0.000000  celldm(6)=   0.000000

     crystal axes: (cart. coord. in units of alat)
               a(1) = (   1.000000   0.000000   0.000000 )  
               a(2) = (   0.000000   1.155671   0.000000 )  
               a(3) = (   0.000000   0.000000   2.643601 )  

     reciprocal axes: (cart. coord. in units 2 pi/alat)
               b(1) = (  1.000000  0.000000  0.000000 )  
               b(2) = (  0.000000  0.865298  0.000000 )  
               b(3) = (  0.000000  0.000000  0.378272 )  


     PseudoPot. # 1 for Mo read from file:
     ../pseudo/Mo_ONCV_PBE-1.0.oncvpsp.upf
     MD5 check sum: 1b5d28e075c9ccadda658a603575cd1f
     Pseudo is Norm-conserving, Zval = 14.0
     Generated using ONCVPSP code by D. R. Hamann
     Using radial grid of 1526 points,  6 beta functions with: 
                l(1) =   0
                l(2) =   0
                l(3) =   1
                l(4) =   1
                l(5) =   2
                l(6) =   2

     PseudoPot. # 2 for S  read from file:
     ../pseudo/s_pbe_v1.4.uspp.F.UPF
     MD5 check sum: 88d86576ff6df21479756cfb9bdac1df
     Pseudo is Ultrasoft + core correction, Zval =  6.0
     Generated by new atomic code, or converted to UPF format
     Using radial grid of  907 points,  6 beta functions with: 
                l(1) =   0
                l(2) =   0
                l(3) =   1
                l(4) =   1
                l(5) =   2
                l(6) =   2
     Q(r) pseudized with  8 coefficients,  rinner =    1.300   1.300   1.300
                                                       1.300   1.300

     PseudoPot. # 3 for O  read from file:
     ../pseudo/O.pbe-n-kjpaw_psl.0.1.UPF
     MD5 check sum: 0234752ac141de4415c5fc33072bef88
     Pseudo is Projector augmented-wave + core cor, Zval =  6.0
     Generated using "atomic" code by A. Dal Corso  v.5.0.99 svn rev. 10869
     Shape of augmentation charge: BESSEL
     Using radial grid of 1095 points,  4 beta functions with: 
                l(1) =   0
                l(2) =   0
                l(3) =   1
                l(4) =   1
     Q(r) pseudized with 0 coefficients 


     atomic species   valence    mass     pseudopotential
        Mo            14.00    95.94000     Mo( 1.00)
        S              6.00    32.06500     S ( 1.00)
        O              6.00    15.99940     O ( 1.00)

     No symmetry found



   Cartesian axes

     site n.     atom                  positions (alat units)
         1           Mo  tau(   1) = (   0.6952221   0.1890506   0.2985846  )
         2           S   tau(   2) = (   0.8646417   0.0856217   0.4689279  )
         3           S   tau(   3) = (   0.8663890   0.0857843   0.1351291  )
         4           Mo  tau(   4) = (   0.8560186   0.4753274   0.2873942  )
         5           S   tau(   5) = (   0.6873294   0.3936244   0.4596353  )
         6           S   tau(   6) = (   0.6929804   0.3713468   0.1185692  )
         7           Mo  tau(   7) = (   0.6862796   0.7633098   0.2825370  )
         8           S   tau(   8) = (   0.8545980   0.6708292   0.4486168  )
         9           S   tau(   9) = (   0.8545123   0.6666874   0.1146125  )
        10           Mo  tau(  10) = (   0.8629403   1.0471007   0.3006803  )
        11           S   tau(  11) = (   0.6868280   0.9456650   0.4634891  )
        12           S   tau(  12) = (   0.6998113   0.9568511   0.1205389  )
        13           Mo  tau(  13) = (   0.3618216   0.1847309   0.2935964  )
        14           S   tau(  14) = (   0.5260962   0.0863870   0.4600448  )
        15           S   tau(  15) = (   0.5348379   0.0894875   0.1297123  )
        16           Mo  tau(  16) = (   0.5265817   0.4772436   0.2784130  )
        17           S   tau(  17) = (   0.3624753   0.3882513   0.4525556  )
        18           S   tau(  18) = (   0.3635411   0.3752055   0.1119148  )
        19           Mo  tau(  19) = (   0.3652268   0.7630864   0.2781795  )
        20           S   tau(  20) = (   0.5269494   0.6690381   0.1096838  )
        21           Mo  tau(  21) = (   0.5300192   1.0470394   0.2900995  )
        22           S   tau(  22) = (   0.3670346   0.9457522   0.4574073  )
        23           S   tau(  23) = (   0.3604225   0.9585725   0.1159032  )
        24           Mo  tau(  24) = (   0.0313099   0.1847895   0.3013130  )
        25           S   tau(  25) = (   0.1956761   0.0838230   0.4650863  )
        26           S   tau(  26) = (   0.1967693   0.0903508   0.1278874  )
        27           Mo  tau(  27) = (   0.1967578   0.4753919   0.2813011  )
        28           S   tau(  28) = (   0.0287851   0.3864324   0.4586755  )
        29           S   tau(  29) = (   0.0244514   0.3729871   0.1239344  )
        30           Mo  tau(  30) = (   0.0286728   0.7631204   0.2856894  )
        31           S   tau(  31) = (   0.2011512   0.6675435   0.4465001  )
        32           S   tau(  32) = (   0.1969214   0.6672839   0.1104564  )
        33           Mo  tau(  33) = (   0.1950294   1.0511147   0.2932237  )
        34           S   tau(  34) = (   0.0312912   0.9612169   0.4667423  )
        35           S   tau(  35) = (   0.0292670   0.9563028   0.1216485  )
        36           O   tau(  36) = (   0.1111111   0.7704471   0.5792558  )

     number of k points=     1  Gaussian smearing, width (Ry)=  0.0100
                       cart. coord. in units 2pi/alat
        k(    1) = (   0.0000000   0.0000000   0.0000000), wk =   2.0000000

     Dense  grid:  2439793 G-vectors     FFT dimensions: ( 150, 180, 384)

     Smooth grid:   842757 G-vectors     FFT dimensions: ( 108, 120, 270)

     Estimated max dynamical RAM per process >     269.22 MB

     Estimated total dynamical RAM >      12.62 GB

     Initial potential from superposition of free atoms

     starting charge     311.9873, renormalised to     312.0000

     negative rho (up, down):  2.742E-04 0.000E+00


---------------------------------------------------------------------------------
Carrying out rVV10 run using the following parameters:
Nqs =      20    Nr_points =    1024   r_max =   100.000
b_value =  6.30000    beta =  0.00901
     q_mesh =  0.00010000  0.00030000  0.00058939  0.00100810
               0.00161396  0.00249058  0.00375900  0.00559430
               0.00824984  0.01209221  0.01765183  0.02569619
               0.03733578  0.05417739  0.07854596  0.11380545
               0.16482331  0.23864234  0.34545298  0.50000000

Gradients computed in Reciprocal space

---------------------------------------------------------------------------------


     Starting wfcs are  216 randomized atomic wfcs
     Checking if some PAW data can be deallocated... 

     total cpu time spent up to now is        6.2 secs

     Self-consistent Calculation

     iteration #  1     ecut=    80.00 Ry     beta= 0.70
     Davidson diagonalization with overlap
     ethr =  1.00E-02,  avg # of iterations =  2.0

     Threshold (ethr) on eigenvalues was too large:
     Diagonalizing with lowered threshold

     Davidson diagonalization with overlap
     ethr =  4.36E-04,  avg # of iterations =  4.0

     negative rho (up, down):  2.665E-08 0.000E+00

     total cpu time spent up to now is       22.8 secs

     total energy              =   -2246.22163496 Ry
     estimated scf accuracy    <       1.60354338 Ry

     iteration #  2     ecut=    80.00 Ry     beta= 0.70
     Davidson diagonalization with overlap
     ethr =  5.14E-04,  avg # of iterations =  3.0

     total cpu time spent up to now is       28.4 secs

     total energy              =   -2246.21705278 Ry
     estimated scf accuracy    <       0.85414156 Ry

     iteration #  3     ecut=    80.00 Ry     beta= 0.70
     Davidson diagonalization with overlap
     ethr =  2.74E-04,  avg # of iterations =  2.0

     total cpu time spent up to now is       32.8 secs

     total energy              =   -2246.20775283 Ry
     estimated scf accuracy    <       0.30181146 Ry

     iteration #  4     ecut=    80.00 Ry     beta= 0.70
     Davidson diagonalization with overlap
     ethr =  9.67E-05,  avg # of iterations =  2.0

     total cpu time spent up to now is       37.2 secs

     total energy              =   -2246.24857840 Ry
     estimated scf accuracy    <       0.04502066 Ry

     iteration #  5     ecut=    80.00 Ry     beta= 0.70
     Davidson diagonalization with overlap
     ethr =  1.44E-05,  avg # of iterations = 14.0

     total cpu time spent up to now is       42.3 secs

     total energy              =   -2246.25134939 Ry
     estimated scf accuracy    <       0.01905603 Ry

     iteration #  6     ecut=    80.00 Ry     beta= 0.70
     Davidson diagonalization with overlap
     ethr =  6.11E-06,  avg # of iterations =  2.0

     total cpu time spent up to now is       46.3 secs

     total energy              =   -2246.25112687 Ry
     estimated scf accuracy    <       0.01228373 Ry

     iteration #  7     ecut=    80.00 Ry     beta= 0.70
     Davidson diagonalization with overlap
     ethr =  3.94E-06,  avg # of iterations =  1.0

     total cpu time spent up to now is       50.2 secs

     total energy              =   -2246.25042782 Ry
     estimated scf accuracy    <       0.00877851 Ry

     iteration #  8     ecut=    80.00 Ry     beta= 0.70
     Davidson diagonalization with overlap
     ethr =  2.81E-06,  avg # of iterations =  1.0

     negative rho (up, down):  1.894E-04 0.000E+00

     total cpu time spent up to now is       57.0 secs

     total energy              =   -2246.24906049 Ry
     estimated scf accuracy    <       0.00553085 Ry

     iteration #  9     ecut=    80.00 Ry     beta= 0.70
     Davidson diagonalization with overlap
     ethr =  1.77E-06,  avg # of iterations =  2.0

     negative rho (up, down):  8.855E-03 0.000E+00

     total cpu time spent up to now is       63.3 secs

     total energy              =   -2246.24883864 Ry
     estimated scf accuracy    <       0.00268643 Ry

     iteration # 10     ecut=    80.00 Ry     beta= 0.70
     Davidson diagonalization with overlap
     ethr =  8.61E-07,  avg # of iterations =  2.0

     negative rho (up, down):  1.769E-02 0.000E+00

     total cpu time spent up to now is       69.7 secs

     total energy              =   -2246.24869458 Ry
     estimated scf accuracy    <       0.00143534 Ry

     iteration # 11     ecut=    80.00 Ry     beta= 0.70
     Davidson diagonalization with overlap
     ethr =  4.60E-07,  avg # of iterations =  2.0

     negative rho (up, down):  1.920E-02 0.000E+00

     total cpu time spent up to now is       77.9 secs

     total energy              =   -2246.24878935 Ry
     estimated scf accuracy    <       0.00062781 Ry

     iteration # 12     ecut=    80.00 Ry     beta= 0.70
     Davidson diagonalization with overlap
     ethr =  2.01E-07,  avg # of iterations =  2.0

     negative rho (up, down):  8.580E-03 0.000E+00

     total cpu time spent up to now is       85.6 secs

     total energy              =   -2246.24879481 Ry
     estimated scf accuracy    <       0.00012966 Ry

     iteration # 13     ecut=    80.00 Ry     beta= 0.70
     Davidson diagonalization with overlap
     ethr =  4.16E-08,  avg # of iterations =  4.0

     negative rho (up, down):  2.411E-03 0.000E+00

     total cpu time spent up to now is       93.1 secs

     total energy              =   -2246.24886095 Ry
     estimated scf accuracy    <       0.00003116 Ry

     iteration # 14     ecut=    80.00 Ry     beta= 0.70
     Davidson diagonalization with overlap
     ethr =  9.99E-09,  avg # of iterations =  6.0

     negative rho (up, down):  1.240E-03 0.000E+00

     total cpu time spent up to now is      101.6 secs

     total energy              =   -2246.24887441 Ry
     estimated scf accuracy    <       0.00001072 Ry

     iteration # 15     ecut=    80.00 Ry     beta= 0.70
     Davidson diagonalization with overlap
     ethr =  3.44E-09,  avg # of iterations =  2.0

     negative rho (up, down):  5.927E-04 0.000E+00

     total cpu time spent up to now is      109.0 secs

     total energy              =   -2246.24888150 Ry
     estimated scf accuracy    <       0.00000460 Ry

     iteration # 16     ecut=    80.00 Ry     beta= 0.70
     Davidson diagonalization with overlap
     ethr =  1.47E-09,  avg # of iterations =  4.0

     negative rho (up, down):  3.520E-04 0.000E+00

     total cpu time spent up to now is      118.3 secs

     total energy              =   -2246.24888209 Ry
     estimated scf accuracy    <       0.00000135 Ry

     iteration # 17     ecut=    80.00 Ry     beta= 0.70
     Davidson diagonalization with overlap
     ethr =  4.34E-10,  avg # of iterations =  5.0

     negative rho (up, down):  1.980E-04 0.000E+00

     total cpu time spent up to now is      122.4 secs

     End of self-consistent calculation

          k = 0.0000 0.0000 0.0000 (105382 PWs)   bands (ev):

   -63.0325 -63.0003 -62.9907 -62.9847 -62.9677 -62.9498 -62.9464 -62.9412
   -62.9327 -62.9173 -62.8892 -62.8490 -37.3706 -37.3094 -37.2942 -37.2778
   -37.2640 -37.2381 -37.2359 -37.2103 -37.1938 -37.1926 -37.1832 -37.1713
   -37.1657 -37.1649 -37.1465 -37.1386 -37.1320 -37.1272 -37.1209 -37.1165
   -37.1114 -37.0932 -37.0855 -37.0759 -37.0556 -37.0539 -37.0392 -37.0331
   -37.0298 -36.9844 -36.9780 -36.9679 -36.9476 -36.9323 -36.9085 -36.8568
   -19.8472 -16.0527 -15.3583 -15.2075 -15.0987 -15.0145 -14.8852 -14.7615
   -14.5969 -14.5624 -14.5239 -14.4709 -14.4469 -14.4018 -14.3759 -14.3297
   -14.2505 -14.2099 -14.1726 -14.1292 -14.0439 -13.9803 -13.9433 -13.8828
    -7.9196  -7.7159  -7.5984  -7.5276  -7.4075  -7.3407  -7.3202  -7.2653
    -7.2282  -6.9860  -6.9324  -6.8967  -6.8292  -6.7783  -6.7334  -6.6339
    -6.5477  -6.5358  -6.3865  -6.3737  -6.1401  -6.1040  -6.0288  -5.9612
    -5.9235  -5.8900  -5.8635  -5.8035  -5.7925  -5.7505  -5.6982  -5.6521
    -5.6361  -5.5866  -5.5199  -5.3186  -5.2789  -5.2140  -5.1560  -5.1305
    -5.1174  -5.0428  -4.9680  -4.8470  -4.7964  -4.6875  -4.4704  -4.4336
    -4.3797  -4.2908  -4.2282  -4.2109  -4.0936  -4.0334  -3.9528  -3.8896
    -3.8581  -3.8293  -3.7269  -3.6884  -3.6616  -3.6355  -3.6041  -3.5787
    -3.5110  -3.4935  -3.4091  -3.2985  -3.0870  -3.0577  -3.0143  -2.9652
    -2.9399  -2.8768  -2.8223  -2.7842  -2.7609  -2.7220  -2.5828  -2.3797
    -2.1727  -2.1345  -2.0771  -1.5356  -1.2641  -0.9487  -0.6363  -0.2995
    -0.2655  -0.2087  -0.1266  -0.0935   0.0569   0.0923   0.1263   0.1455
     0.1693   0.2061   0.2821   0.3615   0.4016   0.4106   0.4518   0.4804
     0.5702   0.6062   0.6502   0.6855   0.7128   0.7350   0.8076   0.8385
     0.8644   0.9524   1.0996

     the Fermi energy is    -1.3999 ev

!    total energy              =   -2246.24888090 Ry
     estimated scf accuracy    <       0.00000026 Ry
     smearing contrib. (-TS)   =      -0.00417231 Ry
     internal energy E=F+TS    =   -2246.24470860 Ry

     The total energy is F=E-TS. E is the sum of the following terms:
     one-electron contribution =  -18429.15416546 Ry
     hartree contribution      =    9202.25876403 Ry
     xc contribution           =    -391.90022057 Ry
     ewald contribution        =    7382.42383158 Ry
     one-center paw contrib.   =      -9.87291818 Ry

     convergence has been achieved in  17 iterations

     negative rho (up, down):  1.980E-04 0.000E+00

     Forces acting on atoms (cartesian axes, Ry/au):

     atom    1 type  1   force =     0.01232189   -0.02456110    0.00435429
     atom    2 type  2   force =    -0.01440665    0.01606393    0.00244499
     atom    3 type  2   force =    -0.01352065    0.00863669   -0.00298315
     atom    4 type  1   force =     0.00182805    0.00722332   -0.00222087
     atom    5 type  2   force =    -0.00003853   -0.00646449   -0.00614292
     atom    6 type  2   force =     0.00083914    0.01050222   -0.00001948
     atom    7 type  1   force =     0.00619616   -0.01978412   -0.00687851
     atom    8 type  2   force =    -0.00571110   -0.00277782    0.01116745
     atom    9 type  2   force =     0.01218225    0.00678815    0.01255422
     atom   10 type  1   force =    -0.01025070    0.01704072   -0.03476528
     atom   11 type  2   force =     0.00229947   -0.00082670   -0.00437142
     atom   12 type  2   force =    -0.00120679   -0.00172440    0.00425323
     atom   13 type  1   force =     0.00619613    0.00460484   -0.00578123
     atom   14 type  2   force =     0.00833223   -0.00117001    0.01207542
     atom   15 type  2   force =    -0.01242145    0.00264279   -0.00766532
     atom   16 type  1   force =     0.00105928    0.01253840    0.00486360
     atom   17 type  2   force =     0.00789538   -0.00322532    0.00047047
     atom   18 type  2   force =    -0.00436554   -0.00726135    0.01265860
     atom   19 type  1   force =     0.00689472    0.00506777    0.00112583
     atom   20 type  2   force =     0.00365286   -0.00565841   -0.00072134
     atom   21 type  1   force =    -0.00457385    0.00527818   -0.00239163
     atom   22 type  2   force =    -0.00350468   -0.00238401   -0.00242742
     atom   23 type  2   force =    -0.00231423    0.00112430    0.00946702
     atom   24 type  1   force =    -0.00758932   -0.00564882   -0.02157083
     atom   25 type  2   force =     0.01538514    0.01849927    0.00847333
     atom   26 type  2   force =    -0.01089752    0.00432158   -0.00615610
     atom   27 type  1   force =    -0.00977695   -0.01610268    0.01123157
     atom   28 type  2   force =    -0.00158858   -0.00476124   -0.00143583
     atom   29 type  2   force =     0.00403432   -0.00116668   -0.00513043
     atom   30 type  1   force =    -0.01740201    0.00125901   -0.06173713
     atom   31 type  2   force =    -0.05637652    0.09732070    0.08433103
     atom   32 type  2   force =    -0.00932387    0.00640129    0.00967099
     atom   33 type  1   force =     0.01163419   -0.01481182   -0.00246660
     atom   34 type  2   force =     0.00391713   -0.02886060   -0.01475561
     atom   35 type  2   force =    -0.00871343    0.00769358    0.01716547
     atom   36 type  3   force =     0.08931399   -0.08581716   -0.01668638
     The non-local contrib.  to forces
     atom    1 type  1   force =    -0.00097752    0.03102740   -0.01027033
     atom    2 type  2   force =    -0.00733540    0.00235411   -0.27438701
     atom    3 type  2   force =    -0.01312745   -0.00144754    0.26997540
     atom    4 type  1   force =    -0.00071044    0.00787967    0.00571196
     atom    5 type  2   force =     0.00521894   -0.03235234   -0.25533008
     atom    6 type  2   force =    -0.00227900    0.01348777    0.26290122
     atom    7 type  1   force =    -0.01488257   -0.00114710   -0.02426058
     atom    8 type  2   force =    -0.02101173   -0.01615213   -0.26583721
     atom    9 type  2   force =     0.00615445   -0.00949026    0.27700618
     atom   10 type  1   force =     0.00492593   -0.01271305    0.00654812
     atom   11 type  2   force =     0.01247351    0.00281999   -0.26117237
     atom   12 type  2   force =    -0.01604863   -0.01822059    0.26072468
     atom   13 type  1   force =     0.00395195    0.01325699   -0.00693823
     atom   14 type  2   force =     0.01036811   -0.01218584   -0.26632603
     atom   15 type  2   force =    -0.01426433   -0.00479300    0.25920933
     atom   16 type  1   force =     0.00446743    0.02522737   -0.02988687
     atom   17 type  2   force =     0.00401127   -0.03000028   -0.25045535
     atom   18 type  2   force =    -0.00534408   -0.00598165    0.27539182
     atom   19 type  1   force =     0.02624476   -0.01601977   -0.01510651
     atom   20 type  2   force =     0.00119252   -0.02294117    0.26662149
     atom   21 type  1   force =     0.00460006    0.03036103    0.00962948
     atom   22 type  2   force =    -0.00001427    0.00443287   -0.26213258
     atom   23 type  2   force =     0.00408441   -0.01576890    0.26341848
     atom   24 type  1   force =    -0.00365179    0.01665957   -0.01269416
     atom   25 type  2   force =     0.01054985    0.00608837   -0.26325692
     atom   26 type  2   force =    -0.00268130   -0.01083622    0.26363617
     atom   27 type  1   force =     0.00431110    0.02170136   -0.00228160
     atom   28 type  2   force =    -0.00312222   -0.02261348   -0.27679751
     atom   29 type  2   force =     0.01514289    0.00314393    0.26698697
     atom   30 type  1   force =     0.00454078    0.01759929    0.02834100
     atom   31 type  2   force =    -0.21803772    0.21852050    0.20202642
     atom   32 type  2   force =    -0.00161535   -0.01119381    0.27695757
     atom   33 type  1   force =    -0.01356554    0.01194025    0.00743069
     atom   34 type  2   force =     0.03524903   -0.09901922   -0.21822226
     atom   35 type  2   force =    -0.00128298   -0.01136776    0.27034353
     atom   36 type  3   force =     0.65360507   -0.59947668   -0.83454579
     The ionic contribution  to forces
     atom    1 type  1   force =     0.25083353    0.23657922    4.78104452
     atom    2 type  2   force =    -0.89386604    0.72782105   39.04013635
     atom    3 type  2   force =    -0.24059930    0.11916035  -36.61735318
     atom    4 type  1   force =    -0.64449152   -0.44819852   -1.01639541
     atom    5 type  2   force =    -1.11145959    1.16306165   38.50261518
     atom    6 type  2   force =     0.30427608   -0.61209838  -38.53761606
     atom    7 type  1   force =    -3.16834248   -2.80131861    0.85477133
     atom    8 type  2   force =    -2.74782489   -0.72733865   36.27436763
     atom    9 type  2   force =     0.14276471   -0.14975015  -38.83838530
     atom   10 type  1   force =    -1.96914243    0.84489945    3.86899101
     atom   11 type  2   force =    -0.93028549   -1.21701124   38.77563062
     atom   12 type  2   force =     0.35848070    0.82120434  -38.49089332
     atom   13 type  1   force =     0.76009012    1.01745337    1.81245575
     atom   14 type  2   force =     0.16421342    0.18568934   38.30772418
     atom   15 type  2   force =     0.19081358    0.00855454  -37.28666661
     atom   16 type  1   force =     0.28607127    3.33526833   -0.80276869
     atom   17 type  2   force =     1.17112095    0.92436366   37.58294523
     atom   18 type  2   force =    -0.07499562   -0.79191009  -39.13660436
     atom   19 type  1   force =     4.35906470   -2.49711064   -2.27202874
     atom   20 type  2   force =     0.31657221   -0.27249238  -39.14797162
     atom   21 type  1   force =     0.37345815    0.69482350   -0.12831084
     atom   22 type  2   force =     1.75152992   -0.71859692   37.62119796
     atom   23 type  2   force =     0.08367160    0.84541002  -39.06215403
     atom   24 type  1   force =    -0.69502126    1.18425461    4.68688853
     atom   25 type  2   force =     0.78705673    0.76814087   38.96426658
     atom   26 type  2   force =    -0.24981931    0.18512585  -37.90793168
     atom   27 type  1   force =     0.46725624   -1.17483275   -4.55441457
     atom   28 type  2   force =    -0.16751587    0.05182742   37.74456565
     atom   29 type  2   force =    -0.31513520   -0.62560157  -37.90584275
     atom   30 type  1   force =    -1.70389899   -1.02380005   -5.71478746
     atom   31 type  2   force =     4.06917441   -3.34655689   32.95199426
     atom   32 type  2   force =    -0.36756887   -0.16292947  -39.68132054
     atom   33 type  1   force =     1.30138173    0.91876808   -0.40821393
     atom   34 type  2   force =    -1.06692845    1.73920641   37.36510850
     atom   35 type  2   force =    -0.39865245    0.73245096  -38.77661431
     atom   36 type  3   force =    -0.39228232    0.06548328   47.15157014
     The local contribution  to forces
     atom    1 type  1   force =    -0.23749476   -0.29220156   -4.76691923
     atom    2 type  2   force =     0.88669027   -0.71395787  -38.78447013
     atom    3 type  2   force =     0.23962109   -0.10902921   36.36500297
     atom    4 type  1   force =     0.64707585    0.44748899    1.00792979
     atom    5 type  2   force =     1.10677899   -1.13900216  -38.27411958
     atom    6 type  2   force =    -0.30144348    0.61029661   38.29529428
     atom    7 type  1   force =     3.18940576    2.78265103   -0.83789736
     atom    8 type  2   force =     2.76172315    0.73951474  -36.01886575
     atom    9 type  2   force =    -0.13668804    0.16546147   38.59465814
     atom   10 type  1   force =     1.95397014   -0.81513210   -3.91078337
     atom   11 type  2   force =     0.92070365    1.21376140  -38.53974483
     atom   12 type  2   force =    -0.34497096   -0.80617490   38.25484810
     atom   13 type  1   force =    -0.75786343   -1.02619913   -1.81180831
     atom   14 type  2   force =    -0.16573346   -0.17480839  -38.05037699
     atom   15 type  2   force =    -0.18976539   -0.00142389   37.04001972
     atom   16 type  1   force =    -0.28942586   -3.34783495    0.83701929
     atom   17 type  2   force =    -1.16724155   -0.89909477  -37.35247511
     atom   18 type  2   force =     0.07581622    0.79098706   38.89472228
     atom   19 type  1   force =    -4.37843204    2.51798681    2.28777759
     atom   20 type  2   force =    -0.31422785    0.28887022   38.90158274
     atom   21 type  1   force =    -0.38259305   -0.71977618    0.11578684
     atom   22 type  2   force =    -1.75469938    0.71236250  -37.38259616
     atom   23 type  2   force =    -0.08969035   -0.82983196   38.82855167
     atom   24 type  1   force =     0.69107579   -1.20652773   -4.69628896
     atom   25 type  2   force =    -0.78206145   -0.75517451  -38.71363589
     atom   26 type  2   force =     0.24177432   -0.17050030   37.65877163
     atom   27 type  1   force =    -0.48140155    1.13712914    4.56747413
     atom   28 type  2   force =     0.16891792   -0.03567743  -37.49052787
     atom   29 type  2   force =     0.30498110    0.62195807   37.65416978
     atom   30 type  1   force =     1.68199119    1.00744086    5.62433963
     atom   31 type  2   force =    -3.91992013    3.23784942  -33.06598980
     atom   32 type  2   force =     0.36005112    0.17983288   39.43502714
     atom   33 type  1   force =    -1.27624943   -0.94541749    0.39778986
     atom   34 type  2   force =     1.03655139   -1.67243130  -37.18078242
     atom   35 type  2   force =     0.39134702   -0.71429141   38.54421562
     atom   36 type  3   force =    -0.16449692    0.44126354  -46.34276945
     The core correction contribution to forces
     atom    1 type  1   force =     0.00000000    0.00000000    0.00000000
     atom    2 type  2   force =     0.00010735   -0.00015707    0.02095491
     atom    3 type  2   force =     0.00058273   -0.00004736   -0.02087133
     atom    4 type  1   force =     0.00000000    0.00000000    0.00000000
     atom    5 type  2   force =    -0.00054923    0.00181742    0.02052192
     atom    6 type  2   force =     0.00033052   -0.00121002   -0.02087715
     atom    7 type  1   force =     0.00000000    0.00000000    0.00000000
     atom    8 type  2   force =     0.00143351    0.00124033    0.02134480
     atom    9 type  2   force =    -0.00002482    0.00056195   -0.02100392
     atom   10 type  1   force =     0.00000000    0.00000000    0.00000000
     atom   11 type  2   force =    -0.00055861   -0.00039837    0.02077602
     atom   12 type  2   force =     0.00135689    0.00149468   -0.02073008
     atom   13 type  1   force =     0.00000000    0.00000000    0.00000000
     atom   14 type  2   force =    -0.00051928    0.00013656    0.02084336
     atom   15 type  2   force =     0.00078739    0.00031041   -0.02049910
     atom   16 type  1   force =     0.00000000    0.00000000    0.00000000
     atom   17 type  2   force =    -0.00003479    0.00149639    0.02030805
     atom   18 type  2   force =     0.00011751   -0.00039280   -0.02114385
     atom   19 type  1   force =     0.00000000    0.00000000    0.00000000
     atom   20 type  2   force =     0.00010880    0.00092226   -0.02123864
     atom   21 type  1   force =     0.00000000    0.00000000    0.00000000
     atom   22 type  2   force =    -0.00032115   -0.00058622    0.02097297
     atom   23 type  2   force =    -0.00039310    0.00132950   -0.02066579
     atom   24 type  1   force =     0.00000000    0.00000000    0.00000000
     atom   25 type  2   force =    -0.00015923   -0.00053279    0.02089763
     atom   26 type  2   force =    -0.00017142    0.00054413   -0.02089905
     atom   27 type  1   force =     0.00000000    0.00000000    0.00000000
     atom   28 type  2   force =     0.00013976    0.00169628    0.02113227
     atom   29 type  2   force =    -0.00096594   -0.00068936   -0.02071162
     atom   30 type  1   force =     0.00000000    0.00000000    0.00000000
     atom   31 type  2   force =     0.01234400   -0.01242964   -0.00383256
     atom   32 type  2   force =    -0.00020062    0.00068984   -0.02124687
     atom   33 type  1   force =     0.00000000    0.00000000    0.00000000
     atom   34 type  2   force =    -0.00096066    0.00329188    0.01901897
     atom   35 type  2   force =    -0.00014148    0.00091787   -0.02107700
     atom   36 type  3   force =    -0.00752473    0.00692176    0.00869863
     The Hubbard contrib.    to forces
     atom    1 type  1   force =     0.00000000    0.00000000    0.00000000
     atom    2 type  2   force =     0.00000000    0.00000000    0.00000000
     atom    3 type  2   force =     0.00000000    0.00000000    0.00000000
     atom    4 type  1   force =     0.00000000    0.00000000    0.00000000
     atom    5 type  2   force =     0.00000000    0.00000000    0.00000000
     atom    6 type  2   force =     0.00000000    0.00000000    0.00000000
     atom    7 type  1   force =     0.00000000    0.00000000    0.00000000
     atom    8 type  2   force =     0.00000000    0.00000000    0.00000000
     atom    9 type  2   force =     0.00000000    0.00000000    0.00000000
     atom   10 type  1   force =     0.00000000    0.00000000    0.00000000
     atom   11 type  2   force =     0.00000000    0.00000000    0.00000000
     atom   12 type  2   force =     0.00000000    0.00000000    0.00000000
     atom   13 type  1   force =     0.00000000    0.00000000    0.00000000
     atom   14 type  2   force =     0.00000000    0.00000000    0.00000000
     atom   15 type  2   force =     0.00000000    0.00000000    0.00000000
     atom   16 type  1   force =     0.00000000    0.00000000    0.00000000
     atom   17 type  2   force =     0.00000000    0.00000000    0.00000000
     atom   18 type  2   force =     0.00000000    0.00000000    0.00000000
     atom   19 type  1   force =     0.00000000    0.00000000    0.00000000
     atom   20 type  2   force =     0.00000000    0.00000000    0.00000000
     atom   21 type  1   force =     0.00000000    0.00000000    0.00000000
     atom   22 type  2   force =     0.00000000    0.00000000    0.00000000
     atom   23 type  2   force =     0.00000000    0.00000000    0.00000000
     atom   24 type  1   force =     0.00000000    0.00000000    0.00000000
     atom   25 type  2   force =     0.00000000    0.00000000    0.00000000
     atom   26 type  2   force =     0.00000000    0.00000000    0.00000000
     atom   27 type  1   force =     0.00000000    0.00000000    0.00000000
     atom   28 type  2   force =     0.00000000    0.00000000    0.00000000
     atom   29 type  2   force =     0.00000000    0.00000000    0.00000000
     atom   30 type  1   force =     0.00000000    0.00000000    0.00000000
     atom   31 type  2   force =     0.00000000    0.00000000    0.00000000
     atom   32 type  2   force =     0.00000000    0.00000000    0.00000000
     atom   33 type  1   force =     0.00000000    0.00000000    0.00000000
     atom   34 type  2   force =     0.00000000    0.00000000    0.00000000
     atom   35 type  2   force =     0.00000000    0.00000000    0.00000000
     atom   36 type  3   force =     0.00000000    0.00000000    0.00000000
     The SCF correction term to forces
     atom    1 type  1   force =    -0.00004009    0.00003445    0.00047888
     atom    2 type  2   force =    -0.00000357    0.00000433    0.00019041
     atom    3 type  2   force =     0.00000156    0.00000105    0.00024254
     atom    4 type  1   force =    -0.00004657    0.00005378    0.00051234
     atom    5 type  2   force =    -0.00002838    0.00001154    0.00014920
     atom    6 type  2   force =    -0.00004573    0.00002685    0.00025778
     atom    7 type  1   force =     0.00001471    0.00003115    0.00048766
     atom    8 type  2   force =    -0.00003188   -0.00004151    0.00013751
     atom    9 type  2   force =    -0.00002480    0.00000574    0.00025867
     atom   10 type  1   force =    -0.00000508   -0.00001298    0.00045851
     atom   11 type  2   force =    -0.00003432    0.00000211    0.00011868
     atom   12 type  2   force =    -0.00002553   -0.00002732    0.00028340
     atom   13 type  1   force =     0.00001675    0.00009421    0.00048910
     atom   14 type  2   force =     0.00000271   -0.00000108    0.00019044
     atom   15 type  2   force =     0.00000656   -0.00000468    0.00025088
     atom   16 type  1   force =    -0.00005430   -0.00012174    0.00047941
     atom   17 type  2   force =     0.00003876    0.00001027    0.00012719
     atom   18 type  2   force =     0.00003971    0.00003673    0.00027226
     atom   19 type  1   force =     0.00001656    0.00021197    0.00046303
     atom   20 type  2   force =     0.00000644   -0.00001673    0.00026422
     atom   21 type  1   force =    -0.00003974   -0.00012956    0.00048244
     atom   22 type  2   force =    -0.00000054    0.00000435    0.00010993
     atom   23 type  2   force =     0.00001247   -0.00001376    0.00029623
     atom   24 type  1   force =     0.00000720   -0.00003468    0.00050330
     atom   25 type  2   force =    -0.00000150   -0.00002208    0.00018148
     atom   26 type  2   force =    -0.00000054   -0.00001129    0.00024637
     atom   27 type  1   force =     0.00005653   -0.00009984    0.00043315
     atom   28 type  2   force =    -0.00000891    0.00000656    0.00017118
     atom   29 type  2   force =     0.00001074    0.00002287    0.00024674
     atom   30 type  1   force =    -0.00003572    0.00001951    0.00034923
     atom   31 type  2   force =     0.00006219   -0.00006209    0.00011225
     atom   32 type  2   force =     0.00000911    0.00000245    0.00023323
     atom   33 type  1   force =     0.00006669   -0.00010206    0.00050632
     atom   34 type  2   force =     0.00000509    0.00009223    0.00010114
     atom   35 type  2   force =     0.00001573   -0.00001546    0.00027718
     atom   36 type  3   force =     0.00001216   -0.00000846    0.00033964

     Total force =     0.221876     Total SCF correction =     0.002004

     BFGS Geometry Optimization
     Energy error            =      0.0E+00 Ry
     Gradient error          =      9.7E-02 Ry/Bohr

     number of scf cycles    =   1
     number of bfgs steps    =   0

     energy             new  =   -2246.2488809008 Ry

     new trust radius        =       0.1405750772 bohr
     new conv_thr            =       0.0000010000 Ry


ATOMIC_POSITIONS (angstrom)
Mo            6.5810688727        1.7748090560        2.8259472219
S             8.1690856693        0.8182046924        4.4358321863
S             8.1860782686        0.8158120841        1.2763048133
Mo            8.0961299298        4.4988793627        2.7166431617
S             6.4998888687        3.7189906259        4.3434099571
S             6.5537938511        3.5172950896        1.1212699197
Mo            6.4932605649        7.2079679783        2.6682445355
S             8.0787055443        6.3424010321        4.2483711216
S             8.0873642142        6.3082944522        1.0905064053
Mo            8.1551946126        9.9111979758        2.8250647692
S             6.4963844242        8.9424893416        4.3807922773
S             6.6173085944        9.0477986999        1.1421580143
Mo            3.4249385151        1.7493926281        2.7734118673
S             4.9795747159        0.8163220673        4.3569231276
S             5.0512606066        0.8476606123        1.2226021477
Mo            4.9803172304        4.5198130382        2.6354582556
S             3.4320197166        3.6698929192        4.2799585395
S             3.4356104375        3.5443861565        1.0650503257
Mo            3.4575102705        7.2190062862        2.6312726242
S             4.9851672006        6.3239379837        1.0368720127
Mo            5.0098435453        9.9043931443        2.7421353648
S             3.4691035219        8.9424897076        4.3243067759
S             3.4072045291        9.0655849353        1.1010780305
Mo            0.2920743929        1.7445203035        2.8380299148
S             1.8586036787        0.8024833993        4.4026933315
S             1.8550333162        0.8567127975        1.2061431871
Mo            1.8555175703        4.4871455877        2.6661408691
S             0.2713732070        3.6518792859        4.3368242920
S             0.2333660791        3.5266318467        1.1693029751
Mo            0.2619434045        7.2173123329        2.6690265435
S             1.8724050794        6.3642987319        4.2670701780
S             1.8573042324        6.3137312267        1.0496769497
Mo            1.8505032099        9.9323010739        2.7716409813
S             0.2979857564        9.0747254575        4.4060611311
S             0.2721604528        9.0475969841        1.1594843558
O             1.0980140390        7.2405208472        5.4690533730



     Writing config-only to output data dir ./MoS2-V-O.save/
     NEW-OLD atomic charge density approx. for the potential

     negative rho (up, down):  2.202E-04 0.000E+00

     total cpu time spent up to now is      130.6 secs

     Self-consistent Calculation

     iteration #  1     ecut=    80.00 Ry     beta= 0.70
     Davidson diagonalization with overlap
     ethr =  1.00E-06,  avg # of iterations = 11.0

     negative rho (up, down):  9.249E-05 0.000E+00

     total cpu time spent up to now is      145.9 secs

     total energy              =   -2246.29156068 Ry
     estimated scf accuracy    <       0.01522266 Ry

     iteration #  2     ecut=    80.00 Ry     beta= 0.70
     Davidson diagonalization with overlap
     ethr =  4.88E-06,  avg # of iterations =  6.0

     negative rho (up, down):  7.728E-05 0.000E+00

     total cpu time spent up to now is      158.2 secs

     total energy              =   -2246.29367941 Ry
     estimated scf accuracy    <       0.00801160 Ry

     iteration #  3     ecut=    80.00 Ry     beta= 0.70
     Davidson diagonalization with overlap
     ethr =  2.57E-06,  avg # of iterations =  4.0

     negative rho (up, down):  5.018E-05 0.000E+00

     total cpu time spent up to now is      173.2 secs

     total energy              =   -2246.29435552 Ry
     estimated scf accuracy    <       0.00056113 Ry

     iteration #  4     ecut=    80.00 Ry     beta= 0.70
     Davidson diagonalization with overlap
     ethr =  1.80E-07,  avg # of iterations =  6.0

     negative rho (up, down):  4.532E-05 0.000E+00

     total cpu time spent up to now is      188.0 secs

     total energy              =   -2246.29443602 Ry
     estimated scf accuracy    <       0.00007212 Ry

     iteration #  5     ecut=    80.00 Ry     beta= 0.70
     Davidson diagonalization with overlap
     ethr =  2.31E-08,  avg # of iterations =  4.0

     negative rho (up, down):  4.156E-05 0.000E+00

     total cpu time spent up to now is      201.1 secs

     total energy              =   -2246.29444389 Ry
     estimated scf accuracy    <       0.00001762 Ry

     iteration #  6     ecut=    80.00 Ry     beta= 0.70
     Davidson diagonalization with overlap
     ethr =  5.65E-09,  avg # of iterations =  5.0

     negative rho (up, down):  4.098E-05 0.000E+00

     total cpu time spent up to now is      213.8 secs

     total energy              =   -2246.29444673 Ry
     estimated scf accuracy    <       0.00001076 Ry

     iteration #  7     ecut=    80.00 Ry     beta= 0.70
     Davidson diagonalization with overlap
     ethr =  3.45E-09,  avg # of iterations =  2.0

     negative rho (up, down):  4.518E-05 0.000E+00

     total cpu time spent up to now is      226.5 secs

     total energy              =   -2246.29444777 Ry
     estimated scf accuracy    <       0.00000234 Ry

     iteration #  8     ecut=    80.00 Ry     beta= 0.70
     Davidson diagonalization with overlap
     ethr =  7.51E-10,  avg # of iterations =  6.0

     negative rho (up, down):  2.008E-04 0.000E+00

     total cpu time spent up to now is      230.9 secs

     End of self-consistent calculation

          k = 0.0000 0.0000 0.0000 (105382 PWs)   bands (ev):

   -63.0310 -62.9913 -62.9825 -62.9794 -62.9637 -62.9529 -62.9413 -62.9327
   -62.9264 -62.9181 -62.8677 -62.7806 -37.3625 -37.3072 -37.2824 -37.2658
   -37.2486 -37.2350 -37.2284 -37.2035 -37.1887 -37.1831 -37.1744 -37.1638
   -37.1568 -37.1540 -37.1425 -37.1292 -37.1199 -37.1140 -37.1100 -37.1075
   -37.1000 -37.0927 -37.0814 -37.0555 -37.0492 -37.0405 -37.0303 -37.0261
   -37.0254 -36.9607 -36.9562 -36.9347 -36.9209 -36.9062 -36.8810 -36.8437
   -20.7801 -16.0430 -15.3227 -15.1900 -15.0648 -14.9958 -14.8763 -14.6772
   -14.5879 -14.5439 -14.5220 -14.4587 -14.4443 -14.3982 -14.3600 -14.3030
   -14.2416 -14.2127 -14.1625 -14.0598 -13.9973 -13.9762 -13.9514 -13.8140
    -7.9880  -7.7607  -7.5860  -7.5465  -7.4210  -7.3383  -7.3138  -7.2845
    -7.2531  -6.9940  -6.9471  -6.9065  -6.8158  -6.8103  -6.7302  -6.6347
    -6.5335  -6.5261  -6.3840  -6.3648  -6.1653  -6.0870  -6.0256  -5.9645
    -5.9100  -5.8813  -5.8438  -5.7991  -5.7845  -5.7457  -5.6955  -5.6465
    -5.6289  -5.5668  -5.4861  -5.3237  -5.2639  -5.1972  -5.1568  -5.1280
    -5.1000  -5.0396  -4.9478  -4.8744  -4.8029  -4.6791  -4.4591  -4.4354
    -4.3737  -4.3056  -4.2536  -4.2191  -4.1294  -4.0509  -3.9631  -3.8768
    -3.8231  -3.8113  -3.7151  -3.6960  -3.6588  -3.6270  -3.6032  -3.5755
    -3.5014  -3.4861  -3.4084  -3.2907  -3.0997  -3.0457  -2.9723  -2.9502
    -2.9330  -2.8747  -2.8113  -2.7811  -2.7506  -2.7175  -2.6302  -2.3684
    -2.2023  -2.1168  -2.0724  -1.6516  -1.2072  -0.9308  -0.5754  -0.2801
    -0.2583  -0.1680  -0.1004  -0.0662   0.0642   0.1150   0.1382   0.1741
     0.1855   0.2227   0.2937   0.3848   0.4217   0.4299   0.4573   0.5019
     0.6084   0.6167   0.6595   0.6983   0.7143   0.7405   0.8269   0.8579
     0.8932   0.9540   1.1415

     the Fermi energy is    -1.4294 ev

!    total energy              =   -2246.29444877 Ry
     estimated scf accuracy    <       0.00000062 Ry
     smearing contrib. (-TS)   =      -0.00078420 Ry
     internal energy E=F+TS    =   -2246.29366457 Ry

     The total energy is F=E-TS. E is the sum of the following terms:
     one-electron contribution =  -18429.16795177 Ry
     hartree contribution      =    9202.34249020 Ry
     xc contribution           =    -391.95912800 Ry
     ewald contribution        =    7382.35919683 Ry
     one-center paw contrib.   =      -9.86827184 Ry

     convergence has been achieved in   8 iterations

     negative rho (up, down):  2.008E-04 0.000E+00

     Forces acting on atoms (cartesian axes, Ry/au):

     atom    1 type  1   force =     0.00324261   -0.01222169   -0.00015234
     atom    2 type  2   force =    -0.00880240    0.00973887   -0.00104270
     atom    3 type  2   force =    -0.01168872    0.00884027   -0.00986018
     atom    4 type  1   force =     0.00333230    0.00209286    0.00006452
     atom    5 type  2   force =     0.00083617   -0.00652029   -0.00606971
     atom    6 type  2   force =     0.00022586    0.00729111    0.00215431
     atom    7 type  1   force =     0.00290899   -0.01095724   -0.00067265
     atom    8 type  2   force =    -0.00175587   -0.00121032    0.00600961
     atom    9 type  2   force =     0.00588897    0.00285605    0.00193540
     atom   10 type  1   force =    -0.00334099    0.01281359   -0.01336394
     atom   11 type  2   force =     0.00298396   -0.00131475   -0.00868851
     atom   12 type  2   force =    -0.00377744   -0.00245552    0.00043434
     atom   13 type  1   force =     0.00547126    0.00202240   -0.00189265
     atom   14 type  2   force =     0.00625929   -0.00156781    0.00801023
     atom   15 type  2   force =    -0.00905060    0.00210177   -0.00647970
     atom   16 type  1   force =    -0.00054422    0.00830150    0.00449807
     atom   17 type  2   force =     0.00540962   -0.00086862    0.00031969
     atom   18 type  2   force =    -0.00269521   -0.00428199    0.01080729
     atom   19 type  1   force =     0.00440356    0.00251600    0.00769760
     atom   20 type  2   force =     0.00187900   -0.00491322   -0.00352030
     atom   21 type  1   force =    -0.00406609    0.00158607    0.00114113
     atom   22 type  2   force =     0.00002351   -0.00064752   -0.00134818
     atom   23 type  2   force =    -0.00055631   -0.00029085    0.00514386
     atom   24 type  1   force =    -0.00601475   -0.00269603   -0.00888989
     atom   25 type  2   force =     0.01066428    0.01302108    0.00084097
     atom   26 type  2   force =    -0.00661463    0.00080178   -0.00510765
     atom   27 type  1   force =    -0.00902532    0.00218477    0.02496371
     atom   28 type  2   force =    -0.00288251   -0.00580813   -0.00239039
     atom   29 type  2   force =     0.00391467   -0.00012082   -0.00550550
     atom   30 type  1   force =    -0.01091154    0.00144733   -0.03287779
     atom   31 type  2   force =    -0.05745521    0.08072719    0.04613674
     atom   32 type  2   force =    -0.00466160    0.00228415    0.00761766
     atom   33 type  1   force =     0.00550391   -0.00383996    0.00206219
     atom   34 type  2   force =    -0.00747417   -0.01747061   -0.02918877
     atom   35 type  2   force =    -0.00616447    0.01178649    0.00362147
     atom   36 type  3   force =     0.09453410   -0.09522789    0.00359205
     The non-local contrib.  to forces
     atom    1 type  1   force =     0.00129496    0.02754943   -0.01095242
     atom    2 type  2   force =    -0.00330682   -0.00137315   -0.27435665
     atom    3 type  2   force =    -0.01043471   -0.00188124    0.26337200
     atom    4 type  1   force =     0.00136329    0.01063875    0.00338464
     atom    5 type  2   force =     0.00526156   -0.03269971   -0.25620826
     atom    6 type  2   force =    -0.00317606    0.01032133    0.26512373
     atom    7 type  1   force =    -0.01207043   -0.00008881   -0.02614722
     atom    8 type  2   force =    -0.01885377   -0.01500390   -0.26829699
     atom    9 type  2   force =     0.00067719   -0.01353094    0.26925455
     atom   10 type  1   force =     0.00442870   -0.01048419    0.00554811
     atom   11 type  2   force =     0.01223287    0.00142741   -0.26410543
     atom   12 type  2   force =    -0.01757074   -0.01962193    0.25984233
     atom   13 type  1   force =     0.00493736    0.01484068   -0.00631470
     atom   14 type  2   force =     0.00865806   -0.01225306   -0.26824851
     atom   15 type  2   force =    -0.01151659   -0.00569369    0.25939835
     atom   16 type  1   force =     0.00501783    0.02531573   -0.03296681
     atom   17 type  2   force =     0.00272137   -0.02651954   -0.25001585
     atom   18 type  2   force =    -0.00402197   -0.00413047    0.27537891
     atom   19 type  1   force =     0.02563519   -0.01277059   -0.01331323
     atom   20 type  2   force =    -0.00011855   -0.02177534    0.26464712
     atom   21 type  1   force =     0.00377461    0.03077037    0.00798057
     atom   22 type  2   force =     0.00228415    0.00321061   -0.26109571
     atom   23 type  2   force =     0.00635257   -0.01754406    0.26102268
     atom   24 type  1   force =    -0.00570108    0.01483960   -0.01115906
     atom   25 type  2   force =     0.00785667    0.00133194   -0.26753044
     atom   26 type  2   force =     0.00050369   -0.01318516    0.26459961
     atom   27 type  1   force =     0.00424685    0.01746815   -0.00546241
     atom   28 type  2   force =    -0.00322680   -0.02060727   -0.27782465
     atom   29 type  2   force =     0.01533639    0.00164159    0.26781708
     atom   30 type  1   force =     0.00579064    0.01486774    0.03766598
     atom   31 type  2   force =    -0.22429373    0.21490983    0.23278815
     atom   32 type  2   force =     0.00084996   -0.01423061    0.27660920
     atom   33 type  1   force =    -0.01293552    0.00808470    0.00564159
     atom   34 type  2   force =     0.02132160   -0.05744079   -0.24202821
     atom   35 type  2   force =    -0.00030306   -0.00846599    0.26262461
     atom   36 type  3   force =     0.85715274   -0.83868863   -1.10229223
     The ionic contribution  to forces
     atom    1 type  1   force =    -0.01352350    0.60074069    4.88876001
     atom    2 type  2   force =    -0.70625443    0.58674426   39.15084125
     atom    3 type  2   force =    -0.22014277    0.18653839  -36.75017892
     atom    4 type  1   force =    -0.64229596   -0.65030678   -0.91949718
     atom    5 type  2   force =    -1.11363928    1.12935157   38.42930556
     atom    6 type  2   force =     0.23893355   -0.67391555  -38.44374637
     atom    7 type  1   force =    -3.29284470   -2.51518414    0.90401576
     atom    8 type  2   force =    -2.62992611   -0.61087069   36.41991314
     atom    9 type  2   force =     0.02108109   -0.25721508  -38.90760905
     atom   10 type  1   force =    -1.75486593    0.68685244    3.50107251
     atom   11 type  2   force =    -0.83162860   -1.23485961   38.71906983
     atom   12 type  2   force =     0.24253301    0.75460024  -38.45061911
     atom   13 type  1   force =     0.71348455    0.97002812    1.77568641
     atom   14 type  2   force =     0.09366192    0.20270355   38.39327024
     atom   15 type  2   force =     0.18994817    0.06517314  -37.32756751
     atom   16 type  1   force =     0.12572927    3.17544376   -0.60147420
     atom   17 type  2   force =     1.13996028    0.98346329   37.55971359
     atom   18 type  2   force =    -0.05113541   -0.69449640  -39.02585213
     atom   19 type  1   force =     4.18180900   -2.90869272   -2.13927017
     atom   20 type  2   force =     0.21698112   -0.27806176  -39.18037282
     atom   21 type  1   force =     0.40848142    0.62260537   -0.05044641
     atom   22 type  2   force =     1.80116669   -0.65069320   37.65525682
     atom   23 type  2   force =     0.11239949    0.82051587  -39.06254216
     atom   24 type  1   force =    -0.48762300    1.07307479    4.40415289
     atom   25 type  2   force =     0.67156762    0.70556900   38.93720363
     atom   26 type  2   force =    -0.18752810    0.14447362  -37.86259182
     atom   27 type  1   force =     0.68705161   -0.66989310   -3.90113643
     atom   28 type  2   force =    -0.16695050    0.00293466   37.74427279
     atom   29 type  2   force =    -0.30164740   -0.57857095  -37.93472877
     atom   30 type  1   force =    -1.48378168   -1.09166288   -6.85020223
     atom   31 type  2   force =     4.46583836   -4.01705140   32.34321039
     atom   32 type  2   force =    -0.16346779   -0.30910643  -39.54054494
     atom   33 type  1   force =     1.11799849    1.23111426   -0.15605679
     atom   34 type  2   force =    -1.20878803    1.72321700   37.30176334
     atom   35 type  2   force =    -0.30820268    0.87193077  -38.72526602
     atom   36 type  3   force =    -0.86437977    0.60350592   47.70219488
     The local contribution  to forces
     atom    1 type  1   force =     0.01517669   -0.64026972   -4.87857669
     atom    2 type  2   force =     0.70070750   -0.57552380  -38.89882814
     atom    3 type  2   force =     0.21839957   -0.17577406   36.49752801
     atom    4 type  1   force =     0.64416942    0.64155820    0.91573038
     atom    5 type  2   force =     1.10971746   -1.10498924  -38.20005060
     atom    6 type  2   force =    -0.23592349    0.67193672   38.20160727
     atom    7 type  1   force =     3.30762302    2.50433424   -0.87892785
     atom    8 type  2   force =     2.64572618    0.62343325  -36.16723322
     atom    9 type  2   force =    -0.01600554    0.27290460   38.66102264
     atom   10 type  1   force =     1.74710500   -0.66351007   -3.52032588
     atom   11 type  2   force =     0.82282286    1.23246612  -38.48478212
     atom   12 type  2   force =    -0.23016247   -0.73889371   38.21178192
     atom   13 type  1   force =    -0.71283550   -0.98288819   -1.77180435
     atom   14 type  2   force =    -0.09561011   -0.19211709  -38.13830425
     atom   15 type  2   force =    -0.18820494   -0.05768769   37.08213474
     atom   16 type  1   force =    -0.13128957   -3.19269572    0.63843081
     atom   17 type  2   force =    -1.13727548   -0.95920382  -37.33002801
     atom   18 type  2   force =     0.05246005    0.69469977   38.78235614
     atom   19 type  1   force =    -4.20306757    2.92395853    2.15987336
     atom   20 type  2   force =    -0.21517174    0.29403003   38.93333030
     atom   21 type  1   force =    -0.41645494   -0.65170278    0.04309473
     atom   22 type  2   force =    -1.80315091    0.64726963  -37.41677738
     atom   23 type  2   force =    -0.11880846   -0.80467729   38.82721479
     atom   24 type  1   force =     0.48743990   -1.09055647   -4.40236047
     atom   25 type  2   force =    -0.66861910   -0.69355138  -38.69016848
     atom   26 type  2   force =     0.18075990   -0.13103427   37.61371142
     atom   27 type  1   force =    -0.70022897    0.65464655    3.93107809
     atom   28 type  2   force =     0.16718816    0.01035014  -37.49034304
     atom   29 type  2   force =     0.29120839    0.57734510   37.68206116
     atom   30 type  1   force =     1.46727167    1.07820826    6.77960536
     atom   31 type  2   force =    -4.31230382    3.89601770  -32.52313480
     atom   32 type  2   force =     0.15818625    0.32491189   39.29274571
     atom   33 type  1   force =    -1.09943326   -1.24293517    0.15211869
     atom   34 type  2   force =     1.18054109   -1.68474401  -37.10913833
     atom   35 type  2   force =     0.30251804   -0.85259402   38.48694665
     atom   36 type  3   force =     0.11125325    0.13068907  -46.60844857
     The core correction contribution to forces
     atom    1 type  1   force =     0.00000000    0.00000000    0.00000000
     atom    2 type  2   force =     0.00004256   -0.00007419    0.02100769
     atom    3 type  2   force =     0.00045632    0.00003406   -0.02072500
     atom    4 type  1   force =     0.00000000    0.00000000    0.00000000
     atom    5 type  2   force =    -0.00053594    0.00178237    0.02050621
     atom    6 type  2   force =     0.00034410   -0.00111778   -0.02089098
     atom    7 type  1   force =     0.00000000    0.00000000    0.00000000
     atom    8 type  2   force =     0.00141973    0.00125538    0.02137119
     atom    9 type  2   force =     0.00013214    0.00066670   -0.02083735
     atom   10 type  1   force =     0.00000000    0.00000000    0.00000000
     atom   11 type  2   force =    -0.00047124   -0.00034556    0.02081189
     atom   12 type  2   force =     0.00134479    0.00148632   -0.02069834
     atom   13 type  1   force =     0.00000000    0.00000000    0.00000000
     atom   14 type  2   force =    -0.00048977    0.00015567    0.02091487
     atom   15 type  2   force =     0.00068659    0.00038247   -0.02052090
     atom   16 type  1   force =     0.00000000    0.00000000    0.00000000
     atom   17 type  2   force =     0.00004757    0.00132423    0.02029525
     atom   18 type  2   force =     0.00005340   -0.00041596   -0.02117137
     atom   19 type  1   force =     0.00000000    0.00000000    0.00000000
     atom   20 type  2   force =     0.00012594    0.00088921   -0.02118930
     atom   21 type  1   force =     0.00000000    0.00000000    0.00000000
     atom   22 type  2   force =    -0.00036022   -0.00048619    0.02093494
     atom   23 type  2   force =    -0.00047767    0.00141344   -0.02064391
     atom   24 type  1   force =     0.00000000    0.00000000    0.00000000
     atom   25 type  2   force =    -0.00009673   -0.00031458    0.02097353
     atom   26 type  2   force =    -0.00027773    0.00060155   -0.02089807
     atom   27 type  1   force =     0.00000000    0.00000000    0.00000000
     atom   28 type  2   force =     0.00009449    0.00151715    0.02118747
     atom   29 type  2   force =    -0.00099635   -0.00057198   -0.02077304
     atom   30 type  1   force =     0.00000000    0.00000000    0.00000000
     atom   31 type  2   force =     0.01308970   -0.01284659   -0.00681342
     atom   32 type  2   force =    -0.00017129    0.00071832   -0.02126195
     atom   33 type  1   force =     0.00000000    0.00000000    0.00000000
     atom   34 type  2   force =    -0.00041750    0.00123995    0.02008820
     atom   35 type  2   force =    -0.00012464    0.00091041   -0.02080701
     atom   36 type  3   force =    -0.00975659    0.00955656    0.01160980
     The Hubbard contrib.    to forces
     atom    1 type  1   force =     0.00000000    0.00000000    0.00000000
     atom    2 type  2   force =     0.00000000    0.00000000    0.00000000
     atom    3 type  2   force =     0.00000000    0.00000000    0.00000000
     atom    4 type  1   force =     0.00000000    0.00000000    0.00000000
     atom    5 type  2   force =     0.00000000    0.00000000    0.00000000
     atom    6 type  2   force =     0.00000000    0.00000000    0.00000000
     atom    7 type  1   force =     0.00000000    0.00000000    0.00000000
     atom    8 type  2   force =     0.00000000    0.00000000    0.00000000
     atom    9 type  2   force =     0.00000000    0.00000000    0.00000000
     atom   10 type  1   force =     0.00000000    0.00000000    0.00000000
     atom   11 type  2   force =     0.00000000    0.00000000    0.00000000
     atom   12 type  2   force =     0.00000000    0.00000000    0.00000000
     atom   13 type  1   force =     0.00000000    0.00000000    0.00000000
     atom   14 type  2   force =     0.00000000    0.00000000    0.00000000
     atom   15 type  2   force =     0.00000000    0.00000000    0.00000000
     atom   16 type  1   force =     0.00000000    0.00000000    0.00000000
     atom   17 type  2   force =     0.00000000    0.00000000    0.00000000
     atom   18 type  2   force =     0.00000000    0.00000000    0.00000000
     atom   19 type  1   force =     0.00000000    0.00000000    0.00000000
     atom   20 type  2   force =     0.00000000    0.00000000    0.00000000
     atom   21 type  1   force =     0.00000000    0.00000000    0.00000000
     atom   22 type  2   force =     0.00000000    0.00000000    0.00000000
     atom   23 type  2   force =     0.00000000    0.00000000    0.00000000
     atom   24 type  1   force =     0.00000000    0.00000000    0.00000000
     atom   25 type  2   force =     0.00000000    0.00000000    0.00000000
     atom   26 type  2   force =     0.00000000    0.00000000    0.00000000
     atom   27 type  1   force =     0.00000000    0.00000000    0.00000000
     atom   28 type  2   force =     0.00000000    0.00000000    0.00000000
     atom   29 type  2   force =     0.00000000    0.00000000    0.00000000
     atom   30 type  1   force =     0.00000000    0.00000000    0.00000000
     atom   31 type  2   force =     0.00000000    0.00000000    0.00000000
     atom   32 type  2   force =     0.00000000    0.00000000    0.00000000
     atom   33 type  1   force =     0.00000000    0.00000000    0.00000000
     atom   34 type  2   force =     0.00000000    0.00000000    0.00000000
     atom   35 type  2   force =     0.00000000    0.00000000    0.00000000
     atom   36 type  3   force =     0.00000000    0.00000000    0.00000000
     The SCF correction term to forces
     atom    1 type  1   force =     0.00029243   -0.00024060    0.00060136
     atom    2 type  2   force =     0.00000678   -0.00003275    0.00027776
     atom    3 type  2   force =     0.00003084   -0.00007538    0.00012834
     atom    4 type  1   force =     0.00009353    0.00020418    0.00043129
     atom    5 type  2   force =     0.00003036    0.00003622    0.00036200
     atom    6 type  2   force =     0.00004574    0.00006789    0.00004527
     atom    7 type  1   force =     0.00019908   -0.00001703    0.00037127
     atom    8 type  2   force =    -0.00012392   -0.00002286    0.00024009
     atom    9 type  2   force =     0.00000207    0.00003228    0.00008922
     atom   10 type  1   force =    -0.00001077   -0.00004309    0.00032594
     atom   11 type  2   force =     0.00002605   -0.00000161    0.00030193
     atom   12 type  2   force =     0.00007596   -0.00002493    0.00011214
     atom   13 type  1   force =    -0.00011717    0.00004330    0.00052459
     atom   14 type  2   force =     0.00003717   -0.00005537    0.00036249
     atom   15 type  2   force =     0.00003416   -0.00007095    0.00006023
     atom   16 type  1   force =    -0.00000377    0.00023923    0.00049287
     atom   17 type  2   force =    -0.00004613    0.00006872    0.00033934
     atom   18 type  2   force =    -0.00005330    0.00006258    0.00008034
     atom   19 type  1   force =     0.00002491    0.00002228    0.00039225
     atom   20 type  2   force =     0.00006022    0.00000615    0.00004901
     atom   21 type  1   force =     0.00013080   -0.00008540    0.00049685
     atom   22 type  2   force =     0.00008177    0.00005314    0.00031775
     atom   23 type  2   force =    -0.00002425    0.00000270    0.00007707
     atom   24 type  1   force =    -0.00013259   -0.00005245    0.00046136
     atom   25 type  2   force =    -0.00004620   -0.00001240    0.00034733
     atom   26 type  2   force =    -0.00007441   -0.00005246    0.00005582
     atom   27 type  1   force =    -0.00009683   -0.00003533    0.00046907
     atom   28 type  2   force =     0.00001013   -0.00000131    0.00030165
     atom   29 type  2   force =     0.00001162    0.00003692    0.00010268
     atom   30 type  1   force =    -0.00019419    0.00003571    0.00003772
     atom   31 type  2   force =     0.00021227   -0.00030084    0.00007103
     atom   32 type  2   force =    -0.00006075   -0.00000753    0.00005425
     atom   33 type  1   force =    -0.00012782   -0.00010226    0.00034332
     atom   34 type  2   force =    -0.00013335    0.00025873    0.00011085
     atom   35 type  2   force =    -0.00005414    0.00000682    0.00010786
     atom   36 type  3   force =     0.00026245   -0.00028931    0.00051279

     Total force =     0.190177     Total SCF correction =     0.002109
     Energy error            =      4.6E-02 Ry
     Gradient error          =      9.5E-02 Ry/Bohr

     number of scf cycles    =   2
     number of bfgs steps    =   1

     energy             old  =   -2246.2488809008 Ry
     energy             new  =   -2246.2944487709 Ry

     CASE: energy            _new < energy            _old


     WARNING: bfgs curvature condition failed, Theta= 0.998
     new trust radius        =       0.1546325849 bohr
     new conv_thr            =       0.0000000952 Ry


ATOMIC_POSITIONS (angstrom)
Mo            6.5848932984        1.7647275500        2.8267444580
S             8.1624748064        0.8255435471        4.4358712121
S             8.1784106243        0.8212965002        1.2715045342
Mo            8.0979145710        4.5012032721        2.7162309107
S             6.5002382197        3.7149268160        4.3396021926
S             6.5540564479        3.5224875622        1.1221857859
Mo            6.4957294923        7.1993722730        2.6665952284
S             8.0768249634        6.3413342322        4.2531482271
S             8.0922907748        6.3108580113        1.0938187620
Mo            8.1517383394        9.9200429300        2.8124748988
S             6.4981137037        8.9417643354        4.3762172935
S             6.6154569442        9.0464089052        1.1431857017
Mo            3.4285013265        1.7511679243        2.7714590079
S             4.9838969614        0.8154210380        4.3627341469
S             5.0449369072        0.8490812531        1.2183178704
Mo            4.9802946580        4.5258400894        2.6383417106
S             3.4358927130        3.6688833810        4.2801881894
S             3.4335952911        3.5411201281        1.0721709582
Mo            3.4607555966        7.2210839823        2.6347818485
S             4.9866927581        6.3207198949        1.0352262716
Mo            5.0072018902        9.9061155027        2.7421489272
S             3.4684195318        8.9417411658        4.3232505092
S             3.4065087472        9.0656834085        1.1051487958
Mo            0.2880036621        1.7422506815        2.8299629883
S             1.8662031914        0.8117057676        4.4047303178
S             1.8500513685        0.8579108888        1.2027435375
Mo            1.8497283455        4.4848895274        2.6790226014
S             0.2698280139        3.6484568050        4.3355194453
S             0.2358362507        3.5263492315        1.1659365851
Mo            0.2538389333        7.2181795481        2.6427645830
S             1.8367120246        6.4180352216        4.3034669086
S             1.8534676999        6.3159740147        1.0548442295
Mo            1.8551568495        9.9277285474        2.7720329194
S             0.2955705696        9.0615516483        4.3906777662
S             0.2678031997        9.0541524467        1.1644296909
O             1.1560594478        7.1828717124        5.4672825233



     Writing config-only to output data dir ./MoS2-V-O.save/
     NEW-OLD atomic charge density approx. for the potential

     negative rho (up, down):  2.048E-04 0.000E+00

     total cpu time spent up to now is      239.0 secs

     Self-consistent Calculation

     iteration #  1     ecut=    80.00 Ry     beta= 0.70
     Davidson diagonalization with overlap
     ethr =  1.00E-06,  avg # of iterations = 11.0

     negative rho (up, down):  6.498E-05 0.000E+00

     total cpu time spent up to now is      257.0 secs

     total energy              =   -2246.32545045 Ry
     estimated scf accuracy    <       0.01376289 Ry

     iteration #  2     ecut=    80.00 Ry     beta= 0.70
     Davidson diagonalization with overlap
     ethr =  4.41E-06,  avg # of iterations =  5.0

     negative rho (up, down):  4.948E-05 0.000E+00

     total cpu time spent up to now is      269.0 secs

     total energy              =   -2246.32796935 Ry
     estimated scf accuracy    <       0.00663202 Ry

     iteration #  3     ecut=    80.00 Ry     beta= 0.70
     Davidson diagonalization with overlap
     ethr =  2.13E-06,  avg # of iterations =  3.0

     negative rho (up, down):  2.869E-05 0.000E+00

     total cpu time spent up to now is      288.6 secs

     total energy              =   -2246.32829642 Ry
     estimated scf accuracy    <       0.00086814 Ry

     iteration #  4     ecut=    80.00 Ry     beta= 0.70
     Davidson diagonalization with overlap
     ethr =  2.78E-07,  avg # of iterations =  5.0

     negative rho (up, down):  2.459E-05 0.000E+00

     total cpu time spent up to now is      302.9 secs

     total energy              =   -2246.32839162 Ry
     estimated scf accuracy    <       0.00010430 Ry

     iteration #  5     ecut=    80.00 Ry     beta= 0.70
     Davidson diagonalization with overlap
     ethr =  3.34E-08,  avg # of iterations =  3.0

     negative rho (up, down):  2.067E-05 0.000E+00

     total cpu time spent up to now is      315.4 secs

     total energy              =   -2246.32839910 Ry
     estimated scf accuracy    <       0.00003575 Ry

     iteration #  6     ecut=    80.00 Ry     beta= 0.70
     Davidson diagonalization with overlap
     ethr =  1.15E-08,  avg # of iterations =  3.0

     negative rho (up, down):  1.937E-05 0.000E+00

     total cpu time spent up to now is      327.4 secs

     total energy              =   -2246.32840264 Ry
     estimated scf accuracy    <       0.00001639 Ry

     iteration #  7     ecut=    80.00 Ry     beta= 0.70
     Davidson diagonalization with overlap
     ethr =  5.25E-09,  avg # of iterations =  5.0

     negative rho (up, down):  2.038E-05 0.000E+00

     total cpu time spent up to now is      338.4 secs

     total energy              =   -2246.32840540 Ry
     estimated scf accuracy    <       0.00000374 Ry

     iteration #  8     ecut=    80.00 Ry     beta= 0.70
     Davidson diagonalization with overlap
     ethr =  1.20E-09,  avg # of iterations =  6.0

     negative rho (up, down):  2.679E-05 0.000E+00

     total cpu time spent up to now is      351.1 secs

     total energy              =   -2246.32840769 Ry
     estimated scf accuracy    <       0.00000123 Ry

     iteration #  9     ecut=    80.00 Ry     beta= 0.70
     Davidson diagonalization with overlap
     ethr =  3.93E-10,  avg # of iterations =  2.0

     negative rho (up, down):  5.163E-05 0.000E+00

     total cpu time spent up to now is      362.9 secs

     total energy              =   -2246.32840869 Ry
     estimated scf accuracy    <       0.00000045 Ry

     iteration # 10     ecut=    80.00 Ry     beta= 0.70
     Davidson diagonalization with overlap
     ethr =  1.46E-10,  avg # of iterations =  4.0

     negative rho (up, down):  8.307E-05 0.000E+00

     total cpu time spent up to now is      374.1 secs

     total energy              =   -2246.32840904 Ry
     estimated scf accuracy    <       0.00000014 Ry

     iteration # 11     ecut=    80.00 Ry     beta= 0.70
     Davidson diagonalization with overlap
     ethr =  4.61E-11,  avg # of iterations =  2.0

     negative rho (up, down):  2.015E-04 0.000E+00

     total cpu time spent up to now is      378.3 secs

     End of self-consistent calculation

          k = 0.0000 0.0000 0.0000 (105382 PWs)   bands (ev):

   -63.0011 -62.9694 -62.9619 -62.9605 -62.9455 -62.9343 -62.9205 -62.9133
   -62.9010 -62.8893 -62.8501 -62.7220 -37.3372 -37.2825 -37.2544 -37.2405
   -37.2217 -37.2138 -37.1946 -37.1810 -37.1701 -37.1607 -37.1512 -37.1446
   -37.1347 -37.1316 -37.1246 -37.1068 -37.0999 -37.0916 -37.0857 -37.0817
   -37.0767 -37.0686 -37.0532 -37.0364 -37.0262 -37.0132 -37.0099 -37.0039
   -36.9982 -36.9402 -36.9244 -36.9073 -36.8995 -36.8750 -36.8328 -36.8094
   -22.1104 -16.0236 -15.2930 -15.1668 -15.0280 -14.9683 -14.8585 -14.6092
   -14.5507 -14.5203 -14.5035 -14.4332 -14.4238 -14.3834 -14.3415 -14.2575
   -14.2173 -14.1992 -14.1467 -14.0062 -13.9654 -13.9410 -13.9261 -13.6595
    -8.1272  -7.8489  -7.6271  -7.5628  -7.4652  -7.3225  -7.3016  -7.2916
    -7.2396  -7.0541  -6.9816  -6.9036  -6.8357  -6.7821  -6.7080  -6.6254
    -6.5127  -6.5018  -6.3703  -6.3480  -6.1975  -6.0900  -6.0072  -5.9488
    -5.8953  -5.8611  -5.8101  -5.7774  -5.7615  -5.7316  -5.6878  -5.6339
    -5.6103  -5.5380  -5.4740  -5.3306  -5.2463  -5.1969  -5.1455  -5.1016
    -5.0674  -5.0252  -4.9243  -4.8849  -4.8062  -4.6660  -4.4561  -4.4329
    -4.3655  -4.3094  -4.2746  -4.2005  -4.1453  -4.0571  -3.9623  -3.8590
    -3.7902  -3.7689  -3.7077  -3.6905  -3.6415  -3.5991  -3.5842  -3.5598
    -3.4850  -3.4647  -3.4026  -3.2750  -3.1112  -3.0364  -2.9698  -2.9227
    -2.9022  -2.8420  -2.7853  -2.7603  -2.7232  -2.6985  -2.6441  -2.3440
    -2.2451  -2.0866  -2.0623  -1.8082  -1.1460  -0.8966  -0.4944  -0.2528
    -0.2409  -0.1233  -0.0653  -0.0226   0.0752   0.1499   0.1606   0.1992
     0.2269   0.2468   0.3214   0.4098   0.4486   0.4580   0.4827   0.5289
     0.6400   0.6487   0.6779   0.7079   0.7273   0.7702   0.8597   0.8850
     0.9394   0.9762   1.1936

     the Fermi energy is    -1.4771 ev

!    total energy              =   -2246.32840912 Ry
     estimated scf accuracy    <       0.00000006 Ry
     smearing contrib. (-TS)   =      -0.00003023 Ry
     internal energy E=F+TS    =   -2246.32837889 Ry

     The total energy is F=E-TS. E is the sum of the following terms:
     one-electron contribution =  -18430.02720954 Ry
     hartree contribution      =    9202.88157241 Ry
     xc contribution           =    -392.05687976 Ry
     ewald contribution        =    7382.73587421 Ry
     one-center paw contrib.   =      -9.86173622 Ry

     convergence has been achieved in  11 iterations

     negative rho (up, down):  2.015E-04 0.000E+00

     Forces acting on atoms (cartesian axes, Ry/au):

     atom    1 type  1   force =    -0.00337460   -0.00287953   -0.00356609
     atom    2 type  2   force =    -0.00468633    0.00525249   -0.00272687
     atom    3 type  2   force =    -0.00908063    0.00845901   -0.01326128
     atom    4 type  1   force =     0.00428472   -0.00204567    0.00051069
     atom    5 type  2   force =     0.00136167   -0.00612238   -0.00529066
     atom    6 type  2   force =    -0.00042923    0.00512883    0.00353401
     atom    7 type  1   force =     0.00136738   -0.00427053    0.00185044
     atom    8 type  2   force =     0.00038947   -0.00075937    0.00193976
     atom    9 type  2   force =    -0.00037641   -0.00151630   -0.00630327
     atom   10 type  1   force =    -0.00116316    0.00720463   -0.00124097
     atom   11 type  2   force =     0.00370678   -0.00127655   -0.01035125
     atom   12 type  2   force =    -0.00556714   -0.00217959   -0.00115793
     atom   13 type  1   force =     0.00369867    0.00031379    0.00028260
     atom   14 type  2   force =     0.00436253   -0.00173153    0.00495952
     atom   15 type  2   force =    -0.00627806    0.00102857   -0.00504200
     atom   16 type  1   force =    -0.00094109    0.00480559    0.00329985
     atom   17 type  2   force =     0.00372569    0.00121460    0.00230172
     atom   18 type  2   force =    -0.00231608   -0.00080644    0.01047149
     atom   19 type  1   force =    -0.00006510   -0.00091110    0.01105712
     atom   20 type  2   force =     0.00015290   -0.00388821   -0.00416368
     atom   21 type  1   force =    -0.00316173    0.00010389    0.00215307
     atom   22 type  2   force =     0.00249232    0.00130943    0.00116009
     atom   23 type  2   force =     0.00056123   -0.00151999    0.00248209
     atom   24 type  1   force =    -0.00480616    0.00004916   -0.00194997
     atom   25 type  2   force =     0.00684903    0.00849790   -0.00346000
     atom   26 type  2   force =    -0.00292534   -0.00169021   -0.00314970
     atom   27 type  1   force =    -0.00715343    0.01259129    0.02699681
     atom   28 type  2   force =    -0.00407948   -0.00577109   -0.00120503
     atom   29 type  2   force =     0.00425841    0.00152413   -0.00324965
     atom   30 type  1   force =    -0.00601736    0.00313093   -0.00330606
     atom   31 type  2   force =    -0.02153095    0.02861291   -0.03678365
     atom   32 type  2   force =    -0.00028041   -0.00117802    0.00690611
     atom   33 type  1   force =     0.00184995    0.00470432    0.00205181
     atom   34 type  2   force =    -0.01535204   -0.00602023   -0.03330984
     atom   35 type  2   force =    -0.00313506    0.01500451   -0.00661575
     atom   36 type  3   force =     0.06365905   -0.06436923    0.06417648
     The non-local contrib.  to forces
     atom    1 type  1   force =     0.00256075    0.02520692   -0.01123313
     atom    2 type  2   force =    -0.00063901   -0.00469132   -0.27333638
     atom    3 type  2   force =    -0.00772802   -0.00250054    0.25889773
     atom    4 type  1   force =     0.00300907    0.01223978    0.00177531
     atom    5 type  2   force =     0.00545239   -0.03235365   -0.25616085
     atom    6 type  2   force =    -0.00395010    0.00791419    0.26687684
     atom    7 type  1   force =    -0.01245206    0.00084680   -0.02723985
     atom    8 type  2   force =    -0.01565380   -0.01329762   -0.26874372
     atom    9 type  2   force =    -0.00425254   -0.01727307    0.26252907
     atom   10 type  1   force =     0.00380148   -0.00663079    0.00468274
     atom   11 type  2   force =     0.01206633    0.00073836   -0.26575686
     atom   12 type  2   force =    -0.01748227   -0.02016599    0.26056866
     atom   13 type  1   force =     0.00576869    0.01661715   -0.00580192
     atom   14 type  2   force =     0.00706874   -0.01241791   -0.26927911
     atom   15 type  2   force =    -0.00909913   -0.00688053    0.25979360
     atom   16 type  1   force =     0.00418268    0.02617022   -0.03510028
     atom   17 type  2   force =     0.00154132   -0.02325078   -0.24840780
[...]
     atom   28 type  2   force =     0.00147708   -0.01087559   -0.27886302
     atom   29 type  2   force =     0.00171461   -0.00717765    0.26700869
     atom   30 type  1   force =     0.00526302    0.00293606    0.02008551
     atom   31 type  2   force =     0.00055623   -0.03232699    0.29735714
     atom   32 type  2   force =     0.00697460   -0.01213845    0.28134915
     atom   33 type  1   force =    -0.00135967    0.00429908    0.00096641
     atom   34 type  2   force =    -0.00029164   -0.00710059   -0.27704988
     atom   35 type  2   force =    -0.00107298   -0.01567964    0.26383371
     atom   36 type  3   force =    -0.03866115    0.04939249   -2.31109737
     The ionic contribution  to forces
     atom    1 type  1   force =    -0.08252159    0.55593771    2.29556623
     atom    2 type  2   force =    -0.29291561    0.03855890   38.75852879
     atom    3 type  2   force =     0.05543379   -0.00574316  -37.81586852
     atom    4 type  1   force =    -0.58782839   -0.30136693   -0.59105397
     atom    5 type  2   force =    -0.77782625    0.83905314   38.14250410
     atom    6 type  2   force =     0.19634275   -0.53065595  -38.35350315
     atom    7 type  1   force =    -2.56509618   -1.58063303    0.42952188
     atom    8 type  2   force =    -2.03158934    0.08092466   37.55391574
     atom    9 type  2   force =     0.33561468   -0.09481822  -38.78539004
     atom   10 type  1   force =    -0.71049357    0.22994451    1.84412751
     atom   11 type  2   force =    -0.43023588   -1.11389783   38.17411592
     atom   12 type  2   force =     0.26011151    0.51114941  -38.55309792
     atom   13 type  1   force =     0.23338656    0.19342652    2.06931580
     atom   14 type  2   force =     0.09713310   -0.10135169   38.50209962
     atom   15 type  2   force =     0.01348838   -0.04137913  -37.93155983
     atom   16 type  1   force =     0.53270614    2.74844076    0.75218809
     atom   17 type  2   force =     1.44774876    0.09567296   37.66714595
     atom   18 type  2   force =    -0.12446037   -0.52024052  -38.65134600
     atom   19 type  1   force =     3.34073338   -1.41434995   -2.39419800
     atom   20 type  2   force =     0.06949141   -0.16958852  -39.64744184
     atom   21 type  1   force =     0.28588361    0.42495743   -0.40416612
     atom   22 type  2   force =     1.07832408   -0.31155738   37.83027011
     atom   23 type  2   force =    -0.25043489    0.59912463  -38.78985754
     atom   24 type  1   force =    -0.12502207   -0.08000626    1.91084571
     atom   25 type  2   force =     0.18604810    0.04056397   38.60425097
     atom   26 type  2   force =    -0.08745228   -0.01720140  -37.69610068
     atom   27 type  1   force =     0.06426746   -0.98876088   -3.54385886
     atom   28 type  2   force =    -0.61492228   -0.45045446   37.59161118
     atom   29 type  2   force =    -0.08259446   -0.28316401  -38.29259798
     atom   30 type  1   force =    -0.99212486   -0.04833515   -1.92742812
     atom   31 type  2   force =     1.08760921    0.27769006   27.96395198
     atom   32 type  2   force =    -0.37515831   -0.02946294  -38.65970446
     atom   33 type  1   force =     0.41527021    0.65826552    1.90670651
     atom   34 type  2   force =    -0.56166678    0.58390382   38.29454050
     atom   35 type  2   force =    -0.00338398    0.38561551  -38.21745409
     atom   36 type  3   force =     0.99613395   -0.18026212   49.96342053
     The local contribution  to forces
     atom    1 type  1   force =     0.08394870   -0.58094882   -2.28816364
     atom    2 type  2   force =     0.29137805   -0.02768175  -38.51003731
     atom    3 type  2   force =    -0.05236089    0.01613669   37.57032693
     atom    4 type  1   force =     0.58245617    0.29354841    0.58855380
     atom    5 type  2   force =     0.77604450   -0.81726639  -37.90577522
     atom    6 type  2   force =    -0.19617036    0.53166651   38.10569889
     atom    7 type  1   force =     2.58113189    1.57486910   -0.40449792
     atom    8 type  2   force =     2.02326772   -0.08013175  -37.30625914
     atom    9 type  2   force =    -0.32740712    0.10691379   38.54284628
     atom   10 type  1   force =     0.71094094   -0.23679379   -1.84851293
     atom   11 type  2   force =     0.42346554    1.11564879  -37.93117332
     atom   12 type  2   force =    -0.25156185   -0.49690454   38.31015391
     atom   13 type  1   force =    -0.23919185   -0.21789584   -2.06311650
     atom   14 type  2   force =    -0.09552787    0.11048239  -38.25189279
     atom   15 type  2   force =    -0.01382479    0.05157186   37.68940568
     atom   16 type  1   force =    -0.53257583   -2.77895076   -0.71277293
     atom   17 type  2   force =    -1.44576813   -0.07360927  -37.42720846
     atom   18 type  2   force =     0.12386361    0.52181026   38.40402947
     atom   19 type  1   force =    -3.34968556    1.42341175    2.39951462
     atom   20 type  2   force =    -0.07046330    0.17920214   39.40734253
     atom   21 type  1   force =    -0.28731621   -0.45210961    0.39995246
     atom   22 type  2   force =    -1.07313141    0.31429982  -37.58610924
     atom   23 type  2   force =     0.24141977   -0.58343727   38.54786048
     atom   24 type  1   force =     0.13055732    0.06732353   -1.90915687
     atom   25 type  2   force =    -0.18684695   -0.03069807  -38.35496681
     atom   26 type  2   force =     0.08446811    0.02696066   37.44822380
     atom   27 type  1   force =    -0.06262174    0.96552456    3.52169311
     atom   28 type  2   force =     0.61424146    0.46120170  -37.33484500
     atom   29 type  2   force =     0.08142948    0.28991930   38.04592641
     atom   30 type  1   force =     0.98728724    0.04514600    1.90740601
     atom   31 type  2   force =    -1.08894685   -0.24833717  -28.25347165
     atom   32 type  2   force =     0.36884227    0.04092664   38.40030142
     atom   33 type  1   force =    -0.41377019   -0.66245036   -1.90798599
     atom   34 type  2   force =     0.56198416   -0.57590153  -38.03861658
     atom   35 type  2   force =     0.00409706   -0.37123066   37.97411254
     atom   36 type  3   force =    -0.95784201    0.13175387  -47.67640944
     The core correction contribution to forces
     atom    1 type  1   force =     0.00000000    0.00000000    0.00000000
     atom    2 type  2   force =    -0.00010454    0.00040687    0.02101922
     atom    3 type  2   force =     0.00015308    0.00048607   -0.02089875
     atom    4 type  1   force =     0.00000000    0.00000000    0.00000000
     atom    5 type  2   force =    -0.00030939    0.00100973    0.02056015
     atom    6 type  2   force =     0.00016319   -0.00045715   -0.02096024
     atom    7 type  1   force =     0.00000000    0.00000000    0.00000000
     atom    8 type  2   force =    -0.00043396    0.00031832    0.02119329
     atom    9 type  2   force =     0.00073837    0.00056133   -0.02076717
     atom   10 type  1   force =     0.00000000    0.00000000    0.00000000
     atom   11 type  2   force =    -0.00021995   -0.00019212    0.02085256
     atom   12 type  2   force =     0.00076365    0.00108914   -0.02081378
     atom   13 type  1   force =     0.00000000    0.00000000    0.00000000
     atom   14 type  2   force =     0.00007802    0.00005032    0.02107271
     atom   15 type  2   force =     0.00001416    0.00058075   -0.02075047
     atom   16 type  1   force =     0.00000000    0.00000000    0.00000000
     atom   17 type  2   force =     0.00032713    0.00110262    0.02083741
     atom   18 type  2   force =    -0.00012408   -0.00038414   -0.02095149
     atom   19 type  1   force =     0.00000000    0.00000000    0.00000000
     atom   20 type  2   force =     0.00002685    0.00031497   -0.02110619
     atom   21 type  1   force =     0.00000000    0.00000000    0.00000000
     atom   22 type  2   force =     0.00014808   -0.00018903    0.02098732
     atom   23 type  2   force =    -0.00084748    0.00123783   -0.02078430
     atom   24 type  1   force =     0.00000000    0.00000000    0.00000000
     atom   25 type  2   force =    -0.00006747    0.00044426    0.02098506
     atom   26 type  2   force =    -0.00018191    0.00043856   -0.02091484
     atom   27 type  1   force =     0.00000000    0.00000000    0.00000000
     atom   28 type  2   force =    -0.00005345    0.00082683    0.02148416
     atom   29 type  2   force =    -0.00013221    0.00016966   -0.02079979
     atom   30 type  1   force =     0.00000000    0.00000000    0.00000000
     atom   31 type  2   force =     0.00006986    0.00184908   -0.00975832
     atom   32 type  2   force =    -0.00067077    0.00065534   -0.02143933
     atom   33 type  1   force =     0.00000000    0.00000000    0.00000000
     atom   34 type  2   force =     0.00004005    0.00025410    0.02152690
     atom   35 type  2   force =     0.00012303    0.00095295   -0.02082895
     atom   36 type  3   force =     0.00042073   -0.00050954    0.02447379
     The Hubbard contrib.    to forces
     atom    1 type  1   force =     0.00000000    0.00000000    0.00000000
     atom    2 type  2   force =     0.00000000    0.00000000    0.00000000
     atom    3 type  2   force =     0.00000000    0.00000000    0.00000000
     atom    4 type  1   force =     0.00000000    0.00000000    0.00000000
     atom    5 type  2   force =     0.00000000    0.00000000    0.00000000
     atom    6 type  2   force =     0.00000000    0.00000000    0.00000000
     atom    7 type  1   force =     0.00000000    0.00000000    0.00000000
     atom    8 type  2   force =     0.00000000    0.00000000    0.00000000
     atom    9 type  2   force =     0.00000000    0.00000000    0.00000000
     atom   10 type  1   force =     0.00000000    0.00000000    0.00000000
     atom   11 type  2   force =     0.00000000    0.00000000    0.00000000
     atom   12 type  2   force =     0.00000000    0.00000000    0.00000000
     atom   13 type  1   force =     0.00000000    0.00000000    0.00000000
     atom   14 type  2   force =     0.00000000    0.00000000    0.00000000
     atom   15 type  2   force =     0.00000000    0.00000000    0.00000000
     atom   16 type  1   force =     0.00000000    0.00000000    0.00000000
     atom   17 type  2   force =     0.00000000    0.00000000    0.00000000
     atom   18 type  2   force =     0.00000000    0.00000000    0.00000000
     atom   19 type  1   force =     0.00000000    0.00000000    0.00000000
     atom   20 type  2   force =     0.00000000    0.00000000    0.00000000
     atom   21 type  1   force =     0.00000000    0.00000000    0.00000000
     atom   22 type  2   force =     0.00000000    0.00000000    0.00000000
     atom   23 type  2   force =     0.00000000    0.00000000    0.00000000
     atom   24 type  1   force =     0.00000000    0.00000000    0.00000000
     atom   25 type  2   force =     0.00000000    0.00000000    0.00000000
     atom   26 type  2   force =     0.00000000    0.00000000    0.00000000
     atom   27 type  1   force =     0.00000000    0.00000000    0.00000000
     atom   28 type  2   force =     0.00000000    0.00000000    0.00000000
     atom   29 type  2   force =     0.00000000    0.00000000    0.00000000
     atom   30 type  1   force =     0.00000000    0.00000000    0.00000000
     atom   31 type  2   force =     0.00000000    0.00000000    0.00000000
     atom   32 type  2   force =     0.00000000    0.00000000    0.00000000
     atom   33 type  1   force =     0.00000000    0.00000000    0.00000000
     atom   34 type  2   force =     0.00000000    0.00000000    0.00000000
     atom   35 type  2   force =     0.00000000    0.00000000    0.00000000
     atom   36 type  3   force =     0.00000000    0.00000000    0.00000000
     The SCF correction term to forces
     atom    1 type  1   force =     0.00000836   -0.00001899   -0.00000545
     atom    2 type  2   force =     0.00000029   -0.00000312   -0.00000428
     atom    3 type  2   force =    -0.00000495   -0.00001512   -0.00000810
     atom    4 type  1   force =    -0.00001038   -0.00000360   -0.00001633
     atom    5 type  2   force =     0.00000383   -0.00000525    0.00000370
     atom    6 type  2   force =     0.00001201   -0.00000171   -0.00000479
     atom    7 type  1   force =     0.00001797    0.00002231   -0.00003871
     atom    8 type  2   force =    -0.00000902   -0.00000016   -0.00000301
     atom    9 type  2   force =    -0.00000340    0.00001003   -0.00001525
     atom   10 type  1   force =    -0.00000249   -0.00000035   -0.00003992
     atom   11 type  2   force =     0.00000449    0.00000529   -0.00001299
     atom   12 type  2   force =     0.00000593    0.00000407   -0.00001073
     atom   13 type  1   force =     0.00000405   -0.00002908    0.00001251
     atom   14 type  2   force =     0.00000073    0.00000037    0.00000215
     atom   15 type  2   force =     0.00001007   -0.00001539   -0.00000548
     atom   16 type  1   force =     0.00002732   -0.00000123    0.00000458
     atom   17 type  2   force =     0.00000349   -0.00001354    0.00001134
     atom   18 type  2   force =    -0.00000139   -0.00000239   -0.00000571
     atom   19 type  1   force =     0.00001395    0.00003024   -0.00004248
     atom   20 type  2   force =     0.00001182    0.00001729   -0.00001536
     atom   21 type  1   force =     0.00001659    0.00000128   -0.00003377
     atom   22 type  2   force =     0.00000017    0.00001415   -0.00000169
     atom   23 type  2   force =     0.00000154    0.00000449   -0.00001399
     atom   24 type  1   force =    -0.00001194   -0.00002459    0.00000054
     atom   25 type  2   force =    -0.00000124   -0.00000307    0.00000533
     atom   26 type  2   force =    -0.00000620   -0.00001540   -0.00000229
     atom   27 type  1   force =    -0.00001856   -0.00000814   -0.00001873
     atom   28 type  2   force =    -0.00000608   -0.00000914    0.00000136
     atom   29 type  2   force =    -0.00001019    0.00000209   -0.00000864
     atom   30 type  1   force =    -0.00003225    0.00003161   -0.00005006
     atom   31 type  2   force =    -0.00000230    0.00000341   -0.00001012
     atom   32 type  2   force =    -0.00000659    0.00000844   -0.00002136
     atom   33 type  1   force =    -0.00001071    0.00000806   -0.00002457
     atom   34 type  2   force =    -0.00000496    0.00001222   -0.00000381
     atom   35 type  2   force =    -0.00000885    0.00000324   -0.00001272
     atom   36 type  3   force =    -0.00000491    0.00001507    0.00005059

     Total force =     0.005124     Total SCF correction =     0.000160
     Energy error            =      6.4E-05 Ry
     Gradient error          =      1.9E-03 Ry/Bohr

     bfgs converged in  24 scf cycles and  23 bfgs steps
     (criteria: energy <  1.0E-04 Ry, force <  1.0E-02 Ry/Bohr)

     End of BFGS Geometry Optimization

     Final energy             =   -2246.4507639750 Ry

     File ./MoS2-V-O.bfgs deleted, as requested
Begin final coordinates

ATOMIC_POSITIONS (angstrom)
Mo            6.5370438064        1.7817133784        2.7746691527
S             8.1077336515        0.8689710693        4.3796334632
S             8.1150341542        0.8728608634        1.1898006758
Mo            8.0948583141        4.5253580843        2.7217743428
S             6.4957749520        3.6940115249        4.3217140067
S             6.5296375508        3.5862574112        1.1256653899
Mo            6.4937694077        7.2166359298        2.6559747042
S             8.0379731853        6.3479836031        4.2966688760
S             8.1062463789        6.3420305704        1.1034719076
Mo            8.1192332533        9.9635504259        2.7721458056
S             6.4947434811        8.9805762924        4.3202635165
S             6.5696676038        9.0695373755        1.1204211505
Mo            3.4111340954        1.7874445521        2.7744167962
S             4.9718290748        0.8345167737        4.3563861372
S             4.9751628960        0.8778597304        1.1753049965
Mo            4.9727713052        4.5765542906        2.6677311866
S             3.4406902801        3.7017569133        4.3221109206
S             3.4319640040        3.5795321052        1.1161516232
Mo            3.4769809259        7.2293373726        2.6393046399
S             4.9848398956        6.3322717434        1.0244402354
Mo            4.9718240068        9.9374753964        2.7245349201
S             3.4571344239        8.9575701635        4.3300178602
S             3.3728347471        9.0783971955        1.1159812455
Mo            0.2358506316        1.7760029599        2.7837452492
S             1.8317543642        0.8748975625        4.3799431677
S             1.8250891553        0.8762226855        1.1969155384
Mo            1.8427685003        4.4960005964        2.7028065977
S             0.2438592911        3.6443053950        4.3315901487
S             0.2251307862        3.5757499380        1.1497009666
Mo            0.2155699881        7.2564499278        2.7298115739
S             1.8824064316        6.3532099880        4.2053219101
S             1.8190355798        6.3475983449        1.1197814301
Mo            1.8340671985        9.9598334077        2.7804925405
S             0.2449833702        9.0492980175        4.3714016278
S             0.2511126149        9.0963114033        1.1718426387
O             1.9025888172        6.3187967519        5.7028245943
End final coordinates



     Writing all to output data dir ./MoS2-V-O.save/
 
     init_run     :      5.52s CPU      6.05s WALL (       1 calls)
     electrons    :   2272.91s CPU   2590.23s WALL (      24 calls)
     update_pot   :     74.09s CPU     79.65s WALL (      23 calls)
     forces       :     71.99s CPU     83.87s WALL (      24 calls)

     Called by init_run:
     wfcinit      :      0.50s CPU      0.55s WALL (       1 calls)
     potinit      :      3.24s CPU      3.52s WALL (       1 calls)
     hinit0       :      0.45s CPU      0.47s WALL (       1 calls)

     Called by electrons:
     c_bands      :    339.78s CPU    349.10s WALL (     222 calls)
     sum_band     :    138.52s CPU    190.71s WALL (     222 calls)
     v_of_rho     :    262.95s CPU    320.90s WALL (     236 calls)
     newd         :     85.52s CPU    129.50s WALL (     236 calls)
     PAW_pot      :      9.38s CPU      9.42s WALL (     259 calls)
     mix_rho      :   1466.71s CPU   1624.80s WALL (     222 calls)

     Called by c_bands:
     init_us_2    :      5.12s CPU      5.48s WALL (     468 calls)
     init_us_2:cp :      5.11s CPU      5.48s WALL (     468 calls)
     regterg      :    323.18s CPU    332.10s WALL (     222 calls)

     Called by *egterg:
     rdiaghg      :     20.22s CPU     20.44s WALL (    1135 calls)
     h_psi        :    204.53s CPU    206.47s WALL (    1169 calls)
     s_psi        :     18.26s CPU     18.32s WALL (    1169 calls)
     g_psi        :      2.05s CPU      2.06s WALL (     946 calls)

     Called by h_psi:
     h_psi:calbec :     21.88s CPU     21.99s WALL (    1169 calls)
     vloc_psi     :    161.23s CPU    162.93s WALL (    1169 calls)
     add_vuspsi   :     18.43s CPU     18.55s WALL (    1169 calls)

     General routines
     calbec       :     31.64s CPU     31.83s WALL (    1510 calls)
     fft          :    186.73s CPU    210.15s WALL (   15797 calls)
     ffts         :    653.38s CPU    805.56s WALL (  357230 calls)
     fftw         :    100.35s CPU    101.35s WALL (  136506 calls)
     interpolate  :      3.00s CPU      3.40s WALL (     236 calls)
 
     Parallel routines
 
     PWSCF        :  40m36.27s CPU  46m17.31s WALL

 
   This run was terminated on:  19:40:12   1Nov2023            

=------------------------------------------------------------------------------=
   JOB DONE.
=------------------------------------------------------------------------------=
