
     Program PWSCF v.7.2 starts on  1Nov2023 at 17:55:37 

     This program is part of the open-source Quantum ESPRESSO suite
     for quantum simulation of materials; please cite
         "P. Giannozzi et al., J. Phys.:Condens. Matter 21 395502 (2009);
         "P. Giannozzi et al., J. Phys.:Condens. Matter 29 465901 (2017);
         "P. Giannozzi et al., J. Chem. Phys. 152 154105 (2020);
          URL http://www.quantum-espresso.org", 
     in publications or presentations arising from this work. More details at
     http://www.quantum-espresso.org/quote

     Parallel version (MPI & OpenMP), running on      48 processor cores
     Number of MPI processes:                48
     Threads/MPI process:                     1

     MPI processes distributed on     1 nodes
     18517 MiB available memory on the printing compute node when the environment starts
 
     Waiting for input...
     Reading input from standard input
Warning: card &CELL ignored
Warning: card CELL_DYNAMICS = 'BFGS', ignored
Warning: card CELL_DOFREE = '2DXY' ignored
Warning: card / ignored

     Current dimensions of program PWSCF are:
     Max number of different atomic species (ntypx) = 10
     Max number of k-points (npk) =  40000
     Max angular momentum in pseudopotentials (lmaxx) =  4
     file O.pbe-n-kjpaw_psl.0.1.UPF: wavefunction(s)  2P renormalized

     IMPORTANT: XC functional enforced from input :
     Exchange-correlation= RVV10
                           (   1   4  13   4  26   0   0)
     Any further DFT definition will be discarded
     Please, verify this is what you really want


     gamma-point specific algorithms are used
     signal trapping enabled: kill the code with -SIGUSR1 to stop cleanly the simulation 
 
     R & G space division:  proc/nbgrp/npool/nimage =      48
     Subspace diagonalization in iterative solution of the eigenvalue problem:
     one sub-group per band group will be used
     scalapack distributed-memory algorithm (size of sub-group:  2*  2 procs)

 
     Parallelization info
     --------------------
     sticks:   dense  smooth     PW     G-vecs:    dense   smooth      PW
     Min         396     194     47               101632    35090    4376
     Max         398     196     50               101674    35128    4410
     Sum       19091    9389   2349              4879585  1685513  210763
 
     Using Slab Decomposition
 


     bravais-lattice index     =            0
     lattice parameter (alat)  =      17.8707  a.u.
     unit-cell volume          =   17436.2743 (a.u.)^3
     number of atoms/cell      =           36
     number of atomic types    =            3
     number of electrons       =       312.00
     number of Kohn-Sham states=          187
     kinetic-energy cutoff     =      80.0000  Ry
     charge density cutoff     =     650.0000  Ry
     scf convergence threshold =      1.0E-06
     mixing beta               =       0.7000
     number of iterations used =            8  local-TF  mixing
     energy convergence thresh.=      1.0E-04
     force convergence thresh. =      1.0E-02
     Exchange-correlation= RVV10
                           (   1   4  13   4  26   0   0)
     nstep                     =          200


     celldm(1)=  17.870686  celldm(2)=   0.000000  celldm(3)=   0.000000
     celldm(4)=   0.000000  celldm(5)=   0.000000  celldm(6)=   0.000000

     crystal axes: (cart. coord. in units of alat)
               a(1) = (   1.000000   0.000000   0.000000 )  
               a(2) = (   0.000000   1.155671   0.000000 )  
               a(3) = (   0.000000   0.000000   2.643601 )  

     reciprocal axes: (cart. coord. in units 2 pi/alat)
               b(1) = (  1.000000  0.000000  0.000000 )  
               b(2) = (  0.000000  0.865298  0.000000 )  
               b(3) = (  0.000000  0.000000  0.378272 )  


     PseudoPot. # 1 for Mo read from file:
     ../pseudo/Mo_ONCV_PBE-1.0.oncvpsp.upf
     MD5 check sum: 1b5d28e075c9ccadda658a603575cd1f
     Pseudo is Norm-conserving, Zval = 14.0
     Generated using ONCVPSP code by D. R. Hamann
     Using radial grid of 1526 points,  6 beta functions with: 
                l(1) =   0
                l(2) =   0
                l(3) =   1
                l(4) =   1
                l(5) =   2
                l(6) =   2

     PseudoPot. # 2 for S  read from file:
     ../pseudo/s_pbe_v1.4.uspp.F.UPF
     MD5 check sum: 88d86576ff6df21479756cfb9bdac1df
     Pseudo is Ultrasoft + core correction, Zval =  6.0
     Generated by new atomic code, or converted to UPF format
     Using radial grid of  907 points,  6 beta functions with: 
                l(1) =   0
                l(2) =   0
                l(3) =   1
                l(4) =   1
                l(5) =   2
                l(6) =   2
     Q(r) pseudized with  8 coefficients,  rinner =    1.300   1.300   1.300
                                                       1.300   1.300

     PseudoPot. # 3 for O  read from file:
     ../pseudo/O.pbe-n-kjpaw_psl.0.1.UPF
     MD5 check sum: 0234752ac141de4415c5fc33072bef88
     Pseudo is Projector augmented-wave + core cor, Zval =  6.0
     Generated using "atomic" code by A. Dal Corso  v.5.0.99 svn rev. 10869
     Shape of augmentation charge: BESSEL
     Using radial grid of 1095 points,  4 beta functions with: 
                l(1) =   0
                l(2) =   0
                l(3) =   1
                l(4) =   1
     Q(r) pseudized with 0 coefficients 


     atomic species   valence    mass     pseudopotential
        Mo            14.00    95.94000     Mo( 1.00)
        S              6.00    32.06500     S ( 1.00)
        O              6.00    15.99940     O ( 1.00)

     No symmetry found



   Cartesian axes

     site n.     atom                  positions (alat units)
         1           Mo  tau(   1) = (   0.6952221   0.1890506   0.2985846  )
         2           S   tau(   2) = (   0.8646417   0.0856217   0.4689279  )
         3           S   tau(   3) = (   0.8663890   0.0857843   0.1351291  )
         4           Mo  tau(   4) = (   0.8560186   0.4753274   0.2873942  )
         5           S   tau(   5) = (   0.6873294   0.3936244   0.4596353  )
         6           S   tau(   6) = (   0.6929804   0.3713468   0.1185692  )
         7           Mo  tau(   7) = (   0.6862796   0.7633098   0.2825370  )
         8           S   tau(   8) = (   0.8545980   0.6708292   0.4486168  )
         9           S   tau(   9) = (   0.8545123   0.6666874   0.1146125  )
        10           Mo  tau(  10) = (   0.8629403   1.0471007   0.3006803  )
        11           S   tau(  11) = (   0.6868280   0.9456650   0.4634891  )
        12           S   tau(  12) = (   0.6998113   0.9568511   0.1205389  )
        13           Mo  tau(  13) = (   0.3618216   0.1847309   0.2935964  )
        14           S   tau(  14) = (   0.5260962   0.0863870   0.4600448  )
        15           S   tau(  15) = (   0.5348379   0.0894875   0.1297123  )
        16           Mo  tau(  16) = (   0.5265817   0.4772436   0.2784130  )
        17           S   tau(  17) = (   0.3624753   0.3882513   0.4525556  )
        18           S   tau(  18) = (   0.3635411   0.3752055   0.1119148  )
        19           Mo  tau(  19) = (   0.3652268   0.7630864   0.2781795  )
        20           S   tau(  20) = (   0.5269494   0.6690381   0.1096838  )
        21           Mo  tau(  21) = (   0.5300192   1.0470394   0.2900995  )
        22           S   tau(  22) = (   0.3670346   0.9457522   0.4574073  )
        23           S   tau(  23) = (   0.3604225   0.9585725   0.1159032  )
        24           Mo  tau(  24) = (   0.0313099   0.1847895   0.3013130  )
        25           S   tau(  25) = (   0.1956761   0.0838230   0.4650863  )
        26           S   tau(  26) = (   0.1967693   0.0903508   0.1278874  )
        27           Mo  tau(  27) = (   0.1967578   0.4753919   0.2813011  )
        28           S   tau(  28) = (   0.0287851   0.3864324   0.4586755  )
        29           S   tau(  29) = (   0.0244514   0.3729871   0.1239344  )
        30           Mo  tau(  30) = (   0.0286728   0.7631204   0.2856894  )
        31           S   tau(  31) = (   0.2011512   0.6675435   0.4465001  )
        32           S   tau(  32) = (   0.1969214   0.6672839   0.1104564  )
        33           Mo  tau(  33) = (   0.1950294   1.0511147   0.2932237  )
        34           S   tau(  34) = (   0.0312912   0.9612169   0.4667423  )
        35           S   tau(  35) = (   0.0292670   0.9563028   0.1216485  )
        36           O   tau(  36) = (   0.5555556   0.6420393   0.5656742  )

     number of k points=     1  Gaussian smearing, width (Ry)=  0.0100
                       cart. coord. in units 2pi/alat
        k(    1) = (   0.0000000   0.0000000   0.0000000), wk =   2.0000000

     Dense  grid:  2439793 G-vectors     FFT dimensions: ( 150, 180, 384)

     Smooth grid:   842757 G-vectors     FFT dimensions: ( 108, 120, 270)

     Estimated max dynamical RAM per process >     269.22 MB

     Estimated total dynamical RAM >      12.62 GB

     Initial potential from superposition of free atoms

     starting charge     311.9873, renormalised to     312.0000

     negative rho (up, down):  2.747E-04 0.000E+00


---------------------------------------------------------------------------------
Carrying out rVV10 run using the following parameters:
Nqs =      20    Nr_points =    1024   r_max =   100.000
b_value =  6.30000    beta =  0.00901
     q_mesh =  0.00010000  0.00030000  0.00058939  0.00100810
               0.00161396  0.00249058  0.00375900  0.00559430
               0.00824984  0.01209221  0.01765183  0.02569619
               0.03733578  0.05417739  0.07854596  0.11380545
               0.16482331  0.23864234  0.34545298  0.50000000

Gradients computed in Reciprocal space

---------------------------------------------------------------------------------


     Starting wfcs are  216 randomized atomic wfcs
     Checking if some PAW data can be deallocated... 

     total cpu time spent up to now is        5.4 secs

     Self-consistent Calculation

     iteration #  1     ecut=    80.00 Ry     beta= 0.70
     Davidson diagonalization with overlap
     ethr =  1.00E-02,  avg # of iterations =  2.0

     Threshold (ethr) on eigenvalues was too large:
     Diagonalizing with lowered threshold

     Davidson diagonalization with overlap
     ethr =  7.06E-04,  avg # of iterations =  2.0

     negative rho (up, down):  1.869E-04 0.000E+00

     total cpu time spent up to now is       20.3 secs

     total energy              =   -2245.98510882 Ry
     estimated scf accuracy    <       2.37612672 Ry

     iteration #  2     ecut=    80.00 Ry     beta= 0.70
     Davidson diagonalization with overlap
     ethr =  7.62E-04,  avg # of iterations =  2.0

     negative rho (up, down):  4.782E-06 0.000E+00

     total cpu time spent up to now is       32.8 secs

     total energy              =   -2245.78275160 Ry
     estimated scf accuracy    <      11.39464281 Ry

     iteration #  3     ecut=    80.00 Ry     beta= 0.70
     Davidson diagonalization with overlap
     ethr =  7.62E-04,  avg # of iterations =  2.0

     total cpu time spent up to now is       38.1 secs

     total energy              =   -2246.17692064 Ry
     estimated scf accuracy    <       0.68732358 Ry

     iteration #  4     ecut=    80.00 Ry     beta= 0.70
     Davidson diagonalization with overlap
     ethr =  2.20E-04,  avg # of iterations =  2.0

     total cpu time spent up to now is       43.1 secs

     total energy              =   -2246.23509547 Ry
     estimated scf accuracy    <       0.07838652 Ry

     iteration #  5     ecut=    80.00 Ry     beta= 0.70
     Davidson diagonalization with overlap
     c_bands:  2 eigenvalues not converged
     ethr =  2.51E-05,  avg # of iterations = 20.0

     total cpu time spent up to now is       49.1 secs

     total energy              =   -2246.23949452 Ry
     estimated scf accuracy    <       0.02142980 Ry

     iteration #  6     ecut=    80.00 Ry     beta= 0.70
     Davidson diagonalization with overlap
     ethr =  6.87E-06,  avg # of iterations =  9.0

     total cpu time spent up to now is       54.4 secs

     total energy              =   -2246.23808637 Ry
     estimated scf accuracy    <       0.02119761 Ry

     iteration #  7     ecut=    80.00 Ry     beta= 0.70
     Davidson diagonalization with overlap
     ethr =  6.79E-06,  avg # of iterations =  2.0

     total cpu time spent up to now is       59.4 secs

     total energy              =   -2246.23855393 Ry
     estimated scf accuracy    <       0.01270280 Ry

     iteration #  8     ecut=    80.00 Ry     beta= 0.70
     Davidson diagonalization with overlap
     ethr =  4.07E-06,  avg # of iterations =  2.0

     negative rho (up, down):  2.747E-04 0.000E+00

     total cpu time spent up to now is       66.9 secs

     total energy              =   -2246.23775112 Ry
     estimated scf accuracy    <       0.00561825 Ry

     iteration #  9     ecut=    80.00 Ry     beta= 0.70
     Davidson diagonalization with overlap
     ethr =  1.80E-06,  avg # of iterations =  2.0

     negative rho (up, down):  6.536E-03 0.000E+00

     total cpu time spent up to now is       74.0 secs

     total energy              =   -2246.23719879 Ry
     estimated scf accuracy    <       0.00324206 Ry

     iteration # 10     ecut=    80.00 Ry     beta= 0.70
     Davidson diagonalization with overlap
     ethr =  1.04E-06,  avg # of iterations =  2.0

     negative rho (up, down):  1.401E-02 0.000E+00

     total cpu time spent up to now is       82.2 secs

     total energy              =   -2246.23695005 Ry
     estimated scf accuracy    <       0.00211850 Ry

     iteration # 11     ecut=    80.00 Ry     beta= 0.70
     Davidson diagonalization with overlap
     ethr =  6.79E-07,  avg # of iterations =  2.0

     negative rho (up, down):  1.647E-02 0.000E+00

     total cpu time spent up to now is       90.9 secs

     total energy              =   -2246.23702212 Ry
     estimated scf accuracy    <       0.00095510 Ry

     iteration # 12     ecut=    80.00 Ry     beta= 0.70
     Davidson diagonalization with overlap
     ethr =  3.06E-07,  avg # of iterations =  2.0

     negative rho (up, down):  7.675E-03 0.000E+00

     total cpu time spent up to now is      100.8 secs

     total energy              =   -2246.23695693 Ry
     estimated scf accuracy    <       0.00024165 Ry

     iteration # 13     ecut=    80.00 Ry     beta= 0.70
     Davidson diagonalization with overlap
     ethr =  7.75E-08,  avg # of iterations =  6.0

     negative rho (up, down):  3.615E-03 0.000E+00

     total cpu time spent up to now is      110.8 secs

     total energy              =   -2246.23702772 Ry
     estimated scf accuracy    <       0.00007354 Ry

     iteration # 14     ecut=    80.00 Ry     beta= 0.70
     Davidson diagonalization with overlap
     ethr =  2.36E-08,  avg # of iterations =  5.0

     negative rho (up, down):  2.020E-03 0.000E+00

     total cpu time spent up to now is      121.8 secs

     total energy              =   -2246.23705177 Ry
     estimated scf accuracy    <       0.00002134 Ry

     iteration # 15     ecut=    80.00 Ry     beta= 0.70
     Davidson diagonalization with overlap
     ethr =  6.84E-09,  avg # of iterations =  2.0

     negative rho (up, down):  1.123E-03 0.000E+00

     total cpu time spent up to now is      133.3 secs

     total energy              =   -2246.23708021 Ry
     estimated scf accuracy    <       0.00001357 Ry

     iteration # 16     ecut=    80.00 Ry     beta= 0.70
     Davidson diagonalization with overlap
     ethr =  4.35E-09,  avg # of iterations =  3.0

     negative rho (up, down):  8.842E-04 0.000E+00

     total cpu time spent up to now is      145.5 secs

     total energy              =   -2246.23708520 Ry
     estimated scf accuracy    <       0.00000796 Ry

     iteration # 17     ecut=    80.00 Ry     beta= 0.70
     Davidson diagonalization with overlap
     ethr =  2.55E-09,  avg # of iterations =  2.0

     negative rho (up, down):  1.443E-04 0.000E+00

     total cpu time spent up to now is      150.4 secs

     End of self-consistent calculation

          k = 0.0000 0.0000 0.0000 (105382 PWs)   bands (ev):

   -63.1287 -63.0901 -63.0722 -63.0548 -63.0443 -63.0423 -63.0287 -63.0212
   -63.0176 -63.0123 -63.0017 -62.9724 -37.4559 -37.3970 -37.3607 -37.3445
   -37.3316 -37.3174 -37.3120 -37.2972 -37.2741 -37.2612 -37.2600 -37.2550
   -37.2460 -37.2337 -37.2241 -37.2232 -37.2191 -37.2166 -37.2126 -37.2076
   -37.1998 -37.1973 -37.1857 -37.1800 -37.1527 -37.1464 -37.1120 -37.1074
   -37.0981 -37.0909 -37.0809 -37.0772 -37.0440 -37.0223 -37.0150 -36.9740
   -16.7285 -16.1266 -15.3442 -15.3087 -15.1378 -15.0831 -14.9458 -14.6691
   -14.6341 -14.6175 -14.5674 -14.5551 -14.5175 -14.5012 -14.4395 -14.3024
   -14.2795 -14.2703 -14.2439 -14.1760 -14.0518 -14.0416 -14.0099 -13.9257
    -7.8249  -7.6551  -7.4560  -7.4496  -7.4251  -7.3842  -7.3604  -7.2962
    -6.9981  -6.9903  -6.9240  -6.8951  -6.8449  -6.6804  -6.6413  -6.6079
    -6.5698  -6.4470  -6.4014  -6.1400  -6.0759  -6.0603  -5.9894  -5.9676
    -5.9338  -5.9132  -5.8870  -5.8321  -5.8192  -5.7796  -5.6935  -5.6733
    -5.6082  -5.5809  -5.5358  -5.3491  -5.2901  -5.2251  -5.1871  -5.1566
    -5.0940  -5.0673  -5.0074  -4.8131  -4.7099  -4.5124  -4.4723  -4.4180
    -4.4124  -4.3227  -4.2223  -4.1461  -3.9692  -3.9602  -3.9232  -3.8900
    -3.8471  -3.8050  -3.7259  -3.6972  -3.6723  -3.6452  -3.6291  -3.6116
    -3.5556  -3.5344  -3.3699  -3.2765  -3.1487  -3.0533  -3.0300  -2.9457
    -2.9408  -2.8824  -2.8575  -2.8337  -2.8076  -2.7952  -2.7362  -2.3863
    -2.1818  -2.1661  -1.8590  -1.8142  -1.4132  -0.9196  -0.8561  -0.3695
    -0.3208  -0.2631  -0.1757  -0.1515  -0.0422  -0.0130   0.0558   0.0828
     0.1096   0.1957   0.2264   0.2616   0.3379   0.3590   0.3752   0.3950
     0.4959   0.5515   0.5697   0.6028   0.6214   0.6507   0.6939   0.7288
     0.8097   0.8601   0.8844

     the Fermi energy is    -1.6088 ev

!    total energy              =   -2246.23708137 Ry
     estimated scf accuracy    <       0.00000080 Ry
     smearing contrib. (-TS)   =      -0.00148371 Ry
     internal energy E=F+TS    =   -2246.23559766 Ry

     The total energy is F=E-TS. E is the sum of the following terms:
     one-electron contribution =  -18423.95138110 Ry
     hartree contribution      =    9199.37539149 Ry
     xc contribution           =    -391.63100378 Ry
     ewald contribution        =    7379.84774925 Ry
     one-center paw contrib.   =      -9.87635351 Ry

     convergence has been achieved in  17 iterations

     negative rho (up, down):  1.443E-04 0.000E+00

     Forces acting on atoms (cartesian axes, Ry/au):

     atom    1 type  1   force =     0.01940520   -0.02445292    0.00299535
     atom    2 type  2   force =    -0.01574307    0.01783436   -0.00210581
     atom    3 type  2   force =    -0.01124855    0.00934819   -0.00041833
     atom    4 type  1   force =     0.00587439   -0.00062611    0.00151363
     atom    5 type  2   force =    -0.00480844   -0.01126948   -0.00930695
     atom    6 type  2   force =     0.00100237    0.01054927   -0.00018624
     atom    7 type  1   force =     0.01878150   -0.01440406    0.04111802
     atom    8 type  2   force =    -0.00052080    0.00278469    0.01144428
     atom    9 type  2   force =     0.01173315    0.00557904    0.01096937
     atom   10 type  1   force =    -0.01357039    0.00706706   -0.02614046
     atom   11 type  2   force =     0.01021003    0.00092343   -0.01186442
     atom   12 type  2   force =    -0.00260528    0.00102439    0.00597385
     atom   13 type  1   force =     0.00174653    0.00685006   -0.00667566
     atom   14 type  2   force =     0.00814467    0.00208469    0.01302574
     atom   15 type  2   force =    -0.01301370    0.00307838   -0.01116536
     atom   16 type  1   force =     0.00526204    0.00320468    0.05017064
     atom   17 type  2   force =     0.00993283   -0.00582859   -0.00122171
     atom   18 type  2   force =    -0.00331022   -0.00644389    0.01347241
     atom   19 type  1   force =    -0.00857175   -0.00872453    0.02478261
     atom   20 type  2   force =     0.00200278   -0.00389169    0.00302824
     atom   21 type  1   force =    -0.00560660    0.00731897    0.00395401
     atom   22 type  2   force =    -0.00591215    0.00123769   -0.00678750
     atom   23 type  2   force =     0.00070122    0.00126737    0.00940622
     atom   24 type  1   force =    -0.01004893   -0.00212331   -0.02335210
     atom   25 type  2   force =     0.01728736    0.01919238    0.00417885
     atom   26 type  2   force =    -0.01162255   -0.00044978   -0.00162076
     atom   27 type  1   force =    -0.00199855   -0.00028634    0.00724969
     atom   28 type  2   force =     0.00078021   -0.00096269   -0.00373732
     atom   29 type  2   force =     0.00287949    0.00028648   -0.00374321
     atom   30 type  1   force =    -0.00300530   -0.00468750    0.00602136
     atom   31 type  2   force =     0.00113581    0.00637673    0.00929151
     atom   32 type  2   force =    -0.00794517    0.00747687    0.00879500
     atom   33 type  1   force =     0.01429198   -0.00995465   -0.00792289
     atom   34 type  2   force =     0.00235691   -0.04285989   -0.01242281
     atom   35 type  2   force =    -0.00828745    0.01276548    0.01257366
     atom   36 type  3   force =    -0.00570958    0.01071523   -0.11129291
     The non-local contrib.  to forces
     atom    1 type  1   force =     0.00405448    0.03873439   -0.00650263
     atom    2 type  2   force =    -0.01049715   -0.00141703   -0.27737649
     atom    3 type  2   force =    -0.01273314   -0.00265697    0.26756522
     atom    4 type  1   force =    -0.00702557    0.00897410    0.00478224
     atom    5 type  2   force =     0.00702668   -0.02057600   -0.28519956
     atom    6 type  2   force =    -0.00964204    0.01072380    0.26589032
     atom    7 type  1   force =    -0.00110681   -0.00453323   -0.02102922
     atom    8 type  2   force =    -0.00095081   -0.01533803   -0.27213601
     atom    9 type  2   force =     0.00836629    0.00006972    0.28024574
     atom   10 type  1   force =     0.00165426    0.01446053   -0.00229908
     atom   11 type  2   force =     0.01541745    0.01067079   -0.27448883
     atom   12 type  2   force =    -0.01045424   -0.01917271    0.26544371
     atom   13 type  1   force =    -0.00497582    0.02028532   -0.00370987
     atom   14 type  2   force =     0.01059507   -0.01296034   -0.26790619
     atom   15 type  2   force =    -0.01422385   -0.00820748    0.25909404
     atom   16 type  1   force =     0.00180528    0.00668927   -0.03352843
     atom   17 type  2   force =     0.00074599   -0.03087471   -0.27289356
     atom   18 type  2   force =     0.00116324   -0.00516409    0.27652519
     atom   19 type  1   force =    -0.00731032   -0.00131255   -0.02507225
     atom   20 type  2   force =    -0.00098935   -0.02100193    0.26136169
     atom   21 type  1   force =     0.00372597    0.02403411    0.00785298
     atom   22 type  2   force =    -0.01013797    0.00839541   -0.26810689
     atom   23 type  2   force =     0.00367738   -0.01944064    0.27114497
     atom   24 type  1   force =     0.00503189    0.00879684   -0.01268685
     atom   25 type  2   force =     0.00977016    0.00160271   -0.26597670
     atom   26 type  2   force =    -0.00330118   -0.01380112    0.26066096
     atom   27 type  1   force =    -0.00073723    0.00944487    0.00843886
     atom   28 type  2   force =    -0.00415027   -0.01954826   -0.27241289
     atom   29 type  2   force =     0.00797862    0.00439354    0.26142794
     atom   30 type  1   force =    -0.00043916    0.01304812    0.00140574
     atom   31 type  2   force =    -0.00722900   -0.00413320   -0.26128352
     atom   32 type  2   force =    -0.00252770   -0.00076528    0.27424620
     atom   33 type  1   force =    -0.00452374    0.01839256    0.00504277
     atom   34 type  2   force =     0.00009161   -0.03733253   -0.27534406
     atom   35 type  2   force =    -0.00261520   -0.01246948    0.27118074
     atom   36 type  3   force =     0.00106980    0.00049211   -0.55570883
     The ionic contribution  to forces
     atom    1 type  1   force =     0.70585943   -0.52364162    4.43300564
     atom    2 type  2   force =    -0.49738019    0.34959780   39.10870622
     atom    3 type  2   force =    -0.09870900   -0.00512422  -36.57232135
     atom    4 type  1   force =     1.28818572   -0.31054733   -1.38370702
     atom    5 type  2   force =     0.01315522   -0.41359524   37.82255261
     atom    6 type  2   force =     0.46552915   -0.76787360  -38.82205563
     atom    7 type  1   force =    -1.03990522   -1.20978041   -1.65581147
     atom    8 type  2   force =     0.66644375    0.21691623   36.53014317
     atom    9 type  2   force =     0.55773785   -0.00646644  -38.83107496
     atom   10 type  1   force =    -0.66453111    0.35408748    4.53268073
     atom   11 type  2   force =     0.04813702   -0.15641994   38.53820602
     atom   12 type  2   force =     0.54907928    0.94641366  -38.58002892
     atom   13 type  1   force =     0.11668810    0.35046793    1.65717529
     atom   14 type  2   force =     0.02379533   -0.10901404   38.27775752
     atom   15 type  2   force =     0.14842475   -0.09853645  -37.35732141
     atom   16 type  1   force =    -0.38309070    1.79886170   -3.86781137
     atom   17 type  2   force =    -0.14081432    0.16455369   37.22109320
     atom   18 type  2   force =    -0.29987307   -0.87893095  -39.31425156
     atom   19 type  1   force =     1.05264696   -1.25922103   -2.72529002
     atom   20 type  2   force =     0.18060932   -0.14391571  -39.67654450
     atom   21 type  1   force =    -0.04442772    1.20936061   -0.40667438
     atom   22 type  2   force =    -0.20639046   -0.58482342   37.90922180
     atom   23 type  2   force =    -0.20654247    0.89094417  -38.97567890
     atom   24 type  1   force =    -0.49727694    0.78600762    4.92226223
     atom   25 type  2   force =     0.52315270    0.23851903   39.09884446
     atom   26 type  2   force =    -0.34124687    0.04209856  -37.80963641
     atom   27 type  1   force =    -0.82766187   -0.27425574   -3.98224593
     atom   28 type  2   force =     0.14560887    0.61551767   37.94047021
     atom   29 type  2   force =    -0.23883443   -0.57406638  -37.84079428
     atom   30 type  1   force =    -0.15222634   -0.48248671   -1.53114667
     atom   31 type  2   force =     0.16434803    0.05388487   36.72482542
     atom   32 type  2   force =    -0.64330843    0.01956017  -39.38104828
     atom   33 type  1   force =     0.46244429   -0.30092279    0.99910948
     atom   34 type  2   force =     0.30278426   -1.06930128   39.13785209
     atom   35 type  2   force =    -0.28117268    0.61999914  -38.36151184
     atom   36 type  3   force =    -0.85123820    0.51213298   42.22104882
     The local contribution  to forces
     atom    1 type  1   force =    -0.69037041    0.46034683   -4.42399035
     atom    2 type  2   force =     0.49186867   -0.33042717  -38.85495628
     atom    3 type  2   force =     0.09964062    0.01707734   36.32486650
     atom    4 type  1   force =    -1.27499835    0.30112143    1.37992044
     atom    5 type  2   force =    -0.02384465    0.42084764  -37.56923823
     atom    6 type  2   force =    -0.45545705    0.76874400   38.57661261
     atom    7 type  1   force =     1.05994098    1.19997610    1.71749152
     atom    8 type  2   force =    -0.66545418   -0.19963411  -36.26862653
     atom    9 type  2   force =    -0.55420054    0.01198910   38.58281461
     atom   10 type  1   force =     0.64923092   -0.36160427   -4.55707747
     atom   11 type  2   force =    -0.05237297    0.14774266  -38.29761563
     atom   12 type  2   force =    -0.54226923   -0.92785484   38.34130103
     atom   13 type  1   force =    -0.11014547   -0.36399423   -1.66063140
     atom   14 type  2   force =    -0.02572822    0.12382902  -38.01809377
     atom   15 type  2   force =    -0.14802933    0.10933017   37.10730006
     atom   16 type  1   force =     0.38665013   -1.80217467    3.95096150
     atom   17 type  2   force =     0.14953758   -0.14164843  -36.97133068
     atom   18 type  2   force =     0.29547905    0.87800934   39.07203527
     atom   19 type  1   force =    -1.05396466    1.25196366    2.77454434
     atom   20 type  2   force =    -0.17772293    0.16037570   39.43904395
     atom   21 type  1   force =     0.03511460   -1.22607865    0.40220456
     atom   22 type  2   force =     0.21008791    0.57859513  -37.66946873
     atom   23 type  2   force =     0.20394242   -0.87178689   38.73468847
     atom   24 type  1   force =     0.48225999   -0.79680214   -4.93350159
     atom   25 type  2   force =    -0.51548163   -0.22068682  -38.85011553
     atom   26 type  2   force =     0.33306250   -0.02949153   37.56789573
     atom   27 type  1   force =     0.82605857    0.26450694    3.98057031
     atom   28 type  2   force =    -0.14092354   -0.59842384  -37.69306076
     atom   29 type  2   force =     0.23438481    0.57070571   37.59587715
     atom   30 type  1   force =     0.14955598    0.46460314    1.53534395
     atom   31 type  2   force =    -0.15686265   -0.04354667  -36.47574804
     atom   32 type  2   force =     0.63800016   -0.01142148   39.13645452
     atom   33 type  1   force =    -0.44360537    0.27257219   -1.01261881
     atom   34 type  2   force =    -0.30083021    1.06244825  -38.89657423
     atom   35 type  2   force =     0.27556915   -0.59584676   38.12380338
     atom   36 type  3   force =     0.84449860   -0.50184381  -41.78326612
     The core correction contribution to forces
     atom    1 type  1   force =     0.00000000    0.00000000    0.00000000
     atom    2 type  2   force =     0.00024243    0.00008130    0.02114170
     atom    3 type  2   force =     0.00055799    0.00005407   -0.02077009
     atom    4 type  1   force =     0.00000000    0.00000000    0.00000000
     atom    5 type  2   force =    -0.00105540    0.00208612    0.02245233
     atom    6 type  2   force =     0.00071975   -0.00110063   -0.02099219
     atom    7 type  1   force =     0.00000000    0.00000000    0.00000000
     atom    8 type  2   force =    -0.00058805    0.00090633    0.02177977
     atom    9 type  2   force =    -0.00017431    0.00004243   -0.02115212
     atom   10 type  1   force =     0.00000000    0.00000000    0.00000000
     atom   11 type  2   force =    -0.00093960   -0.00120383    0.02175231
     atom   12 type  2   force =     0.00104880    0.00153025   -0.02095964
     atom   13 type  1   force =     0.00000000    0.00000000    0.00000000
     atom   14 type  2   force =    -0.00053407    0.00020799    0.02093808
     atom   15 type  2   force =     0.00079635    0.00046174   -0.02047975
     atom   16 type  1   force =     0.00000000    0.00000000    0.00000000
     atom   17 type  2   force =     0.00033903    0.00207439    0.02175475
     atom   18 type  2   force =    -0.00022745   -0.00045085   -0.02117407
     atom   19 type  1   force =     0.00000000    0.00000000    0.00000000
     atom   20 type  2   force =     0.00018978    0.00082348   -0.02117129
     atom   21 type  1   force =     0.00000000    0.00000000    0.00000000
     atom   22 type  2   force =     0.00049851   -0.00094130    0.02133391
     atom   23 type  2   force =    -0.00038230    0.00156184   -0.02103110
     atom   24 type  1   force =     0.00000000    0.00000000    0.00000000
     atom   25 type  2   force =    -0.00011379   -0.00024103    0.02104200
     atom   26 type  2   force =    -0.00013327    0.00073255   -0.02076363
     atom   27 type  1   force =     0.00000000    0.00000000    0.00000000
     atom   28 type  2   force =     0.00024857    0.00156997    0.02091378
     atom   29 type  2   force =    -0.00064920   -0.00074194   -0.02045582
     atom   30 type  1   force =     0.00000000    0.00000000    0.00000000
     atom   31 type  2   force =     0.00075644    0.00019583    0.02126386
     atom   32 type  2   force =    -0.00018909    0.00012459   -0.02106833
     atom   33 type  1   force =     0.00000000    0.00000000    0.00000000
     atom   34 type  2   force =     0.00032153    0.00120879    0.02132598
     atom   35 type  2   force =    -0.00007517    0.00105195   -0.02112524
     atom   36 type  3   force =     0.00003129   -0.00005174    0.00643231
     The Hubbard contrib.    to forces
     atom    1 type  1   force =     0.00000000    0.00000000    0.00000000
     atom    2 type  2   force =     0.00000000    0.00000000    0.00000000
     atom    3 type  2   force =     0.00000000    0.00000000    0.00000000
     atom    4 type  1   force =     0.00000000    0.00000000    0.00000000
     atom    5 type  2   force =     0.00000000    0.00000000    0.00000000
     atom    6 type  2   force =     0.00000000    0.00000000    0.00000000
     atom    7 type  1   force =     0.00000000    0.00000000    0.00000000
     atom    8 type  2   force =     0.00000000    0.00000000    0.00000000
     atom    9 type  2   force =     0.00000000    0.00000000    0.00000000
     atom   10 type  1   force =     0.00000000    0.00000000    0.00000000
     atom   11 type  2   force =     0.00000000    0.00000000    0.00000000
     atom   12 type  2   force =     0.00000000    0.00000000    0.00000000
     atom   13 type  1   force =     0.00000000    0.00000000    0.00000000
     atom   14 type  2   force =     0.00000000    0.00000000    0.00000000
     atom   15 type  2   force =     0.00000000    0.00000000    0.00000000
     atom   16 type  1   force =     0.00000000    0.00000000    0.00000000
     atom   17 type  2   force =     0.00000000    0.00000000    0.00000000
     atom   18 type  2   force =     0.00000000    0.00000000    0.00000000
     atom   19 type  1   force =     0.00000000    0.00000000    0.00000000
     atom   20 type  2   force =     0.00000000    0.00000000    0.00000000
     atom   21 type  1   force =     0.00000000    0.00000000    0.00000000
     atom   22 type  2   force =     0.00000000    0.00000000    0.00000000
     atom   23 type  2   force =     0.00000000    0.00000000    0.00000000
     atom   24 type  1   force =     0.00000000    0.00000000    0.00000000
     atom   25 type  2   force =     0.00000000    0.00000000    0.00000000
     atom   26 type  2   force =     0.00000000    0.00000000    0.00000000
     atom   27 type  1   force =     0.00000000    0.00000000    0.00000000
     atom   28 type  2   force =     0.00000000    0.00000000    0.00000000
     atom   29 type  2   force =     0.00000000    0.00000000    0.00000000
     atom   30 type  1   force =     0.00000000    0.00000000    0.00000000
     atom   31 type  2   force =     0.00000000    0.00000000    0.00000000
     atom   32 type  2   force =     0.00000000    0.00000000    0.00000000
     atom   33 type  1   force =     0.00000000    0.00000000    0.00000000
     atom   34 type  2   force =     0.00000000    0.00000000    0.00000000
     atom   35 type  2   force =     0.00000000    0.00000000    0.00000000
     atom   36 type  3   force =     0.00000000    0.00000000    0.00000000
     The SCF correction term to forces
     atom    1 type  1   force =    -0.00013993    0.00010844    0.00043398
     atom    2 type  2   force =     0.00002155    0.00000043    0.00033033
     atom    3 type  2   force =    -0.00000663   -0.00000107    0.00019267
     atom    4 type  1   force =    -0.00028904   -0.00017334    0.00046926
     atom    5 type  2   force =    -0.00009190   -0.00003104    0.00007719
     atom    6 type  2   force =    -0.00014906    0.00005666    0.00030993
     atom    7 type  1   force =    -0.00014907   -0.00006556    0.00041848
     atom    8 type  2   force =     0.00002686   -0.00006477    0.00023518
     atom    9 type  2   force =     0.00000224   -0.00005481    0.00008739
     atom   10 type  1   force =     0.00007392    0.00012427    0.00050666
     atom   11 type  2   force =    -0.00003351    0.00013471    0.00023301
     atom   12 type  2   force =    -0.00001152    0.00010899    0.00016896
     atom   13 type  1   force =     0.00017809    0.00009201    0.00044161
     atom   14 type  2   force =     0.00001494    0.00002302    0.00028140
     atom   15 type  2   force =     0.00001675    0.00003135    0.00019299
     atom   16 type  1   force =    -0.00010429   -0.00017066    0.00050024
     atom   17 type  2   force =     0.00012292    0.00006744    0.00010588
     atom   18 type  2   force =     0.00014638    0.00009362    0.00028887
     atom   19 type  1   force =     0.00005465   -0.00015366    0.00055183
     atom   20 type  2   force =    -0.00008567   -0.00017227    0.00028968
     atom   21 type  1   force =    -0.00002107    0.00000386    0.00052213
     atom   22 type  2   force =     0.00002823    0.00001283    0.00018370
     atom   23 type  2   force =     0.00000457   -0.00001015    0.00023407
     atom   24 type  1   force =    -0.00006549   -0.00012466    0.00052540
     atom   25 type  2   force =    -0.00004170   -0.00000055    0.00033591
     atom   26 type  2   force =    -0.00000535    0.00001272    0.00017388
     atom   27 type  1   force =     0.00034036    0.00001855    0.00043774
     atom   28 type  2   force =    -0.00000504   -0.00007727    0.00030362
     atom   29 type  2   force =    -0.00000194   -0.00000348    0.00015309
     atom   30 type  1   force =     0.00010259    0.00014891    0.00036964
     atom   31 type  2   force =     0.00012136   -0.00002314    0.00018510
     atom   32 type  2   force =     0.00007826   -0.00002016    0.00016218
     atom   33 type  1   force =    -0.00002482    0.00000434    0.00049496
     atom   34 type  2   force =    -0.00001190    0.00011783    0.00026869
     atom   35 type  2   force =     0.00000483    0.00003159    0.00017791
     atom   36 type  3   force =    -0.00007269   -0.00001336    0.00015220

     Total force =     0.167073     Total SCF correction =     0.002149

     BFGS Geometry Optimization
     Energy error            =      0.0E+00 Ry
     Gradient error          =      1.1E-01 Ry/Bohr

     number of scf cycles    =   1
     number of bfgs steps    =   0

     energy             new  =   -2246.2370813707 Ry

     new trust radius        =       0.1119532374 bohr
     new conv_thr            =       0.0000010000 Ry


ATOMIC_POSITIONS (angstrom)
Mo            6.5848171988        1.7748663019        2.8252281031
S             8.1683784658        0.8191415624        4.4334240050
S             8.1872806117        0.8161885944        1.2776620568
Mo            8.0982711561        4.4947256230        2.7186193735
S             6.4973647425        3.7164479337        4.3417356241
S             6.5538802282        3.5173199886        1.1211816724
Mo            6.4999204402        7.2108149823        2.6936432018
S             8.0814521320        6.3453445852        4.2485176166
S             8.0871265624        6.3076546152        1.0896677411
Mo            8.1534379086        9.9059201384        2.8296288247
S             6.5005705089        8.9434154718        4.3768271548
S             6.6165685433        9.0492532988        1.1430685283
Mo            3.4225838857        1.7505807460        2.7729385545
S             4.9794754669        0.8180443800        4.3574260184
S             5.0509471997        0.8478911179        1.2207500046
Mo            4.9825412332        4.5148738451        2.6594337101
S             3.4330978892        3.6685153295        4.2790630795
S             3.4361688856        3.5448187369        1.0654809767
Mo            3.4493257652        7.2117077147        2.6437912562
S             4.9842940167        6.3248728927        1.0388562049
Mo            5.0092970346        9.9054730839        2.7454933305
S             3.4678295423        8.9444062254        4.3219995233
S             3.4088002353        9.0656606471        1.1010458558
Mo            0.2907728242        1.7463859254        2.8370873083
S             1.8596102914        0.8028501776        4.4004207892
S             1.8546496451        0.8541879063        1.2085431828
Mo            1.8596337230        4.4955152388        2.6640337491
S             0.2726267189        3.6538893943        4.3356063923
S             0.2327549683        3.5274008237        1.1700370649
Mo            0.2695618147        7.2141655754        2.7048827949
S             1.9028392921        6.3161732567        4.2273609780
S             1.8580338125        6.3143004040        1.0492133942
Mo            1.8519096514        9.9348713773        2.7687536383
S             0.2971601231        9.0673173485        4.4072955989
S             0.2723858720        9.0502809142        1.1570544753
O             5.2507341776        6.0772813643        5.2905510367



     Writing config-only to output data dir ./MoS2-V-O.save/
     NEW-OLD atomic charge density approx. for the potential

     negative rho (up, down):  2.065E-04 0.000E+00

     total cpu time spent up to now is      159.4 secs

     Self-consistent Calculation

     iteration #  1     ecut=    80.00 Ry     beta= 0.70
     Davidson diagonalization with overlap
     ethr =  1.00E-06,  avg # of iterations =  8.0

     negative rho (up, down):  9.804E-05 0.000E+00

     total cpu time spent up to now is      173.6 secs

     total energy              =   -2246.26164129 Ry
     estimated scf accuracy    <       0.00564049 Ry

     iteration #  2     ecut=    80.00 Ry     beta= 0.70
     Davidson diagonalization with overlap
     ethr =  1.81E-06,  avg # of iterations =  7.0

     negative rho (up, down):  1.122E-04 0.000E+00

     total cpu time spent up to now is      185.7 secs

     total energy              =   -2246.26102497 Ry
     estimated scf accuracy    <       0.05961628 Ry

     iteration #  3     ecut=    80.00 Ry     beta= 0.70
     Davidson diagonalization with overlap
     ethr =  1.81E-06,  avg # of iterations =  4.0

     negative rho (up, down):  2.209E-05 0.000E+00

     total cpu time spent up to now is      203.9 secs

     total energy              =   -2246.26291504 Ry
     estimated scf accuracy    <       0.00079838 Ry

     iteration #  4     ecut=    80.00 Ry     beta= 0.70
     Davidson diagonalization with overlap
     ethr =  2.56E-07,  avg # of iterations =  5.0

     negative rho (up, down):  1.408E-05 0.000E+00

     total cpu time spent up to now is      216.2 secs

     total energy              =   -2246.26298464 Ry
     estimated scf accuracy    <       0.00002328 Ry

     iteration #  5     ecut=    80.00 Ry     beta= 0.70
     Davidson diagonalization with overlap
     ethr =  7.46E-09,  avg # of iterations =  7.0

     negative rho (up, down):  1.201E-05 0.000E+00

     total cpu time spent up to now is      231.2 secs

     total energy              =   -2246.26299726 Ry
     estimated scf accuracy    <       0.00000781 Ry

     iteration #  6     ecut=    80.00 Ry     beta= 0.70
     Davidson diagonalization with overlap
     ethr =  2.50E-09,  avg # of iterations =  2.0

     negative rho (up, down):  1.117E-05 0.000E+00

     total cpu time spent up to now is      245.4 secs

     total energy              =   -2246.26299791 Ry
     estimated scf accuracy    <       0.00000482 Ry

     iteration #  7     ecut=    80.00 Ry     beta= 0.70
     Davidson diagonalization with overlap
     ethr =  1.54E-09,  avg # of iterations =  2.0

     negative rho (up, down):  1.460E-05 0.000E+00

     total cpu time spent up to now is      259.1 secs

     total energy              =   -2246.26299855 Ry
     estimated scf accuracy    <       0.00000347 Ry

     iteration #  8     ecut=    80.00 Ry     beta= 0.70
     Davidson diagonalization with overlap
     ethr =  1.11E-09,  avg # of iterations =  1.0

     negative rho (up, down):  1.443E-04 0.000E+00

     total cpu time spent up to now is      264.5 secs

     End of self-consistent calculation

          k = 0.0000 0.0000 0.0000 (105382 PWs)   bands (ev):

   -63.1272 -63.0852 -63.0678 -63.0471 -63.0360 -63.0350 -63.0216 -63.0130
   -63.0120 -63.0057 -63.0007 -62.9698 -37.4493 -37.3904 -37.3540 -37.3379
   -37.3245 -37.3115 -37.3045 -37.2917 -37.2698 -37.2550 -37.2539 -37.2482
   -37.2394 -37.2270 -37.2184 -37.2159 -37.2142 -37.2111 -37.2052 -37.2014
   -37.1958 -37.1900 -37.1815 -37.1761 -37.1488 -37.1425 -37.1063 -37.1009
   -37.0951 -37.0848 -37.0765 -37.0708 -37.0367 -37.0178 -37.0114 -36.9710
   -16.7858 -16.1205 -15.3386 -15.3032 -15.1306 -15.0665 -14.9448 -14.6555
   -14.6307 -14.6010 -14.5632 -14.5529 -14.5052 -14.4928 -14.4350 -14.2933
   -14.2793 -14.2668 -14.2512 -14.1722 -14.0379 -14.0261 -14.0059 -13.9374
    -7.8146  -7.6512  -7.4585  -7.4467  -7.4120  -7.3764  -7.3546  -7.2977
    -6.9944  -6.9862  -6.9214  -6.8897  -6.8216  -6.6766  -6.6495  -6.5944
    -6.5595  -6.4441  -6.3997  -6.1377  -6.0665  -6.0581  -5.9744  -5.9650
    -5.9277  -5.9087  -5.8713  -5.8178  -5.8095  -5.7788  -5.6947  -5.6674
    -5.6037  -5.5713  -5.5335  -5.3296  -5.2842  -5.2098  -5.1781  -5.1541
    -5.0934  -5.0681  -5.0081  -4.8185  -4.7007  -4.4969  -4.4617  -4.4108
    -4.4003  -4.3300  -4.2238  -4.1358  -3.9647  -3.9572  -3.9116  -3.8718
    -3.8404  -3.8103  -3.7106  -3.6834  -3.6773  -3.6477  -3.6374  -3.6105
    -3.5464  -3.5289  -3.3726  -3.2825  -3.1566  -3.0564  -3.0392  -2.9474
    -2.9422  -2.8796  -2.8613  -2.8327  -2.8066  -2.7932  -2.7300  -2.3835
    -2.1840  -2.1669  -1.9213  -1.8669  -1.3534  -0.8620  -0.8275  -0.3537
    -0.3159  -0.2423  -0.1640  -0.1289  -0.0424  -0.0035   0.0542   0.1128
     0.1235   0.2058   0.2380   0.2678   0.3477   0.3721   0.3876   0.4005
     0.5044   0.5517   0.5609   0.6000   0.6266   0.6575   0.7047   0.7387
     0.8139   0.8607   0.8711

     the Fermi energy is    -1.6078 ev

!    total energy              =   -2246.26299890 Ry
     estimated scf accuracy    <       0.00000098 Ry
     smearing contrib. (-TS)   =      -0.00034931 Ry
     internal energy E=F+TS    =   -2246.26264959 Ry

     The total energy is F=E-TS. E is the sum of the following terms:
     one-electron contribution =  -18438.92668269 Ry
     hartree contribution      =    9206.96817876 Ry
     xc contribution           =    -391.64322013 Ry
     ewald contribution        =    7387.21538880 Ry
     one-center paw contrib.   =      -9.87631433 Ry

     convergence has been achieved in   8 iterations

     negative rho (up, down):  1.443E-04 0.000E+00

     Forces acting on atoms (cartesian axes, Ry/au):

     atom    1 type  1   force =     0.00575153   -0.01265021   -0.00218734
     atom    2 type  2   force =    -0.00932497    0.01119688   -0.00361597
     atom    3 type  2   force =    -0.00983414    0.00693185   -0.00741098
     atom    4 type  1   force =     0.00570083    0.00007986    0.00100724
     atom    5 type  2   force =     0.00165205   -0.01398931   -0.00390415
     atom    6 type  2   force =    -0.00093682    0.00871475    0.00620340
     atom    7 type  1   force =     0.00885699   -0.01054672    0.02684737
     atom    8 type  2   force =     0.00387777   -0.00221429    0.01472442
     atom    9 type  2   force =     0.00874090    0.00465304    0.01131651
     atom   10 type  1   force =    -0.00517028    0.00646901   -0.01053527
     atom   11 type  2   force =     0.00913744    0.00392273   -0.00847836
     atom   12 type  2   force =    -0.00559721   -0.00304600    0.00699111
     atom   13 type  1   force =     0.00290754    0.00372461   -0.00309921
     atom   14 type  2   force =     0.00619721    0.00231575    0.00893064
     atom   15 type  2   force =    -0.00913064    0.00267145   -0.00802485
     atom   16 type  1   force =     0.00410318    0.00443876    0.03284444
     atom   17 type  2   force =     0.00493275   -0.00660320    0.00344195
     atom   18 type  2   force =     0.00008248   -0.00168106    0.01544107
     atom   19 type  1   force =    -0.00201965   -0.00669830    0.01705342
     atom   20 type  2   force =     0.00320773   -0.00384641    0.01423687
     atom   21 type  1   force =    -0.00382681    0.00429158    0.00291139
     atom   22 type  2   force =    -0.00467690    0.00246664   -0.00329321
     atom   23 type  2   force =     0.00240023   -0.00185199    0.00833926
     atom   24 type  1   force =    -0.00573673   -0.00112712   -0.00987351
     atom   25 type  2   force =     0.01146685    0.01434799   -0.00233394
     atom   26 type  2   force =    -0.00781201   -0.00157276   -0.00275581
     atom   27 type  1   force =    -0.00123381   -0.00014536    0.00572773
     atom   28 type  2   force =     0.00039459   -0.00262139   -0.00374377
     atom   29 type  2   force =     0.00249143    0.00225411   -0.00410017
     atom   30 type  1   force =    -0.00225678   -0.00368123    0.00499470
     atom   31 type  2   force =    -0.00156149    0.00226753    0.01099939
     atom   32 type  2   force =    -0.00578642    0.00597870    0.00956394
     atom   33 type  1   force =     0.00645451   -0.00387293   -0.00002916
     atom   34 type  2   force =    -0.00037063   -0.03155142   -0.01538777
     atom   35 type  2   force =    -0.00628438    0.00916856    0.00885140
     atom   36 type  3   force =    -0.00679633    0.01180589   -0.12165275
     The non-local contrib.  to forces
     atom    1 type  1   force =     0.00790213    0.03482940   -0.00601610
     atom    2 type  2   force =    -0.00589646   -0.00591881   -0.27615863
     atom    3 type  2   force =    -0.01027398   -0.00561671    0.26157912
     atom    4 type  1   force =    -0.00711062    0.01078438    0.00566281
     atom    5 type  2   force =     0.01241655   -0.02361854   -0.28182935
     atom    6 type  2   force =    -0.00992559    0.00694070    0.27094774
     atom    7 type  1   force =     0.00115813   -0.00325095   -0.01840894
     atom    8 type  2   force =     0.00314127   -0.01952678   -0.26838853
     atom    9 type  2   force =     0.00727172   -0.00116170    0.27968193
     atom   10 type  1   force =    -0.00019983    0.01527111   -0.00241866
     atom   11 type  2   force =     0.01312516    0.01181450   -0.27137438
     atom   12 type  2   force =    -0.01108843   -0.02099184    0.26707173
     atom   13 type  1   force =    -0.00496742    0.02140132   -0.00316442
     atom   14 type  2   force =     0.00898235   -0.01235028   -0.27000779
     atom   15 type  2   force =    -0.01116978   -0.00905355    0.26092268
     atom   16 type  1   force =     0.00159496    0.00726697   -0.02991942
     atom   17 type  2   force =    -0.00283714   -0.03049460   -0.26891651
     atom   18 type  2   force =     0.00279473   -0.00312218    0.27787269
     atom   19 type  1   force =    -0.00922392    0.00128576   -0.02300420
     atom   20 type  2   force =    -0.00054989   -0.01948227    0.26741172
     atom   21 type  1   force =     0.00280917    0.02400965    0.00755770
     atom   22 type  2   force =    -0.00799644    0.00816736   -0.26531099
     atom   23 type  2   force =     0.00408698   -0.02148150    0.27068132
     atom   24 type  1   force =     0.00289346    0.00923847   -0.01193510
     atom   25 type  2   force =     0.00548616   -0.00272332   -0.27015397
     atom   26 type  2   force =    -0.00065506   -0.01427216    0.26060187
     atom   27 type  1   force =    -0.00068166    0.00986581    0.00895253
     atom   28 type  2   force =    -0.00430600   -0.01951971   -0.27208919
     atom   29 type  2   force =     0.00748272    0.00398109    0.26147528
     atom   30 type  1   force =    -0.00062268    0.01253450    0.00122735
     atom   31 type  2   force =    -0.00946156   -0.00770090   -0.25890744
     atom   32 type  2   force =    -0.00111744   -0.00166848    0.27428027
     atom   33 type  1   force =    -0.00251847    0.01716482    0.00352415
     atom   34 type  2   force =    -0.00210313   -0.02956820   -0.27865726
     atom   35 type  2   force =    -0.00153517   -0.01496173    0.26988005
     atom   36 type  3   force =    -0.00150181    0.00228049   -0.61398888
     The ionic contribution  to forces
     atom    1 type  1   force =     0.36483485   -0.27311473    4.30869400
     atom    2 type  2   force =    -0.28002247    0.20898461   39.17907445
     atom    3 type  2   force =    -0.08002967   -0.01283474  -36.73475981
     atom    4 type  1   force =     1.25103223   -0.40714837   -1.50649163
     atom    5 type  2   force =     0.13877042   -0.53514340   37.81577758
     atom    6 type  2   force =     0.31747597   -0.72962156  -38.78710208
     atom    7 type  1   force =    -1.31324117   -0.99799414   -1.15050425
     atom    8 type  2   force =     0.79762425    0.13810098   36.71040986
     atom    9 type  2   force =     0.44974645    0.01682686  -38.87031228
     atom   10 type  1   force =    -0.35360516    0.33377719    4.03366357
     atom   11 type  2   force =     0.05800122   -0.01979491   38.50842883
     atom   12 type  2   force =     0.41280421    0.74840068  -38.57340151
     atom   13 type  1   force =     0.10756719    0.22434779    1.41988808
     atom   14 type  2   force =    -0.05071329   -0.09476682   38.33235084
     atom   15 type  2   force =     0.15348069   -0.05405647  -37.44336963
     atom   16 type  1   force =    -0.43660646    1.70754349   -3.17703126
     atom   17 type  2   force =    -0.28175661    0.05912192   37.26386001
     atom   18 type  2   force =    -0.17612454   -0.74316530  -39.25685296
     atom   19 type  1   force =     1.25463508   -1.19702326   -2.53896036
     atom   20 type  2   force =     0.19390848   -0.12566209  -39.61263473
     atom   21 type  1   force =    -0.05942656    1.10639310   -0.40966301
     atom   22 type  2   force =    -0.19400427   -0.48626004   37.92553221
     atom   23 type  2   force =    -0.13141192    0.76227780  -38.98293662
     atom   24 type  1   force =    -0.23521591    0.61218073    4.50516137
     atom   25 type  2   force =     0.38189775    0.16849691   39.03352327
     atom   26 type  2   force =    -0.28507122    0.01455714  -37.80342520
     atom   27 type  1   force =    -0.77457229   -0.31551574   -3.94229589
     atom   28 type  2   force =     0.16667974    0.51022000   37.93900036
     atom   29 type  2   force =    -0.20958476   -0.50637746  -37.93070431
     atom   30 type  1   force =    -0.09306015   -0.39992379   -1.57228912
     atom   31 type  2   force =     0.09586281   -0.00262370   36.83031754
     atom   32 type  2   force =    -0.55275327    0.01757313  -39.40122114
     atom   33 type  1   force =     0.22562351   -0.03306861    0.93475868
     atom   34 type  2   force =     0.25444657   -0.80388492   39.01052745
     atom   35 type  2   force =    -0.23201079    0.56489107  -38.31631473
     atom   36 type  3   force =    -0.88518091    0.54428667   42.25930242
     The local contribution  to forces
     atom    1 type  1   force =    -0.36698080    0.22554350   -4.30549527
     atom    2 type  2   force =     0.27642115   -0.19205998  -38.92816343
     atom    3 type  2   force =     0.08001183    0.02515963   36.48646349
     atom    4 type  1   force =    -1.23819488    0.39636109    1.50111758
     atom    5 type  2   force =    -0.14829940    0.54244780  -37.56077700
     atom    6 type  2   force =    -0.30909778    0.73229278   38.54349687
     atom    7 type  1   force =     1.32094223    0.99079494    1.19487994
     atom    8 type  2   force =    -0.79606165   -0.12175122  -36.44957386
     atom    9 type  2   force =    -0.44805574   -0.01113705   38.62315481
     atom   10 type  1   force =     0.34867864   -0.34247812   -4.04243594
     atom   11 type  2   force =    -0.06109791    0.01319562  -38.26772241
     atom   12 type  2   force =    -0.40825649   -0.73182683   38.33435111
     atom   13 type  1   force =    -0.09972473   -0.24208798   -1.42041964
     atom   14 type  2   force =     0.04843187    0.10918838  -38.07489859
     atom   15 type  2   force =    -0.15213621    0.06522626   37.19499412
     atom   16 type  1   force =     0.43900504   -1.71047004    3.23890995
     atom   17 type  2   force =     0.28908346   -0.03735379  -37.01370897
     atom   18 type  2   force =     0.17360567    0.74500228   39.01570910
     atom   19 type  1   force =    -1.24749107    1.18907009    2.57826748
     atom   20 type  2   force =    -0.19039716    0.14051622   39.38085218
     atom   21 type  1   force =     0.05276648   -1.12600617    0.40432204
     atom   22 type  2   force =     0.19680864    0.48154507  -37.68535744
     atom   23 type  2   force =     0.13004910   -0.74418455   38.74169540
     atom   24 type  1   force =     0.22659353   -0.62259047   -4.50364490
     atom   25 type  2   force =    -0.37591295   -0.15137563  -38.78727742
     atom   26 type  2   force =     0.27815253   -0.00258840   37.56084016
     atom   27 type  1   force =     0.77408388    0.30547496    3.93844046
     atom   28 type  2   force =    -0.16222647   -0.49487388  -37.69202913
     atom   29 type  2   force =     0.20518929    0.50528336   37.68564587
     atom   30 type  1   force =     0.09148758    0.38378666    1.57542321
     atom   31 type  2   force =    -0.08881549    0.01231349  -36.58217378
     atom   32 type  2   force =     0.54833029   -0.01007177   39.15766300
     atom   33 type  1   force =    -0.21664662    0.01206615   -0.93888902
     atom   34 type  2   force =    -0.25304176    0.80094831  -38.76914988
     atom   35 type  2   force =     0.22734827   -0.54185701   38.07638854
     atom   36 type  3   force =     0.87981592   -0.53471747  -41.77463421
     The core correction contribution to forces
     atom    1 type  1   force =     0.00000000    0.00000000    0.00000000
     atom    2 type  2   force =     0.00016420    0.00020495    0.02114906
     atom    3 type  2   force =     0.00044646    0.00020362   -0.02064686
     atom    4 type  1   force =     0.00000000    0.00000000    0.00000000
     atom    5 type  2   force =    -0.00118319    0.00213419    0.02231333
     atom    6 type  2   force =     0.00060277   -0.00089860   -0.02111298
     atom    7 type  1   force =     0.00000000    0.00000000    0.00000000
     atom    8 type  2   force =    -0.00067472    0.00101104    0.02167107
     atom    9 type  2   force =    -0.00020081    0.00012260   -0.02117224
     atom   10 type  1   force =     0.00000000    0.00000000    0.00000000
     atom   11 type  2   force =    -0.00082247   -0.00114891    0.02163136
     atom   12 type  2   force =     0.00095666    0.00142950   -0.02100751
     atom   13 type  1   force =     0.00000000    0.00000000    0.00000000
     atom   14 type  2   force =    -0.00050683    0.00022958    0.02099500
     atom   15 type  2   force =     0.00068029    0.00052797   -0.02054637
     atom   16 type  1   force =     0.00000000    0.00000000    0.00000000
     atom   17 type  2   force =     0.00038751    0.00199658    0.02161625
     atom   18 type  2   force =    -0.00018722   -0.00041930   -0.02122545
     atom   19 type  1   force =     0.00000000    0.00000000    0.00000000
     atom   20 type  2   force =     0.00020233    0.00076183   -0.02132462
     atom   21 type  1   force =     0.00000000    0.00000000    0.00000000
     atom   22 type  2   force =     0.00042667   -0.00089355    0.02127073
     atom   23 type  2   force =    -0.00033071    0.00154551   -0.02103821
     atom   24 type  1   force =     0.00000000    0.00000000    0.00000000
     atom   25 type  2   force =     0.00001032   -0.00004390    0.02113241
     atom   26 type  2   force =    -0.00021856    0.00073227   -0.02074629
     atom   27 type  1   force =     0.00000000    0.00000000    0.00000000
     atom   28 type  2   force =     0.00025978    0.00148819    0.02090627
     atom   29 type  2   force =    -0.00060424   -0.00065826   -0.02047910
     atom   30 type  1   force =     0.00000000    0.00000000    0.00000000
     atom   31 type  2   force =     0.00079898    0.00032617    0.02117927
     atom   32 type  2   force =    -0.00021970    0.00016985   -0.02108306
     atom   33 type  1   force =     0.00000000    0.00000000    0.00000000
     atom   34 type  2   force =     0.00035714    0.00096605    0.02141597
     atom   35 type  2   force =    -0.00009726    0.00111916   -0.02106722
     atom   36 type  3   force =     0.00006459   -0.00007450    0.00710340
     The Hubbard contrib.    to forces
     atom    1 type  1   force =     0.00000000    0.00000000    0.00000000
     atom    2 type  2   force =     0.00000000    0.00000000    0.00000000
     atom    3 type  2   force =     0.00000000    0.00000000    0.00000000
     atom    4 type  1   force =     0.00000000    0.00000000    0.00000000
     atom    5 type  2   force =     0.00000000    0.00000000    0.00000000
     atom    6 type  2   force =     0.00000000    0.00000000    0.00000000
     atom    7 type  1   force =     0.00000000    0.00000000    0.00000000
     atom    8 type  2   force =     0.00000000    0.00000000    0.00000000
     atom    9 type  2   force =     0.00000000    0.00000000    0.00000000
     atom   10 type  1   force =     0.00000000    0.00000000    0.00000000
     atom   11 type  2   force =     0.00000000    0.00000000    0.00000000
     atom   12 type  2   force =     0.00000000    0.00000000    0.00000000
     atom   13 type  1   force =     0.00000000    0.00000000    0.00000000
     atom   14 type  2   force =     0.00000000    0.00000000    0.00000000
     atom   15 type  2   force =     0.00000000    0.00000000    0.00000000
     atom   16 type  1   force =     0.00000000    0.00000000    0.00000000
     atom   17 type  2   force =     0.00000000    0.00000000    0.00000000
     atom   18 type  2   force =     0.00000000    0.00000000    0.00000000
     atom   19 type  1   force =     0.00000000    0.00000000    0.00000000
     atom   20 type  2   force =     0.00000000    0.00000000    0.00000000
     atom   21 type  1   force =     0.00000000    0.00000000    0.00000000
     atom   22 type  2   force =     0.00000000    0.00000000    0.00000000
     atom   23 type  2   force =     0.00000000    0.00000000    0.00000000
     atom   24 type  1   force =     0.00000000    0.00000000    0.00000000
     atom   25 type  2   force =     0.00000000    0.00000000    0.00000000
     atom   26 type  2   force =     0.00000000    0.00000000    0.00000000
     atom   27 type  1   force =     0.00000000    0.00000000    0.00000000
     atom   28 type  2   force =     0.00000000    0.00000000    0.00000000
     atom   29 type  2   force =     0.00000000    0.00000000    0.00000000
     atom   30 type  1   force =     0.00000000    0.00000000    0.00000000
     atom   31 type  2   force =     0.00000000    0.00000000    0.00000000
     atom   32 type  2   force =     0.00000000    0.00000000    0.00000000
     atom   33 type  1   force =     0.00000000    0.00000000    0.00000000
     atom   34 type  2   force =     0.00000000    0.00000000    0.00000000
     atom   35 type  2   force =     0.00000000    0.00000000    0.00000000
     atom   36 type  3   force =     0.00000000    0.00000000    0.00000000
     The SCF correction term to forces
     atom    1 type  1   force =    -0.00000489    0.00009054    0.00061404
     atom    2 type  2   force =     0.00000837   -0.00001497    0.00046657
     atom    3 type  2   force =     0.00001097    0.00001896   -0.00006291
     atom    4 type  1   force =    -0.00002614    0.00008167    0.00070248
     atom    5 type  2   force =    -0.00005257    0.00018956    0.00059528
     atom    6 type  2   force =     0.00000756    0.00000036   -0.00004215
     atom    7 type  1   force =    -0.00000244   -0.00009764    0.00086463
     atom    8 type  2   force =    -0.00015163   -0.00004939    0.00058988
     atom    9 type  2   force =    -0.00002096    0.00000124   -0.00005171
     atom   10 type  1   force =    -0.00004417   -0.00010224    0.00063976
     atom   11 type  2   force =    -0.00006881   -0.00014466    0.00054225
     atom   12 type  2   force =    -0.00001340   -0.00005860   -0.00003871
     atom   13 type  1   force =     0.00003226    0.00006240    0.00058077
     atom   14 type  2   force =     0.00000288    0.00001381    0.00047519
     atom   15 type  2   force =     0.00001414    0.00002615   -0.00004164
     atom   16 type  1   force =     0.00010939    0.00009725    0.00086917
     atom   17 type  2   force =     0.00005529    0.00012560    0.00057518
     atom   18 type  2   force =    -0.00000641    0.00002236   -0.00007830
     atom   19 type  1   force =     0.00006002   -0.00003196    0.00073450
     atom   20 type  2   force =     0.00004373    0.00001882   -0.00008368
     atom   21 type  1   force =     0.00002386   -0.00010609    0.00067867
     atom   22 type  2   force =     0.00008826   -0.00009328    0.00055628
     atom   23 type  2   force =     0.00000654   -0.00001033   -0.00007863
     atom   24 type  1   force =    -0.00000806    0.00004306    0.00052912
     atom   25 type  2   force =    -0.00001467   -0.00000716    0.00042577
     atom   26 type  2   force =    -0.00001994   -0.00000271   -0.00004235
     atom   27 type  1   force =    -0.00006399    0.00002852    0.00061464
     atom   28 type  2   force =    -0.00001270    0.00006293    0.00045192
     atom   29 type  2   force =     0.00000818    0.00002429   -0.00005391
     atom   30 type  1   force =    -0.00006178   -0.00007968    0.00061728
     atom   31 type  2   force =     0.00005352   -0.00004860    0.00056780
     atom   32 type  2   force =    -0.00002654   -0.00002511   -0.00009112
     atom   33 type  1   force =    -0.00000417   -0.00003637    0.00056103
     atom   34 type  2   force =    -0.00002969   -0.00001375    0.00045995
     atom   35 type  2   force =     0.00001032   -0.00002402   -0.00005124
     atom   36 type  3   force =     0.00000564    0.00002962    0.00054852

     Total force =     0.150698     Total SCF correction =     0.003011
     Energy error            =      2.6E-02 Ry
     Gradient error          =      1.2E-01 Ry/Bohr

     number of scf cycles    =   2
     number of bfgs steps    =   1

     energy             old  =   -2246.2370813707 Ry
     energy             new  =   -2246.2629988984 Ry

     CASE: energy            _new < energy            _old


     WARNING: bfgs curvature condition failed, Theta= 0.936
     new trust radius        =       0.1231485611 bohr
     new conv_thr            =       0.0000001217 Ry


ATOMIC_POSITIONS (angstrom)
Mo            6.5908082445        1.7654639185        2.8250981832
S             8.1619201842        0.8266749239        4.4317477550
S             8.1815784247        0.8205018514        1.2750336697
Mo            8.1014428509        4.4946233576        2.7192782716
S             6.4969356180        3.7093163038        4.3384693242
S             6.5537664948        3.5224934505        1.1232706985
Mo            6.5068474166        7.2042149568        2.7113658249
S             8.0826742513        6.3451617982        4.2559375653
S             8.0925541494        6.3104057844        1.0958205285
Mo            8.1488544887        9.9096022763        2.8206023509
S             6.5058186890        8.9449520838        4.3714624293
S             6.6141093548        9.0484207376        1.1467033495
Mo            3.4239427624        1.7532766949        2.7704932141
S             4.9832875390        0.8192703173        4.3631863521
S             5.0451207660        0.8494448224        1.2156855792
Mo            4.9850381739        4.5170598400        2.6810877817
S             3.4368465761        3.6650436292        4.2799905810
S             3.4355116927        3.5429077797        1.0735667041
Mo            3.4468580434        7.2076037075        2.6547720907
S             4.9858089128        6.3227477911        1.0443661412
Mo            5.0068235301        9.9084605900        2.7473106529
S             3.4650012085        8.9455085146        4.3194644881
S             3.4097686559        9.0652879126        1.1058538296
Mo            0.2867243538        1.7455596589        2.8288652128
S             1.8671229710        0.8117454993        4.4004856675
S             1.8495635441        0.8535553541        1.2072623901
Mo            1.8587966995        4.4954060890        2.6674994684
S             0.2729236173        3.6527909775        4.3335484564
S             0.2342057449        3.5282332437        1.1678556781
Mo            0.2681654652        7.2119323285        2.7078427438
S             1.9025389465        6.3182714509        4.2330575497
S             1.8544039450        6.3178992448        1.0543148275
Mo            1.8570829526        9.9314816590        2.7671029629
S             0.2975210769        9.0476206561        4.3994455062
S             0.2685143380        9.0560689519        1.1626940135
O             5.2472208849        6.0835493660        5.2257809778



     Writing config-only to output data dir ./MoS2-V-O.save/
     NEW-OLD atomic charge density approx. for the potential

     negative rho (up, down):  2.054E-04 0.000E+00

     total cpu time spent up to now is      273.4 secs

     Self-consistent Calculation

     iteration #  1     ecut=    80.00 Ry     beta= 0.70
     Davidson diagonalization with overlap
     ethr =  1.00E-06,  avg # of iterations =  7.0

     negative rho (up, down):  1.206E-04 0.000E+00

     total cpu time spent up to now is      291.7 secs

     total energy              =   -2246.28405643 Ry
     estimated scf accuracy    <       0.00774112 Ry

     iteration #  2     ecut=    80.00 Ry     beta= 0.70
     Davidson diagonalization with overlap
     ethr =  2.48E-06,  avg # of iterations =  7.0

     negative rho (up, down):  1.447E-04 0.000E+00

     total cpu time spent up to now is      308.0 secs

     total energy              =   -2246.28330926 Ry
     estimated scf accuracy    <       0.08664289 Ry

     iteration #  3     ecut=    80.00 Ry     beta= 0.70
     Davidson diagonalization with overlap
     ethr =  2.48E-06,  avg # of iterations =  5.0

     negative rho (up, down):  3.715E-05 0.000E+00

     total cpu time spent up to now is      325.6 secs

     total energy              =   -2246.28622090 Ry
     estimated scf accuracy    <       0.00119690 Ry

     iteration #  4     ecut=    80.00 Ry     beta= 0.70
     Davidson diagonalization with overlap
     ethr =  3.84E-07,  avg # of iterations =  5.0

     negative rho (up, down):  2.376E-05 0.000E+00

     total cpu time spent up to now is      340.2 secs

     total energy              =   -2246.28630433 Ry
     estimated scf accuracy    <       0.00002858 Ry

     iteration #  5     ecut=    80.00 Ry     beta= 0.70
     Davidson diagonalization with overlap
     ethr =  9.16E-09,  avg # of iterations =  5.0

     negative rho (up, down):  1.873E-05 0.000E+00

     total cpu time spent up to now is      352.5 secs

     total energy              =   -2246.28631800 Ry
     estimated scf accuracy    <       0.00000640 Ry

     iteration #  6     ecut=    80.00 Ry     beta= 0.70
     Davidson diagonalization with overlap
     ethr =  2.05E-09,  avg # of iterations =  5.0

     negative rho (up, down):  1.534E-05 0.000E+00

     total cpu time spent up to now is      365.7 secs

     total energy              =   -2246.28631865 Ry
     estimated scf accuracy    <       0.00000472 Ry

     iteration #  7     ecut=    80.00 Ry     beta= 0.70
     Davidson diagonalization with overlap
     ethr =  1.51E-09,  avg # of iterations =  2.0

     negative rho (up, down):  1.851E-05 0.000E+00

     total cpu time spent up to now is      379.0 secs

     total energy              =   -2246.28631923 Ry
     estimated scf accuracy    <       0.00000333 Ry

     iteration #  8     ecut=    80.00 Ry     beta= 0.70
     Davidson diagonalization with overlap
     ethr =  1.07E-09,  avg # of iterations =  1.0

     negative rho (up, down):  3.985E-05 0.000E+00

     total cpu time spent up to now is      393.2 secs

     total energy              =   -2246.28631985 Ry
     estimated scf accuracy    <       0.00000074 Ry

     iteration #  9     ecut=    80.00 Ry     beta= 0.70
     Davidson diagonalization with overlap
     ethr =  2.36E-10,  avg # of iterations =  5.0

     negative rho (up, down):  1.446E-04 0.000E+00

     total cpu time spent up to now is      398.0 secs

     End of self-consistent calculation

          k = 0.0000 0.0000 0.0000 (105382 PWs)   bands (ev):

   -63.1163 -63.0740 -63.0567 -63.0339 -63.0233 -63.0214 -63.0095 -63.0018
   -62.9998 -62.9947 -62.9904 -62.9624 -37.4361 -37.3778 -37.3410 -37.3260
   -37.3121 -37.3008 -37.2920 -37.2796 -37.2585 -37.2440 -37.2413 -37.2365
   -37.2278 -37.2155 -37.2070 -37.2040 -37.2031 -37.2004 -37.1922 -37.1899
   -37.1858 -37.1770 -37.1730 -37.1636 -37.1401 -37.1324 -37.0950 -37.0898
   -37.0852 -37.0745 -37.0661 -37.0593 -37.0234 -37.0078 -37.0016 -36.9618
   -16.8588 -16.1104 -15.3306 -15.2923 -15.1207 -15.0478 -14.9361 -14.6432
   -14.6234 -14.5797 -14.5547 -14.5459 -14.4900 -14.4790 -14.4250 -14.2803
   -14.2750 -14.2586 -14.2479 -14.1625 -14.0212 -14.0112 -13.9940 -13.9399
    -7.8023  -7.6431  -7.4568  -7.4414  -7.3919  -7.3669  -7.3453  -7.2913
    -6.9870  -6.9768  -6.9137  -6.8812  -6.8007  -6.6684  -6.6491  -6.5796
    -6.5461  -6.4374  -6.3931  -6.1292  -6.0601  -6.0464  -5.9638  -5.9511
    -5.9201  -5.9022  -5.8503  -5.8011  -5.7977  -5.7727  -5.6896  -5.6557
    -5.5939  -5.5579  -5.5263  -5.3146  -5.2727  -5.1918  -5.1655  -5.1446
    -5.0880  -5.0651  -5.0037  -4.8153  -4.6904  -4.4845  -4.4486  -4.4011
    -4.3844  -4.3280  -4.2165  -4.1210  -3.9567  -3.9513  -3.8970  -3.8510
    -3.8314  -3.8061  -3.7013  -3.6762  -3.6603  -3.6482  -3.6375  -3.6016
    -3.5325  -3.5153  -3.3757  -3.2819  -3.1730  -3.0542  -3.0359  -2.9424
    -2.9341  -2.8679  -2.8612  -2.8241  -2.7977  -2.7816  -2.7176  -2.3731
    -2.1841  -2.1615  -1.9873  -1.9338  -1.2899  -0.8063  -0.7814  -0.3373
    -0.3083  -0.2214  -0.1466  -0.1023  -0.0346   0.0073   0.0600   0.1416
     0.1461   0.2180   0.2533   0.2797   0.3612   0.3866   0.4032   0.4098
     0.5180   0.5432   0.5774   0.6035   0.6350   0.6758   0.7232   0.7529
     0.8270   0.8703   0.8777

     the Fermi energy is    -1.6104 ev

!    total energy              =   -2246.28632015 Ry
     estimated scf accuracy    <       0.00000008 Ry
     smearing contrib. (-TS)   =      -0.00004438 Ry
     internal energy E=F+TS    =   -2246.28627577 Ry

     The total energy is F=E-TS. E is the sum of the following terms:
     one-electron contribution =  -18454.97255111 Ry
     hartree contribution      =    9215.06375914 Ry
     xc contribution           =    -391.66477796 Ry
     ewald contribution        =    7395.16350010 Ry
     one-center paw contrib.   =      -9.87620594 Ry

     convergence has been achieved in   9 iterations

     negative rho (up, down):  1.446E-04 0.000E+00

     Forces acting on atoms (cartesian axes, Ry/au):

     atom    1 type  1   force =    -0.00351023   -0.00421677   -0.00514649
     atom    2 type  2   force =    -0.00461211    0.00633931   -0.00398398
     atom    3 type  2   force =    -0.00816673    0.00493631   -0.01143886
     atom    4 type  1   force =     0.00554614    0.00033132    0.00129263
     atom    5 type  2   force =     0.00669375   -0.01557825    0.00015409
     atom    6 type  2   force =    -0.00218783    0.00748397    0.00971275
     atom    7 type  1   force =     0.00219172   -0.00798844    0.01823667
     atom    8 type  2   force =     0.00689212   -0.00579173    0.01628814
     atom    9 type  2   force =     0.00600878    0.00380459    0.01098579
     atom   10 type  1   force =    -0.00030081    0.00568758   -0.00127710
     atom   11 type  2   force =     0.00797526    0.00608935   -0.00516598
     atom   12 type  2   force =    -0.00708958   -0.00551875    0.00749855
     atom   13 type  1   force =     0.00332211    0.00124287   -0.00070128
     atom   14 type  2   force =     0.00454782    0.00218655    0.00577587
     atom   15 type  2   force =    -0.00640368    0.00184295   -0.00592479
     atom   16 type  1   force =     0.00309658    0.00563694    0.02197140
     atom   17 type  2   force =     0.00097526   -0.00693635    0.00681790
     atom   18 type  2   force =     0.00241616    0.00189628    0.01573283
     atom   19 type  1   force =     0.00215882   -0.00504943    0.01254832
     atom   20 type  2   force =     0.00383324   -0.00378181    0.02039560
     atom   21 type  1   force =    -0.00243546    0.00262352    0.00222036
     atom   22 type  2   force =    -0.00347505    0.00326473   -0.00016454
     atom   23 type  2   force =     0.00318564   -0.00391126    0.00745947
     atom   24 type  1   force =    -0.00306726   -0.00006804   -0.00235395
     atom   25 type  2   force =     0.00709468    0.01042554   -0.00565093
     atom   26 type  2   force =    -0.00472171   -0.00216057   -0.00305594
     atom   27 type  1   force =    -0.00082814   -0.00003140    0.00510446
     atom   28 type  2   force =     0.00017823   -0.00361039   -0.00321953
     atom   29 type  2   force =     0.00228320    0.00339467   -0.00396797
     atom   30 type  1   force =    -0.00143381   -0.00291105    0.00424156
     atom   31 type  2   force =    -0.00325191   -0.00086352    0.01175945
     atom   32 type  2   force =    -0.00376098    0.00458754    0.00973911
     atom   33 type  1   force =     0.00110331   -0.00000959    0.00387099
     atom   34 type  2   force =    -0.00195925   -0.02213073   -0.01511724
     atom   35 type  2   force =    -0.00447226    0.00614314    0.00595431
     atom   36 type  3   force =    -0.00782603    0.01264093   -0.13059166
     The non-local contrib.  to forces
     atom    1 type  1   force =     0.01023600    0.03169622   -0.00577103
     atom    2 type  2   force =    -0.00225924   -0.00927932   -0.27458617
     atom    3 type  2   force =    -0.00801218   -0.00780831    0.25783396
     atom    4 type  1   force =    -0.00697055    0.01211440    0.00623666
     atom    5 type  2   force =     0.01678958   -0.02600354   -0.27835407
     atom    6 type  2   force =    -0.00985765    0.00412469    0.27401234
     atom    7 type  1   force =     0.00248358   -0.00205322   -0.01674908
     atom    8 type  2   force =     0.00649872   -0.02239713   -0.26560673
     atom    9 type  2   force =     0.00599783   -0.00228875    0.27889342
     atom   10 type  1   force =    -0.00125235    0.01581570   -0.00229941
     atom   11 type  2   force =     0.01127534    0.01253360   -0.26860733
     atom   12 type  2   force =    -0.01101255   -0.02173070    0.26821301
     atom   13 type  1   force =    -0.00481799    0.02210144   -0.00276477
     atom   14 type  2   force =     0.00749332   -0.01209656   -0.27138519
     atom   15 type  2   force =    -0.00894511   -0.01014381    0.26218460
     atom   16 type  1   force =     0.00157459    0.00788094   -0.02734958
     atom   17 type  2   force =    -0.00583775   -0.03018569   -0.26570698
     atom   18 type  2   force =     0.00371156   -0.00171417    0.27817973
     atom   19 type  1   force =    -0.01010725    0.00333335   -0.02150653
     atom   20 type  2   force =    -0.00038841   -0.01825845    0.27040096
     atom   21 type  1   force =     0.00207567    0.02380995    0.00732604
     atom   22 type  2   force =    -0.00622643    0.00792297   -0.26287858
     atom   23 type  2   force =     0.00403277   -0.02282236    0.27036479
     atom   24 type  1   force =     0.00146104    0.00957914   -0.01111147
     atom   25 type  2   force =     0.00214240   -0.00617420   -0.27222812
[...]
     atom   28 type  2   force =     0.00037327   -0.01247541   -0.26427812
     atom   29 type  2   force =     0.00008466   -0.00892902    0.26488090
     atom   30 type  1   force =     0.00009546    0.01800114   -0.00625360
     atom   31 type  2   force =    -0.01402460   -0.00825131   -0.26646304
     atom   32 type  2   force =     0.00808340   -0.01271747    0.26972937
     atom   33 type  1   force =    -0.00116547    0.01369695   -0.00084485
     atom   34 type  2   force =    -0.00067820   -0.01095462   -0.26879985
     atom   35 type  2   force =     0.00022803   -0.01177697    0.26600321
     atom   36 type  3   force =    -0.00054373   -0.00880714   -1.36064945
     The ionic contribution  to forces
     atom    1 type  1   force =     0.22930728    0.02249859    1.29848932
     atom    2 type  2   force =    -0.01613016    0.05177621   38.83827816
     atom    3 type  2   force =     0.12543982   -0.02813322  -38.05588413
     atom    4 type  1   force =     1.10435541   -0.73581558    0.19541856
     atom    5 type  2   force =    -0.03833069   -0.29500853   38.73778527
     atom    6 type  2   force =     0.35051949   -0.72416820  -38.59125857
     atom    7 type  1   force =     4.48778164    2.46519436   -2.46129470
     atom    8 type  2   force =     0.22124916    0.09405925   38.82210795
     atom    9 type  2   force =     0.67899888    0.02450781  -38.50332012
     atom   10 type  1   force =     0.15512442    0.44893133    1.76108590
     atom   11 type  2   force =     0.26046319    0.05699044   38.94748179
     atom   12 type  2   force =     0.41486821    0.63549204  -38.56919430
     atom   13 type  1   force =    -0.22162519    0.00102038    1.21766247
     atom   14 type  2   force =    -0.00620162   -0.01190700   38.83695172
     atom   15 type  2   force =     0.00149280   -0.03003907  -38.32159113
     atom   16 type  1   force =     0.02266486   -5.21436435   -2.90340581
     atom   17 type  2   force =     0.03516104   -0.30406652   38.73913756
     atom   18 type  2   force =    -0.35990942   -0.71347504  -38.57515459
     atom   19 type  1   force =    -4.49256372    2.50408868   -2.33504492
     atom   20 type  2   force =    -0.00069670    0.01574353  -41.48282210
     atom   21 type  1   force =    -0.00253599    1.49975546    0.45250650
     atom   22 type  2   force =    -0.25010572    0.05788300   38.93645692
     atom   23 type  2   force =    -0.41162379    0.63439943  -38.54495262
     atom   24 type  1   force =     0.00105418   -0.06313025    1.25815478
     atom   25 type  2   force =     0.01494605    0.05886135   38.83990635
     atom   26 type  2   force =    -0.12231593   -0.02780911  -38.09945401
     atom   27 type  1   force =    -1.10788426   -0.74769396    0.33937142
     atom   28 type  2   force =    -0.00609308    0.00444682   38.64421502
     atom   29 type  2   force =     0.00332401   -0.26965236  -38.30718908
     atom   30 type  1   force =    -0.02007690   -0.12731056    1.79956859
     atom   31 type  2   force =    -0.22885101    0.09013743   38.87390756
     atom   32 type  2   force =    -0.67850522    0.01336176  -38.48985077
     atom   33 type  1   force =    -0.16661559    0.45289948    1.65970788
     atom   34 type  2   force =    -0.00648426    0.00161166   39.06253855
     atom   35 type  2   force =     0.00475650    0.24435279  -38.17592030
     atom   36 type  3   force =     0.02504229   -0.08543805   34.15560489
     The local contribution  to forces
     atom    1 type  1   force =    -0.22921837   -0.03948868   -1.29605630
     atom    2 type  2   force =     0.01491490   -0.04041147  -38.59234638
     atom    3 type  2   force =    -0.12385389    0.03828858   37.81012119
     atom    4 type  1   force =    -1.10643070    0.72282703   -0.19299057
     atom    5 type  2   force =     0.03163736    0.31837660  -38.49335548
     atom    6 type  2   force =    -0.34799156    0.72646156   38.34314668
     atom    7 type  1   force =    -4.52676495   -2.49595180    2.48838548
     atom    8 type  2   force =    -0.23440044   -0.08605508  -38.57732222
     atom    9 type  2   force =    -0.67151149   -0.01291027   38.25463134
     atom   10 type  1   force =    -0.15561036   -0.46123183   -1.75892992
     atom   11 type  2   force =    -0.26619578   -0.05712344  -38.70304454
     atom   12 type  2   force =    -0.40632960   -0.62021907   38.32289876
     atom   13 type  1   force =     0.22017895   -0.01817935   -1.21472237
     atom   14 type  2   force =     0.00592656    0.02344124  -38.59032349
     atom   15 type  2   force =    -0.00148366    0.04193542   38.07494539
     atom   16 type  1   force =    -0.02275381    5.23986226    2.93643222
     atom   17 type  2   force =    -0.02842164    0.32722895  -38.49439287
     atom   18 type  2   force =     0.35735115    0.71607270   38.32662171
     atom   19 type  1   force =     4.53226388   -2.53531047    2.36245527
     atom   20 type  2   force =     0.00063579   -0.00460233   41.26695588
     atom   21 type  1   force =     0.00237293   -1.51908804   -0.45077124
     atom   22 type  2   force =     0.25591379   -0.05783356  -38.69170373
     atom   23 type  2   force =     0.40309267   -0.61930903   38.29821558
     atom   24 type  1   force =    -0.00093366    0.04886185   -1.25664180
     atom   25 type  2   force =    -0.01371625   -0.04763817  -38.59445556
     atom   26 type  2   force =     0.12065288    0.03763191   37.85428559
     atom   27 type  1   force =     1.11019701    0.73480667   -0.33716189
     atom   28 type  2   force =     0.00601555    0.00734556  -38.40009084
     atom   29 type  2   force =    -0.00317764    0.27798839   38.06217891
     atom   30 type  1   force =     0.01973427    0.10893945   -1.79414150
     atom   31 type  2   force =     0.24199213   -0.08202401  -38.62938208
     atom   32 type  2   force =     0.67116114   -0.00171258   38.24109332
     atom   33 type  1   force =     0.16742700   -0.46627783   -1.65808341
     atom   34 type  2   force =     0.00631130    0.00790381  -38.81515653
     atom   35 type  2   force =    -0.00473666   -0.23329729   37.93073035
     atom   36 type  3   force =    -0.02340706    0.09352668  -32.81037833
     The core correction contribution to forces
     atom    1 type  1   force =     0.00000000    0.00000000    0.00000000
     atom    2 type  2   force =    -0.00005266    0.00048786    0.02083887
     atom    3 type  2   force =     0.00006805    0.00039949   -0.02083534
     atom    4 type  1   force =     0.00000000    0.00000000    0.00000000
     atom    5 type  2   force =    -0.00056036    0.00119915    0.02078499
     atom    6 type  2   force =     0.00030626   -0.00014207   -0.02100704
     atom    7 type  1   force =     0.00000000    0.00000000    0.00000000
     atom    8 type  2   force =    -0.00082023    0.00055641    0.02081849
     atom    9 type  2   force =     0.00065876    0.00060230   -0.02102352
     atom   10 type  1   force =     0.00000000    0.00000000    0.00000000
     atom   11 type  2   force =    -0.00022844   -0.00031729    0.02084292
     atom   12 type  2   force =     0.00054385    0.00099614   -0.02097636
     atom   13 type  1   force =     0.00000000    0.00000000    0.00000000
     atom   14 type  2   force =     0.00000804    0.00037439    0.02097336
     atom   15 type  2   force =     0.00001167    0.00053573   -0.02095970
     atom   16 type  1   force =     0.00000000    0.00000000    0.00000000
     atom   17 type  2   force =     0.00057891    0.00117186    0.02078889
     atom   18 type  2   force =    -0.00034912   -0.00013420   -0.02100535
     atom   19 type  1   force =     0.00000000    0.00000000    0.00000000
     atom   20 type  2   force =    -0.00003786    0.00056028   -0.01960919
     atom   21 type  1   force =     0.00000000    0.00000000    0.00000000
     atom   22 type  2   force =     0.00022213   -0.00026243    0.02084035
     atom   23 type  2   force =    -0.00053714    0.00095712   -0.02096329
     atom   24 type  1   force =     0.00000000    0.00000000    0.00000000
     atom   25 type  2   force =     0.00009122    0.00050832    0.02084155
     atom   26 type  2   force =    -0.00010213    0.00042212   -0.02085011
     atom   27 type  1   force =     0.00000000    0.00000000    0.00000000
     atom   28 type  2   force =    -0.00003412    0.00065866    0.02080120
     atom   29 type  2   force =    -0.00000213    0.00029629   -0.02077622
     atom   30 type  1   force =     0.00000000    0.00000000    0.00000000
     atom   31 type  2   force =     0.00081415    0.00054926    0.02083536
     atom   32 type  2   force =    -0.00063877    0.00058954   -0.02102438
     atom   33 type  1   force =     0.00000000    0.00000000    0.00000000
     atom   34 type  2   force =     0.00003672    0.00054244    0.02107745
     atom   35 type  2   force =    -0.00000966    0.00061435   -0.02093109
     atom   36 type  3   force =     0.00000180    0.00011187    0.01481742
     The Hubbard contrib.    to forces
     atom    1 type  1   force =     0.00000000    0.00000000    0.00000000
     atom    2 type  2   force =     0.00000000    0.00000000    0.00000000
     atom    3 type  2   force =     0.00000000    0.00000000    0.00000000
     atom    4 type  1   force =     0.00000000    0.00000000    0.00000000
     atom    5 type  2   force =     0.00000000    0.00000000    0.00000000
     atom    6 type  2   force =     0.00000000    0.00000000    0.00000000
     atom    7 type  1   force =     0.00000000    0.00000000    0.00000000
     atom    8 type  2   force =     0.00000000    0.00000000    0.00000000
     atom    9 type  2   force =     0.00000000    0.00000000    0.00000000
     atom   10 type  1   force =     0.00000000    0.00000000    0.00000000
     atom   11 type  2   force =     0.00000000    0.00000000    0.00000000
     atom   12 type  2   force =     0.00000000    0.00000000    0.00000000
     atom   13 type  1   force =     0.00000000    0.00000000    0.00000000
     atom   14 type  2   force =     0.00000000    0.00000000    0.00000000
     atom   15 type  2   force =     0.00000000    0.00000000    0.00000000
     atom   16 type  1   force =     0.00000000    0.00000000    0.00000000
     atom   17 type  2   force =     0.00000000    0.00000000    0.00000000
     atom   18 type  2   force =     0.00000000    0.00000000    0.00000000
     atom   19 type  1   force =     0.00000000    0.00000000    0.00000000
     atom   20 type  2   force =     0.00000000    0.00000000    0.00000000
     atom   21 type  1   force =     0.00000000    0.00000000    0.00000000
     atom   22 type  2   force =     0.00000000    0.00000000    0.00000000
     atom   23 type  2   force =     0.00000000    0.00000000    0.00000000
     atom   24 type  1   force =     0.00000000    0.00000000    0.00000000
     atom   25 type  2   force =     0.00000000    0.00000000    0.00000000
     atom   26 type  2   force =     0.00000000    0.00000000    0.00000000
     atom   27 type  1   force =     0.00000000    0.00000000    0.00000000
     atom   28 type  2   force =     0.00000000    0.00000000    0.00000000
     atom   29 type  2   force =     0.00000000    0.00000000    0.00000000
     atom   30 type  1   force =     0.00000000    0.00000000    0.00000000
     atom   31 type  2   force =     0.00000000    0.00000000    0.00000000
     atom   32 type  2   force =     0.00000000    0.00000000    0.00000000
     atom   33 type  1   force =     0.00000000    0.00000000    0.00000000
     atom   34 type  2   force =     0.00000000    0.00000000    0.00000000
     atom   35 type  2   force =     0.00000000    0.00000000    0.00000000
     atom   36 type  3   force =     0.00000000    0.00000000    0.00000000
     The SCF correction term to forces
     atom    1 type  1   force =     0.00000152    0.00000104   -0.00003102
     atom    2 type  2   force =    -0.00000504   -0.00000571   -0.00001983
     atom    3 type  2   force =     0.00000945   -0.00001949   -0.00000508
     atom    4 type  1   force =     0.00001292    0.00008422    0.00002297
     atom    5 type  2   force =    -0.00000536    0.00003393    0.00000983
     atom    6 type  2   force =     0.00000422    0.00000489   -0.00000504
     atom    7 type  1   force =     0.00002404    0.00001937    0.00006091
     atom    8 type  2   force =    -0.00000063    0.00001070   -0.00000830
     atom    9 type  2   force =     0.00000100    0.00002693    0.00002946
     atom   10 type  1   force =    -0.00000085   -0.00009712   -0.00008086
     atom   11 type  2   force =     0.00000146   -0.00003288   -0.00000331
     atom   12 type  2   force =     0.00001976   -0.00000205    0.00000154
     atom   13 type  1   force =    -0.00003759   -0.00001873   -0.00003802
     atom   14 type  2   force =     0.00000121   -0.00000467    0.00000184
     atom   15 type  2   force =    -0.00000494   -0.00001985   -0.00001332
     atom   16 type  1   force =     0.00000398    0.00006920    0.00005721
     atom   17 type  2   force =     0.00000192    0.00002931    0.00000300
     atom   18 type  2   force =    -0.00000601   -0.00000398    0.00000498
     atom   19 type  1   force =    -0.00004759    0.00000969    0.00008438
     atom   20 type  2   force =     0.00000091    0.00001560    0.00000928
     atom   21 type  1   force =     0.00000637   -0.00007005   -0.00001201
     atom   22 type  2   force =    -0.00000238   -0.00003061   -0.00001490
     atom   23 type  2   force =    -0.00001252    0.00000379    0.00001650
     atom   24 type  1   force =     0.00000771   -0.00000689   -0.00008734
     atom   25 type  2   force =     0.00000611   -0.00000819   -0.00000054
     atom   26 type  2   force =    -0.00000262   -0.00001022   -0.00002535
     atom   27 type  1   force =    -0.00000614    0.00009347    0.00004357
     atom   28 type  2   force =     0.00000087    0.00003260    0.00000430
     atom   29 type  2   force =    -0.00000058   -0.00000541   -0.00000362
     atom   30 type  1   force =     0.00000771    0.00001122    0.00006040
     atom   31 type  2   force =     0.00000126    0.00000943    0.00000128
     atom   32 type  2   force =    -0.00000732    0.00001547    0.00002030
     atom   33 type  1   force =    -0.00000662   -0.00006165   -0.00005427
     atom   34 type  2   force =     0.00000387   -0.00003701   -0.00000873
     atom   35 type  2   force =    -0.00000768   -0.00000399   -0.00000260
     atom   36 type  3   force =     0.00000051    0.00001201    0.00004157

     Total force =     0.005275     Total SCF correction =     0.000316
     Energy error            =      5.7E-05 Ry
     Gradient error          =      1.4E-03 Ry/Bohr

     bfgs converged in  26 scf cycles and  24 bfgs steps
     (criteria: energy <  1.0E-04 Ry, force <  1.0E-02 Ry/Bohr)

     End of BFGS Geometry Optimization

     Final energy             =   -2246.7162547026 Ry

     File ./MoS2-V-O.bfgs deleted, as requested
Begin final coordinates

ATOMIC_POSITIONS (angstrom)
Mo            6.5713771141        1.7467773655        2.7963745557
S             8.1455957439        0.8381416276        4.3986876668
S             8.1499666446        0.8303622953        1.2117843922
Mo            8.1472666720        4.4810907414        2.7744685498
S             6.5434185668        3.6252706328        4.3642263731
S             6.5715031429        3.5650374425        1.1770022358
Mo            6.5251047229        7.1741236714        2.7355916552
S             8.1055559384        6.3051359095        4.3703101793
S             8.1619113788        6.3176602493        1.1839783916
Mo            8.1483753238        9.9263693366        2.8060127661
S             6.5473771571        8.9725811069        4.3776468303
S             6.5901337417        9.0296925397        1.1856248468
Mo            3.4378865925        1.7463365922        2.7949046152
S             5.0060329832        0.8274128573        4.3901784333
S             5.0053595155        0.8343301480        1.1938413288
Mo            5.0017360716        4.5437494336        2.7275992317
S             3.4628624275        3.6234522306        4.3640402338
S             3.4316980503        3.5642775833        1.1787337257
Mo            3.4769246925        7.1749125181        2.7378660660
S             4.9990670452        6.3088640756        1.0450537450
Mo            5.0036315441        9.9228080763        2.7823152004
S             3.4562964907        8.9776234835        4.3772888444
S             3.4150888777        9.0298371201        1.1875843192
Mo            0.2750934439        1.7392215387        2.8013500305
S             1.8643456813        0.8415973280        4.3987094807
S             1.8561096205        0.8338316099        1.2083443381
Mo            1.8563118109        4.4802988727        2.7770598660
S             0.2720340817        3.5861199363        4.3764567791
S             0.2735510118        3.5620398902        1.1918795167
Mo            0.2748020420        7.2173334969        2.7996155141
S             1.8980687045        6.3040917446        4.3740672934
S             1.8430351421        6.3166211224        1.1859438567
Mo            1.8574337918        9.9304760528        2.8047821716
S             0.2775004755        9.0330744507        4.4051840936
S             0.2742631243        9.0408947327        1.2087994733
O             4.9993831995        6.3011097086        3.8330162197
End final coordinates



     Writing all to output data dir ./MoS2-V-O.save/
 
     init_run     :      4.70s CPU      5.26s WALL (       1 calls)
     electrons    :   2492.54s CPU   2904.58s WALL (      26 calls)
     update_pot   :     83.16s CPU     90.55s WALL (      25 calls)
     forces       :     83.31s CPU    100.13s WALL (      26 calls)

     Called by init_run:
     wfcinit      :      0.48s CPU      0.53s WALL (       1 calls)
     potinit      :      2.43s CPU      2.71s WALL (       1 calls)
     hinit0       :      0.45s CPU      0.48s WALL (       1 calls)

     Called by electrons:
     c_bands      :    388.70s CPU    401.62s WALL (     235 calls)
     sum_band     :    151.27s CPU    238.84s WALL (     235 calls)
     v_of_rho     :    318.98s CPU    399.64s WALL (     250 calls)
     newd         :     92.19s CPU    161.03s WALL (     250 calls)
     PAW_pot      :      9.97s CPU     10.04s WALL (     275 calls)
     mix_rho      :   1566.24s CPU   1736.30s WALL (     235 calls)

     Called by c_bands:
     init_us_2    :      5.44s CPU      5.84s WALL (     496 calls)
     init_us_2:cp :      5.43s CPU      5.84s WALL (     496 calls)
     regterg      :    371.20s CPU    383.69s WALL (     235 calls)

     Called by *egterg:
     rdiaghg      :     23.37s CPU     23.61s WALL (    1301 calls)
     h_psi        :    222.81s CPU    224.83s WALL (    1338 calls)
     s_psi        :     19.97s CPU     20.04s WALL (    1338 calls)
     g_psi        :      2.90s CPU      2.92s WALL (    1102 calls)

     Called by h_psi:
     h_psi:calbec :     24.62s CPU     24.73s WALL (    1338 calls)
     vloc_psi     :    172.37s CPU    174.12s WALL (    1338 calls)
     add_vuspsi   :     20.52s CPU     20.64s WALL (    1338 calls)

     General routines
     calbec       :     35.21s CPU     35.38s WALL (    1702 calls)
     fft          :    225.76s CPU    251.11s WALL (   16768 calls)
     ffts         :    698.88s CPU    862.74s WALL (  381615 calls)
     fftw         :    110.77s CPU    111.80s WALL (  148056 calls)
     interpolate  :      3.16s CPU      3.64s WALL (     250 calls)
 
     Parallel routines
 
     PWSCF        :  44m36.69s CPU  52m 1.78s WALL

 
   This run was terminated on:  18:47:39   1Nov2023            

=------------------------------------------------------------------------------=
   JOB DONE.
=------------------------------------------------------------------------------=
