
     Program PWSCF v.7.2 starts on  1Nov2023 at 17: 4:28 

     This program is part of the open-source Quantum ESPRESSO suite
     for quantum simulation of materials; please cite
         "P. Giannozzi et al., J. Phys.:Condens. Matter 21 395502 (2009);
         "P. Giannozzi et al., J. Phys.:Condens. Matter 29 465901 (2017);
         "P. Giannozzi et al., J. Chem. Phys. 152 154105 (2020);
          URL http://www.quantum-espresso.org", 
     in publications or presentations arising from this work. More details at
     http://www.quantum-espresso.org/quote

     Parallel version (MPI & OpenMP), running on      48 processor cores
     Number of MPI processes:                48
     Threads/MPI process:                     1

     MPI processes distributed on     1 nodes
     152836 MiB available memory on the printing compute node when the environment starts
 
     Waiting for input...
     Reading input from standard input
Warning: card &CELL ignored
Warning: card CELL_DYNAMICS = 'BFGS', ignored
Warning: card CELL_DOFREE = '2DXY' ignored
Warning: card / ignored

     Current dimensions of program PWSCF are:
     Max number of different atomic species (ntypx) = 10
     Max number of k-points (npk) =  40000
     Max angular momentum in pseudopotentials (lmaxx) =  4
     file O.pbe-n-kjpaw_psl.0.1.UPF: wavefunction(s)  2P renormalized

     IMPORTANT: XC functional enforced from input :
     Exchange-correlation= RVV10
                           (   1   4  13   4  26   0   0)
     Any further DFT definition will be discarded
     Please, verify this is what you really want


     gamma-point specific algorithms are used
     signal trapping enabled: kill the code with -SIGUSR1 to stop cleanly the simulation 
 
     R & G space division:  proc/nbgrp/npool/nimage =      48
     Subspace diagonalization in iterative solution of the eigenvalue problem:
     one sub-group per band group will be used
     scalapack distributed-memory algorithm (size of sub-group:  2*  2 procs)

 
     Parallelization info
     --------------------
     sticks:   dense  smooth     PW     G-vecs:    dense   smooth      PW
     Min         396     194     47               101632    35090    4376
     Max         398     196     50               101674    35128    4410
     Sum       19091    9389   2349              4879585  1685513  210763
 
     Using Slab Decomposition
 


     bravais-lattice index     =            0
     lattice parameter (alat)  =      17.8707  a.u.
     unit-cell volume          =   17436.2743 (a.u.)^3
     number of atoms/cell      =           36
     number of atomic types    =            3
     number of electrons       =       312.00
     number of Kohn-Sham states=          187
     kinetic-energy cutoff     =      80.0000  Ry
     charge density cutoff     =     650.0000  Ry
     scf convergence threshold =      1.0E-06
     mixing beta               =       0.7000
     number of iterations used =            8  local-TF  mixing
     energy convergence thresh.=      1.0E-04
     force convergence thresh. =      1.0E-02
     Exchange-correlation= RVV10
                           (   1   4  13   4  26   0   0)
     nstep                     =          200


     celldm(1)=  17.870686  celldm(2)=   0.000000  celldm(3)=   0.000000
     celldm(4)=   0.000000  celldm(5)=   0.000000  celldm(6)=   0.000000

     crystal axes: (cart. coord. in units of alat)
               a(1) = (   1.000000   0.000000   0.000000 )  
               a(2) = (   0.000000   1.155671   0.000000 )  
               a(3) = (   0.000000   0.000000   2.643601 )  

     reciprocal axes: (cart. coord. in units 2 pi/alat)
               b(1) = (  1.000000  0.000000  0.000000 )  
               b(2) = (  0.000000  0.865298  0.000000 )  
               b(3) = (  0.000000  0.000000  0.378272 )  


     PseudoPot. # 1 for Mo read from file:
     ../pseudo/Mo_ONCV_PBE-1.0.oncvpsp.upf
     MD5 check sum: 1b5d28e075c9ccadda658a603575cd1f
     Pseudo is Norm-conserving, Zval = 14.0
     Generated using ONCVPSP code by D. R. Hamann
     Using radial grid of 1526 points,  6 beta functions with: 
                l(1) =   0
                l(2) =   0
                l(3) =   1
                l(4) =   1
                l(5) =   2
                l(6) =   2

     PseudoPot. # 2 for S  read from file:
     ../pseudo/s_pbe_v1.4.uspp.F.UPF
     MD5 check sum: 88d86576ff6df21479756cfb9bdac1df
     Pseudo is Ultrasoft + core correction, Zval =  6.0
     Generated by new atomic code, or converted to UPF format
     Using radial grid of  907 points,  6 beta functions with: 
                l(1) =   0
                l(2) =   0
                l(3) =   1
                l(4) =   1
                l(5) =   2
                l(6) =   2
     Q(r) pseudized with  8 coefficients,  rinner =    1.300   1.300   1.300
                                                       1.300   1.300

     PseudoPot. # 3 for O  read from file:
     ../pseudo/O.pbe-n-kjpaw_psl.0.1.UPF
     MD5 check sum: 0234752ac141de4415c5fc33072bef88
     Pseudo is Projector augmented-wave + core cor, Zval =  6.0
     Generated using "atomic" code by A. Dal Corso  v.5.0.99 svn rev. 10869
     Shape of augmentation charge: BESSEL
     Using radial grid of 1095 points,  4 beta functions with: 
                l(1) =   0
                l(2) =   0
                l(3) =   1
                l(4) =   1
     Q(r) pseudized with 0 coefficients 


     atomic species   valence    mass     pseudopotential
        Mo            14.00    95.94000     Mo( 1.00)
        S              6.00    32.06500     S ( 1.00)
        O              6.00    15.99940     O ( 1.00)

     No symmetry found



   Cartesian axes

     site n.     atom                  positions (alat units)
         1           Mo  tau(   1) = (   0.6952221   0.1890506   0.2985846  )
         2           S   tau(   2) = (   0.8646417   0.0856217   0.4689279  )
         3           S   tau(   3) = (   0.8663890   0.0857843   0.1351291  )
         4           Mo  tau(   4) = (   0.8560186   0.4753274   0.2873942  )
         5           S   tau(   5) = (   0.6873294   0.3936244   0.4596353  )
         6           S   tau(   6) = (   0.6929804   0.3713468   0.1185692  )
         7           Mo  tau(   7) = (   0.6862796   0.7633098   0.2825370  )
         8           S   tau(   8) = (   0.8545980   0.6708292   0.4486168  )
         9           S   tau(   9) = (   0.8545123   0.6666874   0.1146125  )
        10           Mo  tau(  10) = (   0.8629403   1.0471007   0.3006803  )
        11           S   tau(  11) = (   0.6868280   0.9456650   0.4634891  )
        12           S   tau(  12) = (   0.6998113   0.9568511   0.1205389  )
        13           Mo  tau(  13) = (   0.3618216   0.1847309   0.2935964  )
        14           S   tau(  14) = (   0.5260962   0.0863870   0.4600448  )
        15           S   tau(  15) = (   0.5348379   0.0894875   0.1297123  )
        16           Mo  tau(  16) = (   0.5265817   0.4772436   0.2784130  )
        17           S   tau(  17) = (   0.3624753   0.3882513   0.4525556  )
        18           S   tau(  18) = (   0.3635411   0.3752055   0.1119148  )
        19           Mo  tau(  19) = (   0.3652268   0.7630864   0.2781795  )
        20           S   tau(  20) = (   0.5269494   0.6690381   0.1096838  )
        21           Mo  tau(  21) = (   0.5300192   1.0470394   0.2900995  )
        22           S   tau(  22) = (   0.3670346   0.9457522   0.4574073  )
        23           S   tau(  23) = (   0.3604225   0.9585725   0.1159032  )
        24           Mo  tau(  24) = (   0.0313099   0.1847895   0.3013130  )
        25           S   tau(  25) = (   0.1956761   0.0838230   0.4650863  )
        26           S   tau(  26) = (   0.1967693   0.0903508   0.1278874  )
        27           Mo  tau(  27) = (   0.1967578   0.4753919   0.2813011  )
        28           S   tau(  28) = (   0.0287851   0.3864324   0.4586755  )
        29           S   tau(  29) = (   0.0244514   0.3729871   0.1239344  )
        30           Mo  tau(  30) = (   0.0286728   0.7631204   0.2856894  )
        31           S   tau(  31) = (   0.2011512   0.6675435   0.4465001  )
        32           S   tau(  32) = (   0.1969214   0.6672839   0.1104564  )
        33           Mo  tau(  33) = (   0.1950294   1.0511147   0.2932237  )
        34           S   tau(  34) = (   0.0312912   0.9612169   0.4667423  )
        35           S   tau(  35) = (   0.0292670   0.9563028   0.1216485  )
        36           O   tau(  36) = (   0.8888889   0.5136314   0.5407634  )

     number of k points=     1  Gaussian smearing, width (Ry)=  0.0100
                       cart. coord. in units 2pi/alat
        k(    1) = (   0.0000000   0.0000000   0.0000000), wk =   2.0000000

     Dense  grid:  2439793 G-vectors     FFT dimensions: ( 150, 180, 384)

     Smooth grid:   842757 G-vectors     FFT dimensions: ( 108, 120, 270)

     Estimated max dynamical RAM per process >     269.22 MB

     Estimated total dynamical RAM >      12.62 GB

     Initial potential from superposition of free atoms

     starting charge     311.9873, renormalised to     312.0000

     negative rho (up, down):  2.750E-04 0.000E+00


---------------------------------------------------------------------------------
Carrying out rVV10 run using the following parameters:
Nqs =      20    Nr_points =    1024   r_max =   100.000
b_value =  6.30000    beta =  0.00901
     q_mesh =  0.00010000  0.00030000  0.00058939  0.00100810
               0.00161396  0.00249058  0.00375900  0.00559430
               0.00824984  0.01209221  0.01765183  0.02569619
               0.03733578  0.05417739  0.07854596  0.11380545
               0.16482331  0.23864234  0.34545298  0.50000000

Gradients computed in Reciprocal space

---------------------------------------------------------------------------------


     Starting wfcs are  216 randomized atomic wfcs
     Checking if some PAW data can be deallocated... 

     total cpu time spent up to now is        5.1 secs

     Self-consistent Calculation

     iteration #  1     ecut=    80.00 Ry     beta= 0.70
     Davidson diagonalization with overlap
     ethr =  1.00E-02,  avg # of iterations =  2.0

     Threshold (ethr) on eigenvalues was too large:
     Diagonalizing with lowered threshold

     Davidson diagonalization with overlap
     ethr =  4.21E-04,  avg # of iterations =  4.0

     negative rho (up, down):  3.587E-08 0.000E+00

     total cpu time spent up to now is       19.9 secs

     total energy              =   -2246.15293571 Ry
     estimated scf accuracy    <       1.56909682 Ry

     iteration #  2     ecut=    80.00 Ry     beta= 0.70
     Davidson diagonalization with overlap
     ethr =  5.03E-04,  avg # of iterations =  4.0

     total cpu time spent up to now is       25.0 secs

     total energy              =   -2246.13435005 Ry
     estimated scf accuracy    <       1.19726395 Ry

     iteration #  3     ecut=    80.00 Ry     beta= 0.70
     Davidson diagonalization with overlap
     ethr =  3.84E-04,  avg # of iterations =  2.0

     total cpu time spent up to now is       28.7 secs

     total energy              =   -2246.12529988 Ry
     estimated scf accuracy    <       0.35742758 Ry

     iteration #  4     ecut=    80.00 Ry     beta= 0.70
     Davidson diagonalization with overlap
     ethr =  1.15E-04,  avg # of iterations =  5.0

     total cpu time spent up to now is       32.6 secs

     total energy              =   -2246.16676547 Ry
     estimated scf accuracy    <       0.06055912 Ry

     iteration #  5     ecut=    80.00 Ry     beta= 0.70
     Davidson diagonalization with overlap
     ethr =  1.94E-05,  avg # of iterations = 14.0

     total cpu time spent up to now is       37.0 secs

     total energy              =   -2246.17052338 Ry
     estimated scf accuracy    <       0.02303799 Ry

     iteration #  6     ecut=    80.00 Ry     beta= 0.70
     Davidson diagonalization with overlap
     ethr =  7.38E-06,  avg # of iterations =  5.0

     total cpu time spent up to now is       40.6 secs

     total energy              =   -2246.17106271 Ry
     estimated scf accuracy    <       0.01631900 Ry

     iteration #  7     ecut=    80.00 Ry     beta= 0.70
     Davidson diagonalization with overlap
     ethr =  5.23E-06,  avg # of iterations =  1.0

     total cpu time spent up to now is       43.9 secs

     total energy              =   -2246.16972948 Ry
     estimated scf accuracy    <       0.01201356 Ry

     iteration #  8     ecut=    80.00 Ry     beta= 0.70
     Davidson diagonalization with overlap
     ethr =  3.85E-06,  avg # of iterations =  1.0

     negative rho (up, down):  2.210E-05 0.000E+00

     total cpu time spent up to now is       49.9 secs

     total energy              =   -2246.16834864 Ry
     estimated scf accuracy    <       0.00661218 Ry

     iteration #  9     ecut=    80.00 Ry     beta= 0.70
     Davidson diagonalization with overlap
     ethr =  2.12E-06,  avg # of iterations =  2.0

     negative rho (up, down):  1.561E-02 0.000E+00

     total cpu time spent up to now is       55.6 secs

     total energy              =   -2246.16767350 Ry
     estimated scf accuracy    <       0.00305932 Ry

     iteration # 10     ecut=    80.00 Ry     beta= 0.70
     Davidson diagonalization with overlap
     ethr =  9.81E-07,  avg # of iterations =  2.0

     negative rho (up, down):  2.665E-02 0.000E+00

     total cpu time spent up to now is       62.0 secs

     total energy              =   -2246.16759877 Ry
     estimated scf accuracy    <       0.00153827 Ry

     iteration # 11     ecut=    80.00 Ry     beta= 0.70
     Davidson diagonalization with overlap
     ethr =  4.93E-07,  avg # of iterations =  2.0

     negative rho (up, down):  2.208E-02 0.000E+00

     total cpu time spent up to now is       69.2 secs

     total energy              =   -2246.16765102 Ry
     estimated scf accuracy    <       0.00043905 Ry

     iteration # 12     ecut=    80.00 Ry     beta= 0.70
     Davidson diagonalization with overlap
     ethr =  1.41E-07,  avg # of iterations =  5.0

     negative rho (up, down):  7.276E-03 0.000E+00

     total cpu time spent up to now is       76.8 secs

     total energy              =   -2246.16758778 Ry
     estimated scf accuracy    <       0.00008087 Ry

     iteration # 13     ecut=    80.00 Ry     beta= 0.70
     Davidson diagonalization with overlap
     ethr =  2.59E-08,  avg # of iterations =  8.0

     negative rho (up, down):  2.994E-03 0.000E+00

     total cpu time spent up to now is       85.1 secs

     total energy              =   -2246.16764239 Ry
     estimated scf accuracy    <       0.00001208 Ry

     iteration # 14     ecut=    80.00 Ry     beta= 0.70
     Davidson diagonalization with overlap
     ethr =  3.87E-09,  avg # of iterations =  4.0

     negative rho (up, down):  6.364E-04 0.000E+00

     total cpu time spent up to now is       93.9 secs

     total energy              =   -2246.16765087 Ry
     estimated scf accuracy    <       0.00000315 Ry

     iteration # 15     ecut=    80.00 Ry     beta= 0.70
     Davidson diagonalization with overlap
     ethr =  1.01E-09,  avg # of iterations =  2.0

     negative rho (up, down):  1.841E-04 0.000E+00

     total cpu time spent up to now is       97.2 secs

     End of self-consistent calculation

          k = 0.0000 0.0000 0.0000 (105382 PWs)   bands (ev):

   -63.0406 -62.9311 -62.8976 -62.8910 -62.8693 -62.8367 -62.8150 -62.8110
   -62.7938 -62.7871 -62.7667 -62.7451 -37.3295 -37.2588 -37.2482 -37.2075
   -37.1815 -37.1625 -37.1219 -37.1189 -37.1173 -37.1063 -37.0933 -37.0898
   -37.0810 -37.0473 -37.0450 -37.0316 -37.0208 -37.0131 -36.9979 -36.9867
   -36.9797 -36.9741 -36.9715 -36.9529 -36.9459 -36.9430 -36.9318 -36.9276
   -36.9130 -36.9071 -36.8908 -36.8737 -36.8530 -36.7781 -36.7662 -36.7382
   -21.5245 -15.9395 -15.5003 -15.1189 -15.0892 -14.8947 -14.8596 -14.7470
   -14.5037 -14.4871 -14.4587 -14.3926 -14.3623 -14.3178 -14.2765 -14.2230
   -14.1964 -14.1381 -14.0606 -13.9675 -13.8938 -13.8710 -13.8369 -13.7858
    -8.6362  -7.9633  -7.7852  -7.4818  -7.4246  -7.2874  -7.2212  -7.1930
    -7.0972  -6.9458  -6.8947  -6.8418  -6.7899  -6.7330  -6.6481  -6.6348
    -6.4812  -6.4291  -6.3108  -6.2577  -6.1662  -6.0258  -5.9359  -5.9317
    -5.8309  -5.7951  -5.7792  -5.7515  -5.6901  -5.6684  -5.6319  -5.6064
    -5.5346  -5.5234  -5.4772  -5.3238  -5.2717  -5.1659  -5.1131  -5.0708
    -4.9988  -4.9654  -4.8736  -4.7906  -4.7527  -4.6152  -4.5260  -4.3606
    -4.3334  -4.2761  -4.1641  -4.1051  -4.0275  -3.9597  -3.9257  -3.8497
    -3.7700  -3.7536  -3.6536  -3.6198  -3.5889  -3.5480  -3.5199  -3.4967
    -3.4592  -3.3978  -3.2952  -3.2636  -3.1289  -2.9757  -2.9261  -2.8739
    -2.8332  -2.7979  -2.7416  -2.7012  -2.6539  -2.6137  -2.4684  -2.2266
    -2.1116  -1.9888  -1.7984  -1.1783  -1.0217  -0.8097  -0.7391  -0.2075
    -0.1814  -0.1269   0.0275   0.0515   0.0936   0.1500   0.2217   0.2765
     0.2880   0.3363   0.3888   0.4344   0.5112   0.5309   0.5697   0.6102
     0.6591   0.7092   0.7351   0.7493   0.8036   0.8264   0.9071   0.9349
     0.9729   1.1113   1.1571

     the Fermi energy is    -1.1002 ev

!    total energy              =   -2246.16765108 Ry
     estimated scf accuracy    <       0.00000079 Ry
     smearing contrib. (-TS)   =      -0.00816897 Ry
     internal energy E=F+TS    =   -2246.15948211 Ry

     The total energy is F=E-TS. E is the sum of the following terms:
     one-electron contribution =  -18494.39684648 Ry
     hartree contribution      =    9235.75002689 Ry
     xc contribution           =    -392.09931986 Ry
     ewald contribution        =    7414.45883647 Ry
     one-center paw contrib.   =      -9.87217913 Ry

     convergence has been achieved in  15 iterations

     negative rho (up, down):  1.841E-04 0.000E+00

     Forces acting on atoms (cartesian axes, Ry/au):

     atom    1 type  1   force =     0.00219393   -0.02423778    0.00624165
     atom    2 type  2   force =    -0.01537933    0.01633598    0.00120064
     atom    3 type  2   force =    -0.01392039    0.00702977   -0.00562338
     atom    4 type  1   force =    -0.01591354   -0.04138863   -0.06153858
     atom    5 type  2   force =    -0.05448866   -0.03782144   -0.03176993
     atom    6 type  2   force =     0.00924137    0.01662477    0.00049895
     atom    7 type  1   force =    -0.00699668   -0.01340662   -0.01823694
     atom    8 type  2   force =     0.00519649    0.03232507    0.05357919
     atom    9 type  2   force =     0.01322783    0.00676646    0.01321857
     atom   10 type  1   force =    -0.01192931   -0.00316271   -0.02574769
     atom   11 type  2   force =     0.00555893    0.00255048   -0.00527788
     atom   12 type  2   force =    -0.00308730    0.00001095    0.00391351
     atom   13 type  1   force =     0.00515672    0.00470893   -0.00649467
     atom   14 type  2   force =     0.00885526    0.00045771    0.01302865
     atom   15 type  2   force =    -0.01007708    0.00341536   -0.00838811
     atom   16 type  1   force =    -0.00240086    0.00797719   -0.00113652
     atom   17 type  2   force =     0.00626330   -0.00258637    0.00109719
     atom   18 type  2   force =    -0.00285016   -0.00692553    0.01424419
     atom   19 type  1   force =     0.00227993   -0.00556437   -0.00403032
     atom   20 type  2   force =     0.00612855   -0.00532073   -0.00129360
     atom   21 type  1   force =    -0.00563538    0.00430535   -0.00036070
     atom   22 type  2   force =    -0.00235458   -0.00152552   -0.00185212
     atom   23 type  2   force =    -0.00097170    0.00157677    0.01096040
     atom   24 type  1   force =     0.00668783   -0.00809960   -0.02758619
     atom   25 type  2   force =     0.01576110    0.02073616    0.00894285
     atom   26 type  2   force =    -0.01274835   -0.00125604   -0.00340666
     atom   27 type  1   force =    -0.00328851   -0.00498104    0.00933199
     atom   28 type  2   force =     0.05242599   -0.04333457   -0.03213667
     atom   29 type  2   force =     0.00312280   -0.00046664   -0.00132611
     atom   30 type  1   force =     0.00405283   -0.00989138    0.01001785
     atom   31 type  2   force =     0.00336511    0.00426792    0.01544579
     atom   32 type  2   force =    -0.01197094    0.00810925    0.00521022
     atom   33 type  1   force =     0.01186596   -0.00813478   -0.01051830
     atom   34 type  2   force =     0.00575892   -0.03677963   -0.00829179
     atom   35 type  2   force =    -0.00734533    0.01234552    0.01212627
     atom   36 type  3   force =     0.01421523    0.10533975    0.07595824
     The non-local contrib.  to forces
     atom    1 type  1   force =     0.00104007    0.03551045   -0.00961843
     atom    2 type  2   force =    -0.01239408   -0.00504459   -0.26857078
     atom    3 type  2   force =    -0.01749359   -0.00332394    0.26649910
     atom    4 type  1   force =     0.00581830   -0.00618366   -0.01593874
     atom    5 type  2   force =    -0.04760767   -0.04770707   -0.26412371
     atom    6 type  2   force =     0.00961521    0.01690445    0.26606937
     atom    7 type  1   force =    -0.01810737   -0.02335060    0.00128506
     atom    8 type  2   force =     0.09730201   -0.41299579   -0.02801386
     atom    9 type  2   force =     0.00851743   -0.00956565    0.27920295
     atom   10 type  1   force =     0.00117169    0.02527359    0.00157180
     atom   11 type  2   force =     0.01868884    0.01307408   -0.25423803
     atom   12 type  2   force =    -0.01229264   -0.01643639    0.26449453
     atom   13 type  1   force =    -0.00054915    0.02185830   -0.01171445
     atom   14 type  2   force =     0.01475750   -0.00942698   -0.26284723
     atom   15 type  2   force =    -0.01314572   -0.00568711    0.26076642
     atom   16 type  1   force =     0.00167254    0.01157592   -0.02586069
     atom   17 type  2   force =     0.00063139   -0.02604603   -0.24520695
     atom   18 type  2   force =    -0.00219487   -0.00291722    0.27710609
     atom   19 type  1   force =     0.01429136   -0.00287919   -0.01456978
     atom   20 type  2   force =     0.00279845   -0.01520232    0.26657271
     atom   21 type  1   force =    -0.00023652    0.02993406    0.00504213
     atom   22 type  2   force =    -0.00744999    0.00215814   -0.25799740
     atom   23 type  2   force =     0.00780442   -0.01697752    0.26768977
     atom   24 type  1   force =     0.00809221    0.03111267   -0.00580681
     atom   25 type  2   force =     0.00584578    0.00850534   -0.25979558
     atom   26 type  2   force =    -0.00362097   -0.01494098    0.26449512
     atom   27 type  1   force =     0.00574630   -0.00908648    0.00819330
     atom   28 type  2   force =    -0.11568552    0.08465403   -0.20568796
     atom   29 type  2   force =     0.00577887    0.00555759    0.26131943
     atom   30 type  1   force =     0.00012099    0.01462229   -0.00009014
     atom   31 type  2   force =    -0.00770433    0.00585787   -0.25312633
     atom   32 type  2   force =    -0.01290708    0.00309920    0.26777460
     atom   33 type  1   force =    -0.00355706    0.01144303    0.00573977
     atom   34 type  2   force =    -0.00260972   -0.03251776   -0.27070857
     atom   35 type  2   force =    -0.00315438   -0.01060544    0.27056799
     atom   36 type  3   force =     0.02767757    0.88263409   -0.86685321
     The ionic contribution  to forces
     atom    1 type  1   force =    -0.42728120   -1.23558161    4.01335921
     atom    2 type  2   force =    -0.71811571   -0.40280205   39.04991218
     atom    3 type  2   force =    -0.17933013   -0.21236854  -36.72126495
     atom    4 type  1   force =    -0.84167630   -0.53871882   -7.24747641
     atom    5 type  2   force =    -3.72211105   -0.21619911   37.52587958
     atom    6 type  2   force =     0.09554132   -0.72370265  -39.00056663
     atom    7 type  1   force =    -3.76452319   -1.18993057    0.35968901
     atom    8 type  2   force =    -2.16503960    5.49354215   34.10694895
     atom    9 type  2   force =     0.28139090    0.26415528  -39.15742271
     atom   10 type  1   force =    -1.15651167    0.01561800    4.57902404
     atom   11 type  2   force =    -0.85646024   -1.06121489   38.94462117
     atom   12 type  2   force =     0.35477282    0.85314205  -38.42380877
     atom   13 type  1   force =     0.58845178    0.34877518    1.81288020
     atom   14 type  2   force =    -0.14476733   -0.32996365   38.36529574
     atom   15 type  2   force =     0.07893114   -0.19820682  -37.31775521
     atom   16 type  1   force =    -1.23029589    3.74852586   -1.46366146
     atom   17 type  2   force =     0.96780144    1.21105275   37.66194456
     atom   18 type  2   force =    -0.12818836   -0.75714498  -39.21502270
     atom   19 type  1   force =     2.84223193   -1.79698579   -0.57132371
     atom   20 type  2   force =     0.07140763   -0.05332365  -39.18473220
     atom   21 type  1   force =    -0.20030207    0.21866259    0.29425536
     atom   22 type  2   force =     0.49215001   -1.46725648   38.29069452
     atom   23 type  2   force =    -0.07117070    0.76363668  -38.77099769
     atom   24 type  1   force =     0.16325100   -0.55722485    4.00575090
     atom   25 type  2   force =     0.91963181   -0.10332455   39.11275826
     atom   26 type  2   force =    -0.19515595   -0.08238641  -37.86485927
     atom   27 type  1   force =     1.74094959    0.12522319   -4.65770944
     atom   28 type  2   force =     3.50848675   -2.19837197   36.07232392
     atom   29 type  2   force =    -0.04421837   -0.69294628  -38.36479471
     atom   30 type  1   force =     0.71506216    1.11496006   -2.66300655
     atom   31 type  2   force =     2.36995236    0.64445720   36.82289276
     atom   32 type  2   force =    -0.27719024    0.15871299  -39.40526776
     atom   33 type  1   force =     1.08929899   -0.67922738    1.16530074
     atom   34 type  2   force =     0.47043962   -0.87047298   39.15960322
     atom   35 type  2   force =    -0.22603087    0.65285122  -38.40424657
     atom   36 type  3   force =    -0.40138236   -0.24596116   47.09078239
     The local contribution  to forces
     atom    1 type  1   force =     0.42841121    1.17583687   -3.99841058
     atom    2 type  2   force =     0.71482462    0.42392677  -38.80139363
     atom    3 type  2   force =     0.18208020    0.22253374   36.46975246
     atom    4 type  1   force =     0.81998516    0.50377145    7.20116628
     atom    5 type  2   force =     3.71261412    0.22325936  -37.31539320
     atom    6 type  2   force =    -0.09566269    0.72484670   38.75590065
     atom    7 type  1   force =     3.77575662    1.20013127   -0.38009585
     atom    8 type  2   force =     2.07810683   -5.07149589  -34.03322205
     atom    9 type  2   force =    -0.27652179   -0.24819571   38.91263287
     atom   10 type  1   force =     1.14343648   -0.04446817   -4.60720738
     atom   11 type  2   force =     0.84428894    1.05137402  -38.71674179
     atom   12 type  2   force =    -0.34673049   -0.83819545   38.18421489
     atom   13 type  1   force =    -0.58278205   -0.36599329   -1.80862973
     atom   14 type  2   force =     0.13963448    0.33972193  -38.11068656
     atom   15 type  2   force =    -0.07658990    0.20688442   37.06908501
     atom   16 type  1   force =     1.22630491   -3.75202927    1.48748818
     atom   17 type  2   force =    -0.96233555   -1.18892219  -37.43625265
     atom   18 type  2   force =     0.12756960    0.75374080   38.97325038
     atom   19 type  1   force =    -2.85435520    1.79452398    0.58088756
     atom   20 type  2   force =    -0.06806738    0.06272522   38.93802741
     atom   21 type  1   force =     0.19504655   -0.24468113   -0.30057036
     atom   22 type  2   force =    -0.48722918    1.46391290  -38.05576930
     atom   23 type  2   force =     0.06298385   -0.74656752   38.53513909
     atom   24 type  1   force =    -0.16463389    0.51790434   -4.02832423
     atom   25 type  2   force =    -0.90985173    0.11609287  -38.86530395
     atom   26 type  2   force =     0.18616268    0.09521061   37.61780329
     atom   27 type  1   force =    -1.75010743   -0.12082739    4.65807906
     atom   28 type  2   force =    -3.34629477    2.07405776  -35.91663970
     atom   29 type  2   force =     0.04210793    0.68780327   38.12262627
     atom   30 type  1   force =    -0.71117155   -1.13934799    2.67239695
     atom   31 type  2   force =    -2.35954483   -0.64579817  -36.57553796
     atom   32 type  2   force =     0.27775476   -0.15356250   39.16346424
     atom   33 type  1   force =    -1.07402871    0.65937868   -1.18247564
     atom   34 type  2   force =    -0.46261508    0.86508449  -38.91887268
     atom   35 type  2   force =     0.22188466   -0.63095601   38.16694059
     atom   36 type  3   force =     0.38805330   -0.52100137  -46.15681623
     The core correction contribution to forces
     atom    1 type  1   force =     0.00000000    0.00000000    0.00000000
     atom    2 type  2   force =     0.00033137    0.00021549    0.02065956
     atom    3 type  2   force =     0.00084043    0.00010304   -0.02067672
     atom    4 type  1   force =     0.00000000    0.00000000    0.00000000
     atom    5 type  2   force =     0.00264344    0.00286507    0.02131207
     atom    6 type  2   force =    -0.00034243   -0.00141016   -0.02098088
     atom    7 type  1   force =     0.00000000    0.00000000    0.00000000
     atom    8 type  2   force =    -0.00517966    0.02354963    0.00736754
     atom    9 type  2   force =    -0.00022695    0.00053030   -0.02115536
     atom   10 type  1   force =     0.00000000    0.00000000    0.00000000
     atom   11 type  2   force =    -0.00090548   -0.00080408    0.02038770
     atom   12 type  2   force =     0.00112745    0.00137357   -0.02092028
     atom   13 type  1   force =     0.00000000    0.00000000    0.00000000
     atom   14 type  2   force =    -0.00074527    0.00006189    0.02063984
     atom   15 type  2   force =     0.00072095    0.00037252   -0.02054755
     atom   16 type  1   force =     0.00000000    0.00000000    0.00000000
     atom   17 type  2   force =     0.00012301    0.00135082    0.02000470
     atom   18 type  2   force =    -0.00000224   -0.00056228   -0.02118502
     atom   19 type  1   force =     0.00000000    0.00000000    0.00000000
     atom   20 type  2   force =     0.00001912    0.00059240   -0.02119749
     atom   21 type  1   force =     0.00000000    0.00000000    0.00000000
     atom   22 type  2   force =     0.00018754   -0.00036962    0.02051660
     atom   23 type  2   force =    -0.00057932    0.00139495   -0.02088265
     atom   24 type  1   force =     0.00000000    0.00000000    0.00000000
     atom   25 type  2   force =     0.00007905   -0.00058287    0.02064908
     atom   26 type  2   force =    -0.00013074    0.00078811   -0.02089648
     atom   27 type  1   force =     0.00000000    0.00000000    0.00000000
     atom   28 type  2   force =     0.00597017   -0.00366512    0.01735127
     atom   29 type  2   force =    -0.00049546   -0.00085070   -0.02050114
     atom   30 type  1   force =     0.00000000    0.00000000    0.00000000
     atom   31 type  2   force =     0.00053078   -0.00019211    0.02054449
     atom   32 type  2   force =     0.00040474   -0.00003374   -0.02072997
     atom   33 type  1   force =     0.00000000    0.00000000    0.00000000
     atom   34 type  2   force =     0.00047695    0.00103148    0.02102047
     atom   35 type  2   force =    -0.00003240    0.00099786   -0.02110804
     atom   36 type  3   force =    -0.00013612   -0.01018116    0.00861673
     The Hubbard contrib.    to forces
     atom    1 type  1   force =     0.00000000    0.00000000    0.00000000
     atom    2 type  2   force =     0.00000000    0.00000000    0.00000000
     atom    3 type  2   force =     0.00000000    0.00000000    0.00000000
     atom    4 type  1   force =     0.00000000    0.00000000    0.00000000
     atom    5 type  2   force =     0.00000000    0.00000000    0.00000000
     atom    6 type  2   force =     0.00000000    0.00000000    0.00000000
     atom    7 type  1   force =     0.00000000    0.00000000    0.00000000
     atom    8 type  2   force =     0.00000000    0.00000000    0.00000000
     atom    9 type  2   force =     0.00000000    0.00000000    0.00000000
     atom   10 type  1   force =     0.00000000    0.00000000    0.00000000
     atom   11 type  2   force =     0.00000000    0.00000000    0.00000000
     atom   12 type  2   force =     0.00000000    0.00000000    0.00000000
     atom   13 type  1   force =     0.00000000    0.00000000    0.00000000
     atom   14 type  2   force =     0.00000000    0.00000000    0.00000000
     atom   15 type  2   force =     0.00000000    0.00000000    0.00000000
     atom   16 type  1   force =     0.00000000    0.00000000    0.00000000
     atom   17 type  2   force =     0.00000000    0.00000000    0.00000000
     atom   18 type  2   force =     0.00000000    0.00000000    0.00000000
     atom   19 type  1   force =     0.00000000    0.00000000    0.00000000
     atom   20 type  2   force =     0.00000000    0.00000000    0.00000000
     atom   21 type  1   force =     0.00000000    0.00000000    0.00000000
     atom   22 type  2   force =     0.00000000    0.00000000    0.00000000
     atom   23 type  2   force =     0.00000000    0.00000000    0.00000000
     atom   24 type  1   force =     0.00000000    0.00000000    0.00000000
     atom   25 type  2   force =     0.00000000    0.00000000    0.00000000
     atom   26 type  2   force =     0.00000000    0.00000000    0.00000000
     atom   27 type  1   force =     0.00000000    0.00000000    0.00000000
     atom   28 type  2   force =     0.00000000    0.00000000    0.00000000
     atom   29 type  2   force =     0.00000000    0.00000000    0.00000000
     atom   30 type  1   force =     0.00000000    0.00000000    0.00000000
     atom   31 type  2   force =     0.00000000    0.00000000    0.00000000
     atom   32 type  2   force =     0.00000000    0.00000000    0.00000000
     atom   33 type  1   force =     0.00000000    0.00000000    0.00000000
     atom   34 type  2   force =     0.00000000    0.00000000    0.00000000
     atom   35 type  2   force =     0.00000000    0.00000000    0.00000000
     atom   36 type  3   force =     0.00000000    0.00000000    0.00000000
     The SCF correction term to forces
     atom    1 type  1   force =     0.00002316   -0.00000385    0.00089628
     atom    2 type  2   force =    -0.00002621    0.00003998    0.00057813
     atom    3 type  2   force =    -0.00001798    0.00008509    0.00005155
     atom    4 type  1   force =    -0.00004138   -0.00025798    0.00069512
     atom    5 type  2   force =    -0.00002818   -0.00004006    0.00054015
     atom    6 type  2   force =     0.00008926   -0.00001394    0.00006128
     atom    7 type  1   force =    -0.00012342   -0.00025710    0.00086966
     atom    8 type  2   force =     0.00000620   -0.00027541    0.00048344
     atom    9 type  2   force =     0.00006754   -0.00015812   -0.00005434
     atom   10 type  1   force =    -0.00002651    0.00041349    0.00084868
     atom   11 type  2   force =    -0.00005381    0.00012098    0.00067790
     atom   12 type  2   force =     0.00003487    0.00012681   -0.00008203
     atom   13 type  1   force =     0.00003545    0.00006838    0.00095413
     atom   14 type  2   force =    -0.00002482    0.00006415    0.00061168
     atom   15 type  2   force =     0.00000575    0.00005199    0.00004805
     atom   16 type  1   force =    -0.00008311   -0.00009569    0.00088228
     atom   17 type  2   force =     0.00004233   -0.00002210    0.00059236
     atom   18 type  2   force =    -0.00003498   -0.00004222    0.00008027
     atom   19 type  1   force =     0.00011114   -0.00022374    0.00096044
     atom   20 type  2   force =    -0.00002997   -0.00011275    0.00002080
     atom   21 type  1   force =    -0.00014403    0.00038946    0.00089701
     atom   22 type  2   force =    -0.00001365    0.00002917    0.00068828
     atom   23 type  2   force =    -0.00001064    0.00008981   -0.00000329
     atom   24 type  1   force =    -0.00002218    0.00010787    0.00077878
     atom   25 type  2   force =     0.00005549    0.00004500    0.00061985
     atom   26 type  2   force =    -0.00000406    0.00007225    0.00003550
     atom   27 type  1   force =     0.00012233   -0.00029072    0.00075389
     atom   28 type  2   force =    -0.00005133   -0.00000964    0.00050063
     atom   29 type  2   force =    -0.00005086   -0.00003089    0.00000887
     atom   30 type  1   force =     0.00004053   -0.00012612    0.00070242
     atom   31 type  2   force =     0.00013045   -0.00005725    0.00065766
     atom   32 type  2   force =    -0.00003381   -0.00010707   -0.00004606
     atom   33 type  1   force =     0.00015205    0.00027052    0.00090166
     atom   34 type  2   force =     0.00006645    0.00009476    0.00065061
     atom   35 type  2   force =    -0.00001302    0.00005752   -0.00004287
     atom   36 type  3   force =     0.00000214   -0.00015103    0.00021338

     Total force =     0.217845     Total SCF correction =     0.003719

     BFGS Geometry Optimization
     Energy error            =      0.0E+00 Ry
     Gradient error          =      1.1E-01 Ry/Bohr

     number of scf cycles    =   1
     number of bfgs steps    =   0

     energy             new  =   -2246.1676510809 Ry

     new trust radius        =       0.1306452824 bohr
     new conv_thr            =       0.0000010000 Ry


ATOMIC_POSITIONS (angstrom)
Mo            6.5757093878        1.7749801486        2.8269459704
S             8.1685709474        0.8183486546        4.4351737036
S             8.1858667347        0.8149617384        1.2749076632
Mo            8.0867414838        4.4731550254        2.6852535791
S             6.4710751003        3.7023972443        4.3298487236
S             6.5582401214        3.5205350037        1.1215442634
Mo            6.4862792148        7.2113428037        2.6622339093
S             8.0844775917        6.3609766829        4.2708144507
S             8.0879175141        6.3082829753        1.0908579626
Mo            8.1543063317        9.9005067774        2.8298366709
S             6.4981092575        8.9442764702        4.3803126016
S             6.6163134706        9.0487170083        1.1419782435
Mo            3.4243884833        1.7494477117        2.7730343307
S             4.9798514902        0.8171834210        4.3574275585
S             5.0525011940        0.8480694389        1.2222196620
Mo            4.9784862021        4.5173993475        2.6322831306
S             3.4311560577        3.6702310382        4.2802901875
S             3.4364123419        3.5445638640        1.0658893848
Mo            3.4550682257        7.2133800023        2.6285441109
S             4.9864772797        6.3241166743        1.0365691863
Mo            5.0092818063        9.9038783428        2.7432100880
S             3.4697121249        8.9429439963        4.3246112115
S             3.4079149621        9.0658243763        1.1018682904
Mo            0.2996295334        1.7432234065        2.8348467255
S             1.8588026259        0.8036671105        4.4029417900
S             1.8540538973        0.8537612505        1.2075981293
Mo            1.8589511037        4.4930309095        2.6651356556
S             0.2999564905        3.6314671578        4.3205781055
S             0.2328837201        3.5270022886        1.1713161376
Mo            0.2732968157        7.2114117986        2.7069976479
S             1.9040189856        6.3150573234        4.2306176818
S             1.8559034670        6.3146350438        1.0473164153
Mo            1.8506258606        9.9358344127        2.7673802059
S             0.2989603896        9.0705348845        4.4094816393
S             0.2728844210        9.0500586832        1.1568177247
O             8.4135312665        4.9130322836        5.1540648352



     Writing config-only to output data dir ./MoS2-V-O.save/
     NEW-OLD atomic charge density approx. for the potential

     negative rho (up, down):  1.539E-04 0.000E+00

     total cpu time spent up to now is      104.2 secs

     Self-consistent Calculation

     iteration #  1     ecut=    80.00 Ry     beta= 0.70
     Davidson diagonalization with overlap
     ethr =  1.00E-06,  avg # of iterations = 16.0

     negative rho (up, down):  5.329E-04 0.000E+00

     total cpu time spent up to now is      121.2 secs

     total energy              =   -2246.20221650 Ry
     estimated scf accuracy    <       0.03310216 Ry

     iteration #  2     ecut=    80.00 Ry     beta= 0.70
     Davidson diagonalization with overlap
     ethr =  1.06E-05,  avg # of iterations =  6.0

     negative rho (up, down):  5.966E-04 0.000E+00

     total cpu time spent up to now is      134.0 secs

     total energy              =   -2246.20475374 Ry
     estimated scf accuracy    <       0.04276374 Ry

     iteration #  3     ecut=    80.00 Ry     beta= 0.70
     Davidson diagonalization with overlap
     ethr =  1.06E-05,  avg # of iterations =  4.0

     negative rho (up, down):  8.606E-04 0.000E+00

     total cpu time spent up to now is      146.6 secs

     total energy              =   -2246.20854911 Ry
     estimated scf accuracy    <       0.00160636 Ry

     iteration #  4     ecut=    80.00 Ry     beta= 0.70
     Davidson diagonalization with overlap
     ethr =  5.15E-07,  avg # of iterations =  5.0

     negative rho (up, down):  1.088E-03 0.000E+00

     total cpu time spent up to now is      161.2 secs

     total energy              =   -2246.20858333 Ry
     estimated scf accuracy    <       0.00082203 Ry

     iteration #  5     ecut=    80.00 Ry     beta= 0.70
     Davidson diagonalization with overlap
     ethr =  2.63E-07,  avg # of iterations =  2.0

     negative rho (up, down):  1.114E-03 0.000E+00

     total cpu time spent up to now is      172.2 secs

     total energy              =   -2246.20861414 Ry
     estimated scf accuracy    <       0.00010980 Ry

     iteration #  6     ecut=    80.00 Ry     beta= 0.70
     Davidson diagonalization with overlap
     ethr =  3.52E-08,  avg # of iterations =  5.0

     negative rho (up, down):  1.015E-03 0.000E+00

     total cpu time spent up to now is      183.5 secs

     total energy              =   -2246.20862525 Ry
     estimated scf accuracy    <       0.00001318 Ry

     iteration #  7     ecut=    80.00 Ry     beta= 0.70
     Davidson diagonalization with overlap
     ethr =  4.23E-09,  avg # of iterations =  5.0

     negative rho (up, down):  8.689E-04 0.000E+00

     total cpu time spent up to now is      192.2 secs

     total energy              =   -2246.20862759 Ry
     estimated scf accuracy    <       0.00000409 Ry

     iteration #  8     ecut=    80.00 Ry     beta= 0.70
     Davidson diagonalization with overlap
     ethr =  1.31E-09,  avg # of iterations =  4.0

     negative rho (up, down):  6.374E-04 0.000E+00

     total cpu time spent up to now is      203.6 secs

     total energy              =   -2246.20862705 Ry
     estimated scf accuracy    <       0.00000144 Ry

     iteration #  9     ecut=    80.00 Ry     beta= 0.70
     Davidson diagonalization with overlap
     ethr =  4.62E-10,  avg # of iterations =  2.0

     negative rho (up, down):  1.899E-04 0.000E+00

     total cpu time spent up to now is      206.9 secs

     End of self-consistent calculation

          k = 0.0000 0.0000 0.0000 (105382 PWs)   bands (ev):

   -63.0312 -62.9469 -62.9159 -62.9083 -62.8948 -62.8583 -62.8474 -62.8311
   -62.8282 -62.8055 -62.7708 -62.7685 -37.3094 -37.2623 -37.2553 -37.2053
   -37.1988 -37.1773 -37.1447 -37.1364 -37.1331 -37.1237 -37.1131 -37.1071
   -37.1005 -37.0707 -37.0687 -37.0498 -37.0383 -37.0331 -37.0229 -37.0175
   -37.0060 -36.9995 -36.9924 -36.9811 -36.9729 -36.9606 -36.9463 -36.9411
   -36.9315 -36.9233 -36.9047 -36.8932 -36.8793 -36.7942 -36.7882 -36.7706
   -21.1853 -15.9633 -15.3803 -15.1275 -15.0721 -14.9149 -14.8194 -14.7674
   -14.5227 -14.4951 -14.4808 -14.4048 -14.3763 -14.3392 -14.2895 -14.2428
   -14.1979 -14.1628 -14.0824 -13.9715 -13.9182 -13.8897 -13.8697 -13.7559
    -8.3750  -7.8216  -7.7212  -7.4943  -7.4382  -7.3033  -7.2520  -7.2044
    -7.1103  -6.9399  -6.8973  -6.8607  -6.7624  -6.7357  -6.6687  -6.6505
    -6.5045  -6.4428  -6.3318  -6.2722  -6.1461  -6.0362  -5.9224  -5.9073
    -5.8401  -5.8101  -5.7863  -5.7771  -5.7090  -5.6913  -5.6421  -5.6202
    -5.5340  -5.5248  -5.4662  -5.3231  -5.2595  -5.1746  -5.1359  -5.0545
    -5.0177  -4.9933  -4.8776  -4.7963  -4.7532  -4.6086  -4.5307  -4.3819
    -4.3430  -4.2866  -4.1743  -4.1324  -4.0452  -3.9997  -3.9431  -3.8565
    -3.7856  -3.7504  -3.6713  -3.6375  -3.5864  -3.5642  -3.5316  -3.5173
    -3.4632  -3.4344  -3.3002  -3.2874  -3.1208  -2.9538  -2.9346  -2.8851
    -2.8397  -2.8109  -2.7638  -2.7304  -2.6795  -2.6301  -2.4875  -2.2646
    -2.1386  -2.0177  -1.8368  -1.2481  -1.0256  -0.8061  -0.7516  -0.2234
    -0.1918  -0.1338   0.0315   0.0350   0.0766   0.1401   0.2151   0.2666
     0.2816   0.3292   0.3640   0.4204   0.4932   0.5218   0.5596   0.6142
     0.6604   0.6966   0.7255   0.7322   0.7901   0.8191   0.8931   0.9128
     0.9520   1.1034   1.1494

     the Fermi energy is    -1.1369 ev

!    total energy              =   -2246.20862641 Ry
     estimated scf accuracy    <       0.00000039 Ry
     smearing contrib. (-TS)   =      -0.00579947 Ry
     internal energy E=F+TS    =   -2246.20282694 Ry

     The total energy is F=E-TS. E is the sum of the following terms:
     one-electron contribution =  -18487.60657163 Ry
     hartree contribution      =    9232.19028168 Ry
     xc contribution           =    -392.07645436 Ry
     ewald contribution        =    7411.16063667 Ry
     one-center paw contrib.   =      -9.87071930 Ry

     convergence has been achieved in   9 iterations

     negative rho (up, down):  1.899E-04 0.000E+00

     Forces acting on atoms (cartesian axes, Ry/au):

     atom    1 type  1   force =    -0.00357960   -0.01501689   -0.00282793
     atom    2 type  2   force =    -0.00891251    0.01000423   -0.00326302
     atom    3 type  2   force =    -0.01217332    0.00453601   -0.00885894
     atom    4 type  1   force =    -0.00778569   -0.02036967   -0.02233454
     atom    5 type  2   force =    -0.02385326   -0.02435378   -0.02197672
     atom    6 type  2   force =     0.00237922    0.00649221   -0.00618958
     atom    7 type  1   force =    -0.00631414   -0.01304594   -0.00280473
     atom    8 type  2   force =     0.01107383   -0.01192585    0.04595989
     atom    9 type  2   force =     0.01257007    0.00539161    0.00733642
     atom   10 type  1   force =    -0.00521364    0.00011203   -0.00902248
     atom   11 type  2   force =     0.00352337    0.00252946   -0.00962953
     atom   12 type  2   force =    -0.00455307   -0.00065008   -0.00146672
     atom   13 type  1   force =     0.00459994    0.00042342   -0.00299315
     atom   14 type  2   force =     0.00544118   -0.00114463    0.00974742
     atom   15 type  2   force =    -0.00817357    0.00192639   -0.00736388
     atom   16 type  1   force =    -0.00385944    0.00697375   -0.00487360
     atom   17 type  2   force =     0.00478535   -0.00086035    0.00116146
     atom   18 type  2   force =    -0.00223047   -0.00601721    0.01020600
     atom   19 type  1   force =     0.00283084   -0.00565270    0.00072152
     atom   20 type  2   force =     0.00430058   -0.00401197   -0.00545340
     atom   21 type  1   force =    -0.00402999    0.00280846    0.00237589
     atom   22 type  2   force =    -0.00123440   -0.00133088   -0.00170615
     atom   23 type  2   force =    -0.00025728    0.00039723    0.00546563
     atom   24 type  1   force =     0.00430175   -0.01032782   -0.01547276
     atom   25 type  2   force =     0.01184157    0.01417614    0.00142504
     atom   26 type  2   force =    -0.00640968   -0.00263034   -0.00638936
     atom   27 type  1   force =    -0.00209853    0.00124345    0.00732860
     atom   28 type  2   force =     0.02750432   -0.03115916   -0.03183995
     atom   29 type  2   force =     0.00584161   -0.00306693   -0.01004522
     atom   30 type  1   force =     0.00425556   -0.00947991    0.01071315
     atom   31 type  2   force =     0.00347818    0.00069518    0.01204302
     atom   32 type  2   force =    -0.01039508    0.00564604    0.00521657
     atom   33 type  1   force =     0.00667453   -0.00233318   -0.00044704
     atom   34 type  2   force =     0.00327159   -0.02621948   -0.01282175
     atom   35 type  2   force =    -0.00574914    0.00799910    0.00853282
     atom   36 type  3   force =    -0.00185071    0.11824205    0.05954699
     The non-local contrib.  to forces
     atom    1 type  1   force =     0.00292175    0.03362967   -0.01121614
     atom    2 type  2   force =    -0.00813431   -0.00976286   -0.27066782
     atom    3 type  2   force =    -0.01464093   -0.00681632    0.26330483
     atom    4 type  1   force =     0.00592563   -0.01099877   -0.01144223
     atom    5 type  2   force =    -0.03461708   -0.04425171   -0.25838863
     atom    6 type  2   force =     0.00303215    0.00883725    0.26241820
     atom    7 type  1   force =    -0.02056670   -0.02134483   -0.00263599
     atom    8 type  2   force =     0.09800768   -0.44457537   -0.00904480
     atom    9 type  2   force =     0.00472801   -0.01201733    0.27762537
     atom   10 type  1   force =    -0.00049049    0.02588882    0.00239406
     atom   11 type  2   force =     0.01608055    0.01209300   -0.25824425
     atom   12 type  2   force =    -0.01381651   -0.01747188    0.26211095
     atom   13 type  1   force =    -0.00014523    0.02437682   -0.01226586
     atom   14 type  2   force =     0.01121311   -0.01045486   -0.26455875
     atom   15 type  2   force =    -0.01214499   -0.00737533    0.26101221
     atom   16 type  1   force =     0.00288384    0.01394290   -0.02725508
     atom   17 type  2   force =    -0.00094327   -0.02549482   -0.24600070
     atom   18 type  2   force =    -0.00255915   -0.00217709    0.27468948
     atom   19 type  1   force =     0.01320454   -0.00178404   -0.01834037
     atom   20 type  2   force =     0.00094716   -0.01188340    0.26340591
     atom   21 type  1   force =    -0.00102834    0.03174714    0.00393269
     atom   22 type  2   force =    -0.00577376    0.00172713   -0.25848411
     atom   23 type  2   force =     0.00853440   -0.01809905    0.26459182
     atom   24 type  1   force =     0.00861606    0.02988209   -0.00717987
     atom   25 type  2   force =     0.00397144    0.00288591   -0.26396609
     atom   26 type  2   force =     0.00171069   -0.01565364    0.26351466
     atom   27 type  1   force =     0.00442625   -0.01265977    0.00778712
     atom   28 type  2   force =    -0.07302996    0.05664150   -0.21949620
     atom   29 type  2   force =     0.00686645    0.00281539    0.25829027
     atom   30 type  1   force =    -0.00290269    0.01528031   -0.00146021
     atom   31 type  2   force =    -0.00665684    0.00455422   -0.25570144
     atom   32 type  2   force =    -0.01040301    0.00313416    0.26667463
     atom   33 type  1   force =    -0.00309709    0.01107784    0.00421822
     atom   34 type  2   force =    -0.00437582   -0.02617025   -0.27516675
     atom   35 type  2   force =    -0.00209590   -0.01472735    0.26981708
     atom   36 type  3   force =    -0.09365584    1.10490712   -0.85077209
     The ionic contribution  to forces
     atom    1 type  1   force =    -0.40452261   -1.09330591    4.24657655
     atom    2 type  2   force =    -0.51167398   -0.45330079   39.08155793
     atom    3 type  2   force =    -0.17139729   -0.22478028  -36.76136847
     atom    4 type  1   force =    -0.58380418   -0.07586310   -7.37820365
     atom    5 type  2   force =    -3.14347458    0.06595907   37.44917294
     atom    6 type  2   force =    -0.10839346   -0.86025129  -39.02830403
     atom    7 type  1   force =    -3.46218242   -1.23411271    0.20814977
     atom    8 type  2   force =    -2.30033837    5.21349010   34.02863822
     atom    9 type  2   force =     0.34537537    0.34195324  -38.98219959
     atom   10 type  1   force =    -0.88434693    0.00428340    4.28122214
     atom   11 type  2   force =    -0.82396697   -1.10494130   38.87534558
     atom   12 type  2   force =     0.30855191    0.80587274  -38.40465396
     atom   13 type  1   force =     0.55735341    0.22586491    1.74984542
     atom   14 type  2   force =    -0.21208612   -0.35583929   38.49150985
     atom   15 type  2   force =     0.08963985   -0.18616018  -37.38228488
     atom   16 type  1   force =    -1.19542032    3.76894874   -1.38550204
     atom   17 type  2   force =     0.96146529    1.22842414   37.71288530
     atom   18 type  2   force =    -0.13328725   -0.69335157  -39.15829837
     atom   19 type  1   force =     2.79187540   -1.81311784   -0.61237819
     atom   20 type  2   force =     0.00324382   -0.04484468  -39.25429786
     atom   21 type  1   force =    -0.16649911    0.12432394    0.43966934
     atom   22 type  2   force =     0.49887452   -1.46675428   38.31928970
     atom   23 type  2   force =    -0.05428106    0.71573562  -38.75133544
     atom   24 type  1   force =     0.03612335   -0.77001027    3.63397814
     atom   25 type  2   force =     0.78571564   -0.20683261   39.13326248
     atom   26 type  2   force =    -0.12388838   -0.12865020  -37.87375871
     atom   27 type  1   force =     1.64780980    0.36530777   -4.33261631
     atom   28 type  2   force =     2.77713564   -1.81210310   36.05737023
     atom   29 type  2   force =     0.09256840   -0.63348073  -38.39687001
     atom   30 type  1   force =     0.51184093    0.94902393   -2.30924611
     atom   31 type  2   force =     2.36835446    0.59494786   36.90584859
     atom   32 type  2   force =    -0.27504285    0.13025333  -39.35128344
     atom   33 type  1   force =     0.84554634   -0.52932628    1.21006632
     atom   34 type  2   force =     0.41044960   -0.63472453   39.04027091
     atom   35 type  2   force =    -0.19768058    0.55960834  -38.28817008
     atom   36 type  3   force =    -0.27963729   -0.77224617   46.78611172
     The local contribution  to forces
     atom    1 type  1   force =     0.39805373    1.04467111   -4.23754360
     atom    2 type  2   force =     0.51053169    0.47265193  -38.83454656
     atom    3 type  2   force =     0.17316915    0.23576762   36.50986109
     atom    4 type  1   force =     0.56992928    0.06625807    7.36728905
     atom    5 type  2   force =     3.15194345   -0.04889299  -37.23361952
     atom    6 type  2   force =     0.10805409    0.85921579   38.78068349
     atom    7 type  1   force =     3.47614823    1.24239110   -0.20803164
     atom    8 type  2   force =     2.21871561   -4.80578942  -33.97924295
     atom    9 type  2   force =    -0.33763554   -0.32529992   38.73299412
     atom   10 type  1   force =     0.87949757   -0.03004019   -4.29231082
     atom   11 type  2   force =     0.81212341    1.09622278  -38.64694440
     atom   12 type  2   force =    -0.30041233   -0.79044764   38.16200286
     atom   13 type  1   force =    -0.55261271   -0.24981340   -1.74013253
     atom   14 type  2   force =     0.20698868    0.36498966  -38.23758708
     atom   15 type  2   force =    -0.08640403    0.19493048   37.13455628
     atom   16 type  1   force =     1.18877114   -3.77581640    1.40839705
     atom   17 type  2   force =    -0.95590557   -1.20506177  -37.48545974
     atom   18 type  2   force =     0.13366506    0.69006893   38.91501861
     atom   19 type  1   force =    -2.80214103    1.80933035    0.63190280
     atom   20 type  2   force =     0.00012288    0.05228898   39.00667165
     atom   21 type  1   force =     0.16346143   -0.15329784   -0.44077717
     atom   22 type  2   force =    -0.49444421    1.46409429  -38.08275023
     atom   23 type  2   force =     0.04604774   -0.69862852   38.51309758
     atom   24 type  1   force =    -0.04044595    0.72992800   -3.64183588
     atom   25 type  2   force =    -0.77789182    0.21845120  -38.88827416
     atom   26 type  2   force =     0.11608769    0.14082410   37.62477616
     atom   27 type  1   force =    -1.65425431   -0.35149749    4.33270941
     atom   28 type  2   force =    -2.67957078    1.72589548  -35.88797265
     atom   29 type  2   force =    -0.09328954    0.62828806   38.14903659
     atom   30 type  1   force =    -0.50449294   -0.97359271    2.32181717
     atom   31 type  2   force =    -2.35863788   -0.59863332  -36.65840905
     atom   32 type  2   force =     0.27479326   -0.12763407   39.11050295
     atom   33 type  1   force =    -0.83561833    0.51580276   -1.21437381
     atom   34 type  2   force =    -0.40325658    0.63380011  -38.79873399
     atom   35 type  2   force =     0.19408114   -0.53792557   38.04800864
     atom   36 type  3   force =     0.37023054   -0.20167245  -45.88396098
     The core correction contribution to forces
     atom    1 type  1   force =     0.00000000    0.00000000    0.00000000
     atom    2 type  2   force =     0.00027468    0.00040250    0.02073664
     atom    3 type  2   force =     0.00068152    0.00030844   -0.02059207
     atom    4 type  1   force =     0.00000000    0.00000000    0.00000000
     atom    5 type  2   force =     0.00214100    0.00278133    0.02111720
     atom    6 type  2   force =    -0.00027323   -0.00119599   -0.02088257
     atom    7 type  1   force =     0.00000000    0.00000000    0.00000000
     atom    8 type  2   force =    -0.00538887    0.02510882    0.00593229
     atom    9 type  2   force =     0.00002228    0.00071064   -0.02110742
     atom   10 type  1   force =     0.00000000    0.00000000    0.00000000
     atom   11 type  2   force =    -0.00076258   -0.00079790    0.02053861
     atom   12 type  2   force =     0.00112576    0.00141555   -0.02085833
     atom   13 type  1   force =     0.00000000    0.00000000    0.00000000
     atom   14 type  2   force =    -0.00064772    0.00011993    0.02072617
     atom   15 type  2   force =     0.00069796    0.00047112   -0.02058346
     atom   16 type  1   force =     0.00000000    0.00000000    0.00000000
     atom   17 type  2   force =     0.00020559    0.00130994    0.02004915
     atom   18 type  2   force =     0.00000067   -0.00056126   -0.02111657
     atom   19 type  1   force =     0.00000000    0.00000000    0.00000000
     atom   20 type  2   force =     0.00003453    0.00040713   -0.02113494
     atom   21 type  1   force =     0.00000000    0.00000000    0.00000000
     atom   22 type  2   force =     0.00010841   -0.00037378    0.02055718
     atom   23 type  2   force =    -0.00057006    0.00143132   -0.02081371
     atom   24 type  1   force =     0.00000000    0.00000000    0.00000000
     atom   25 type  2   force =     0.00011329   -0.00033745    0.02076766
     atom   26 type  2   force =    -0.00030536    0.00080176   -0.02087946
     atom   27 type  1   force =     0.00000000    0.00000000    0.00000000
     atom   28 type  2   force =     0.00310963   -0.00168318    0.01852793
     atom   29 type  2   force =    -0.00038359   -0.00069289   -0.02043469
     atom   30 type  1   force =     0.00000000    0.00000000    0.00000000
     atom   31 type  2   force =     0.00048793   -0.00015183    0.02067479
     atom   32 type  2   force =     0.00028107   -0.00007113   -0.02069387
     atom   33 type  1   force =     0.00000000    0.00000000    0.00000000
     atom   34 type  2   force =     0.00050666    0.00085384    0.02117637
     atom   35 type  2   force =    -0.00005259    0.00111802   -0.02108736
     atom   36 type  3   force =     0.00119984   -0.01269253    0.00855140
     The Hubbard contrib.    to forces
     atom    1 type  1   force =     0.00000000    0.00000000    0.00000000
     atom    2 type  2   force =     0.00000000    0.00000000    0.00000000
     atom    3 type  2   force =     0.00000000    0.00000000    0.00000000
     atom    4 type  1   force =     0.00000000    0.00000000    0.00000000
     atom    5 type  2   force =     0.00000000    0.00000000    0.00000000
     atom    6 type  2   force =     0.00000000    0.00000000    0.00000000
     atom    7 type  1   force =     0.00000000    0.00000000    0.00000000
     atom    8 type  2   force =     0.00000000    0.00000000    0.00000000
     atom    9 type  2   force =     0.00000000    0.00000000    0.00000000
     atom   10 type  1   force =     0.00000000    0.00000000    0.00000000
     atom   11 type  2   force =     0.00000000    0.00000000    0.00000000
     atom   12 type  2   force =     0.00000000    0.00000000    0.00000000
     atom   13 type  1   force =     0.00000000    0.00000000    0.00000000
     atom   14 type  2   force =     0.00000000    0.00000000    0.00000000
     atom   15 type  2   force =     0.00000000    0.00000000    0.00000000
     atom   16 type  1   force =     0.00000000    0.00000000    0.00000000
     atom   17 type  2   force =     0.00000000    0.00000000    0.00000000
     atom   18 type  2   force =     0.00000000    0.00000000    0.00000000
     atom   19 type  1   force =     0.00000000    0.00000000    0.00000000
     atom   20 type  2   force =     0.00000000    0.00000000    0.00000000
     atom   21 type  1   force =     0.00000000    0.00000000    0.00000000
     atom   22 type  2   force =     0.00000000    0.00000000    0.00000000
     atom   23 type  2   force =     0.00000000    0.00000000    0.00000000
     atom   24 type  1   force =     0.00000000    0.00000000    0.00000000
     atom   25 type  2   force =     0.00000000    0.00000000    0.00000000
     atom   26 type  2   force =     0.00000000    0.00000000    0.00000000
     atom   27 type  1   force =     0.00000000    0.00000000    0.00000000
     atom   28 type  2   force =     0.00000000    0.00000000    0.00000000
     atom   29 type  2   force =     0.00000000    0.00000000    0.00000000
     atom   30 type  1   force =     0.00000000    0.00000000    0.00000000
     atom   31 type  2   force =     0.00000000    0.00000000    0.00000000
     atom   32 type  2   force =     0.00000000    0.00000000    0.00000000
     atom   33 type  1   force =     0.00000000    0.00000000    0.00000000
     atom   34 type  2   force =     0.00000000    0.00000000    0.00000000
     atom   35 type  2   force =     0.00000000    0.00000000    0.00000000
     atom   36 type  3   force =     0.00000000    0.00000000    0.00000000
     The SCF correction term to forces
     atom    1 type  1   force =    -0.00003316   -0.00001156   -0.00062716
     atom    2 type  2   force =     0.00008871    0.00001365   -0.00032561
     atom    3 type  2   force =     0.00001353    0.00005674   -0.00004673
     atom    4 type  1   force =     0.00016289    0.00023434    0.00003988
     atom    5 type  2   force =     0.00015326    0.00005073   -0.00024112
     atom    6 type  2   force =    -0.00004103   -0.00011335   -0.00008708
     atom    7 type  1   force =     0.00028606    0.00002071   -0.00026928
     atom    8 type  2   force =     0.00007709   -0.00015977   -0.00030528
     atom    9 type  2   force =     0.00007925    0.00004519    0.00004153
     atom   10 type  1   force =     0.00012551   -0.00001980   -0.00031027
     atom   11 type  2   force =     0.00004826   -0.00004691   -0.00030748
     atom   12 type  2   force =    -0.00000259   -0.00001865   -0.00005064
     atom   13 type  1   force =     0.00000377   -0.00000471   -0.00042259
     atom   14 type  2   force =    -0.00002746    0.00004013   -0.00032518
     atom   15 type  2   force =     0.00003695    0.00006050   -0.00004642
     atom   16 type  1   force =    -0.00009480   -0.00010128   -0.00049594
     atom   17 type  2   force =    -0.00003738   -0.00003764   -0.00029496
     atom   18 type  2   force =    -0.00005049    0.00000399   -0.00006956
     atom   19 type  1   force =    -0.00010877   -0.00008097   -0.00044513
     atom   20 type  2   force =    -0.00004852    0.00002020   -0.00008057
     atom   21 type  1   force =     0.00003534    0.00003542   -0.00043137
     atom   22 type  2   force =    -0.00000006   -0.00002403   -0.00030110
     atom   23 type  2   force =     0.00001100   -0.00004194   -0.00005703
     atom   24 type  1   force =     0.00000760   -0.00012744   -0.00041755
     atom   25 type  2   force =    -0.00006768    0.00000930   -0.00034726
     atom   26 type  2   force =    -0.00001501    0.00004785   -0.00002441
     atom   27 type  1   force =    -0.00008096    0.00009314   -0.00053404
     atom   28 type  2   force =    -0.00014091    0.00009034   -0.00025168
     atom   29 type  2   force =     0.00007920    0.00000345   -0.00004979
     atom   30 type  1   force =    -0.00019043   -0.00019124   -0.00038012
     atom   31 type  2   force =    -0.00007018   -0.00002154   -0.00035227
     atom   32 type  2   force =    -0.00002425   -0.00003605    0.00003389
     atom   33 type  1   force =    -0.00015709    0.00011270   -0.00034018
     atom   34 type  2   force =    -0.00005297    0.00002156   -0.00035070
     atom   35 type  2   force =    -0.00000191   -0.00007413   -0.00001787
     atom   36 type  3   force =     0.00001134   -0.00005372   -0.00036546

     Total force =     0.173438     Total SCF correction =     0.001966
     Energy error            =      4.1E-02 Ry
     Gradient error          =      1.2E-01 Ry/Bohr

     number of scf cycles    =   2
     number of bfgs steps    =   1

     energy             old  =   -2246.1676510809 Ry
     energy             new  =   -2246.2086264126 Ry

     CASE: energy            _new < energy            _old

     new trust radius        =       0.1437098107 bohr
     new conv_thr            =       0.0000001182 Ry


ATOMIC_POSITIONS (angstrom)
Mo            6.5745982119        1.7647513690        2.8268186694
S             8.1623346601        0.8251944850        4.4340277414
S             8.1785283971        0.8180029199        1.2703176089
Mo            8.0808810249        4.4578632636        2.6657969072
S             6.4521656744        3.6860560785        4.3154954189
S             6.5607599097        3.5259803659        1.1190744178
Mo            6.4825101498        7.2037300820        2.6580410690
S             8.0899101177        6.3614391998        4.2986904115
S             8.0953041990        6.3116332186        1.0960844700
Mo            8.1501700021        9.9000264682        2.8218289362
S             6.5004879129        8.9457443479        4.3754622341
S             6.6139215811        9.0484507054        1.1420247992
Mo            3.4271442155        1.7504062809        2.7707185876
S             4.9835699139        0.8167875152        4.3636168725
S             5.0474523877        0.8494325610        1.2177859874
Mo            4.9764946793        4.5216037026        2.6300837986
S             3.4341724825        3.6694456130        4.2809518908
S             3.4350178951        3.5409291115        1.0724702028
Mo            3.4566153662        7.2101221943        2.6281707506
S             4.9892713242        6.3215761477        1.0341045633
Mo            5.0066814694        9.9057534375        2.7441299824
S             3.4688110094        8.9421411086        4.3235991709
S             3.4076470808        9.0662507089        1.1059472540
Mo            0.3025171703        1.7376152757        2.8238724917
S             1.8663105668        0.8129661825        4.4050183274
S             1.8492879042        0.8524672598        1.2043956932
Mo            1.8575381004        4.4927145493        2.6697119146
S             0.3200284186        3.6114012879        4.3020956286
S             0.2358129807        3.5256596404        1.1669521949
Mo            0.2757267354        7.2058551003        2.7130840543
S             1.9060137829        6.3160545628        4.2381562211
S             1.8496231094        6.3183137666        1.0503353824
Mo            1.8553541933        9.9335178349        2.7654447702
S             0.3012684894        9.0535976447        4.4028128853
S             0.2692903469        9.0554131734        1.1623558480
O             8.4151344376        4.9793381357        5.1912704202



     Writing config-only to output data dir ./MoS2-V-O.save/
     NEW-OLD atomic charge density approx. for the potential

     negative rho (up, down):  1.546E-04 0.000E+00

     total cpu time spent up to now is      213.9 secs

     Self-consistent Calculation

     iteration #  1     ecut=    80.00 Ry     beta= 0.70
     Davidson diagonalization with overlap
     ethr =  1.00E-06,  avg # of iterations = 13.0

     negative rho (up, down):  3.222E-04 0.000E+00

     total cpu time spent up to now is      226.6 secs

     total energy              =   -2246.23435084 Ry
     estimated scf accuracy    <       0.02586596 Ry

     iteration #  2     ecut=    80.00 Ry     beta= 0.70
     Davidson diagonalization with overlap
     ethr =  8.29E-06,  avg # of iterations =  6.0

     negative rho (up, down):  3.479E-04 0.000E+00

     total cpu time spent up to now is      241.0 secs

     total energy              =   -2246.23711514 Ry
     estimated scf accuracy    <       0.03411496 Ry

     iteration #  3     ecut=    80.00 Ry     beta= 0.70
     Davidson diagonalization with overlap
     ethr =  8.29E-06,  avg # of iterations =  4.0

     negative rho (up, down):  4.692E-04 0.000E+00

     total cpu time spent up to now is      251.5 secs

     total energy              =   -2246.24004222 Ry
     estimated scf accuracy    <       0.00077499 Ry

     iteration #  4     ecut=    80.00 Ry     beta= 0.70
     Davidson diagonalization with overlap
     ethr =  2.48E-07,  avg # of iterations =  6.0

     negative rho (up, down):  5.824E-04 0.000E+00

     total cpu time spent up to now is      265.2 secs

     total energy              =   -2246.24009284 Ry
     estimated scf accuracy    <       0.00042718 Ry

     iteration #  5     ecut=    80.00 Ry     beta= 0.70
     Davidson diagonalization with overlap
     ethr =  1.37E-07,  avg # of iterations =  2.0

     negative rho (up, down):  6.102E-04 0.000E+00

     total cpu time spent up to now is      282.3 secs

     total energy              =   -2246.24010984 Ry
     estimated scf accuracy    <       0.00005781 Ry

     iteration #  6     ecut=    80.00 Ry     beta= 0.70
     Davidson diagonalization with overlap
     ethr =  1.85E-08,  avg # of iterations =  5.0

     negative rho (up, down):  5.786E-04 0.000E+00

     total cpu time spent up to now is      295.4 secs

     total energy              =   -2246.24011619 Ry
     estimated scf accuracy    <       0.00000672 Ry

     iteration #  7     ecut=    80.00 Ry     beta= 0.70
     Davidson diagonalization with overlap
     ethr =  2.15E-09,  avg # of iterations =  5.0

     negative rho (up, down):  5.232E-04 0.000E+00

     total cpu time spent up to now is      306.5 secs

     total energy              =   -2246.24011788 Ry
     estimated scf accuracy    <       0.00000225 Ry

     iteration #  8     ecut=    80.00 Ry     beta= 0.70
     Davidson diagonalization with overlap
     ethr =  7.20E-10,  avg # of iterations =  2.0

     negative rho (up, down):  4.296E-04 0.000E+00

     total cpu time spent up to now is      318.3 secs

     total energy              =   -2246.24011794 Ry
     estimated scf accuracy    <       0.00000068 Ry

     iteration #  9     ecut=    80.00 Ry     beta= 0.70
     Davidson diagonalization with overlap
     ethr =  2.18E-10,  avg # of iterations =  6.0

     negative rho (up, down):  3.752E-04 0.000E+00

     total cpu time spent up to now is      328.7 secs

     total energy              =   -2246.24011800 Ry
     estimated scf accuracy    <       0.00000017 Ry

     iteration # 10     ecut=    80.00 Ry     beta= 0.70
     Davidson diagonalization with overlap
     ethr =  5.31E-11,  avg # of iterations =  2.0

     negative rho (up, down):  1.939E-04 0.000E+00

     total cpu time spent up to now is      332.0 secs

     End of self-consistent calculation

          k = 0.0000 0.0000 0.0000 (105382 PWs)   bands (ev):

   -63.0227 -62.9569 -62.9318 -62.9193 -62.9104 -62.8789 -62.8758 -62.8606
   -62.8462 -62.8196 -62.7986 -62.7771 -37.3147 -37.2677 -37.2551 -37.2181
   -37.2060 -37.1780 -37.1617 -37.1487 -37.1447 -37.1349 -37.1273 -37.1195
   -37.1144 -37.0914 -37.0871 -37.0656 -37.0586 -37.0529 -37.0487 -37.0371
   -37.0296 -37.0177 -37.0110 -37.0053 -36.9987 -36.9780 -36.9598 -36.9552
   -36.9465 -36.9401 -36.9201 -36.9093 -36.9023 -36.8106 -36.8081 -36.7926
   -21.2221 -15.9842 -15.3343 -15.1373 -15.0520 -14.9320 -14.7880 -14.7419
   -14.5395 -14.5078 -14.4935 -14.4171 -14.3877 -14.3555 -14.2930 -14.2622
   -14.1993 -14.1801 -14.1002 -13.9780 -13.9382 -13.9049 -13.8907 -13.7122
    -8.2200  -7.7920  -7.6992  -7.5049  -7.4571  -7.3216  -7.2748  -7.2155
    -7.1276  -6.9547  -6.9118  -6.8764  -6.7736  -6.7248  -6.6868  -6.6623
    -6.5226  -6.4566  -6.3565  -6.2873  -6.1429  -6.0512  -5.9262  -5.8974
    -5.8614  -5.8185  -5.7970  -5.7929  -5.7250  -5.7058  -5.6586  -5.6326
    -5.5420  -5.5331  -5.4508  -5.3302  -5.2498  -5.1855  -5.1542  -5.0576
    -5.0278  -5.0087  -4.8827  -4.8139  -4.7647  -4.6189  -4.5116  -4.4036
    -4.3489  -4.2979  -4.1819  -4.1522  -4.0633  -4.0269  -3.9610  -3.8597
    -3.7991  -3.7473  -3.6865  -3.6490  -3.6040  -3.5830  -3.5459  -3.5231
    -3.4661  -3.4594  -3.3082  -3.2919  -3.1253  -2.9569  -2.9329  -2.8777
    -2.8457  -2.8193  -2.7851  -2.7495  -2.6980  -2.6439  -2.5045  -2.3019
    -2.1589  -2.0400  -1.8819  -1.3233  -1.0222  -0.8195  -0.7402  -0.2378
    -0.2030  -0.1390   0.0124   0.0280   0.0631   0.1302   0.2063   0.2552
     0.2724   0.3176   0.3408   0.4087   0.4736   0.5121   0.5521   0.6060
     0.6534   0.6829   0.7104   0.7269   0.7787   0.8157   0.8702   0.9068
     0.9468   1.0844   1.1477

     the Fermi energy is    -1.1728 ev

!    total energy              =   -2246.24011806 Ry
     estimated scf accuracy    <       0.00000008 Ry
     smearing contrib. (-TS)   =      -0.00332200 Ry
     internal energy E=F+TS    =   -2246.23679605 Ry

     The total energy is F=E-TS. E is the sum of the following terms:
     one-electron contribution =  -18481.32342522 Ry
     hartree contribution      =    9228.94447206 Ry
     xc contribution           =    -392.08167974 Ry
     ewald contribution        =    7408.09196305 Ry
     one-center paw contrib.   =      -9.86812621 Ry

     convergence has been achieved in  10 iterations

     negative rho (up, down):  1.939E-04 0.000E+00

     Forces acting on atoms (cartesian axes, Ry/au):

     atom    1 type  1   force =    -0.00626641   -0.00854479   -0.00917002
     atom    2 type  2   force =    -0.00452607    0.00542419   -0.00529381
     atom    3 type  2   force =    -0.00977755    0.00203247   -0.00976048
     atom    4 type  1   force =    -0.00339220   -0.00569377   -0.00658247
     atom    5 type  2   force =    -0.00391947   -0.01435298   -0.01271629
     atom    6 type  2   force =    -0.00263054   -0.00041736   -0.01025134
     atom    7 type  1   force =    -0.00305369   -0.01307710    0.00808325
     atom    8 type  2   force =     0.01335928   -0.03545656    0.03113234
     atom    9 type  2   force =     0.01069981    0.00379863    0.00507418
     atom   10 type  1   force =    -0.00162658    0.00259646   -0.00052400
     atom   11 type  2   force =     0.00231681    0.00234115   -0.01134787
     atom   12 type  2   force =    -0.00520736   -0.00171088   -0.00308103
     atom   13 type  1   force =     0.00355701   -0.00214153   -0.00087290
     atom   14 type  2   force =     0.00298824   -0.00210227    0.00722439
     atom   15 type  2   force =    -0.00702639    0.00005021   -0.00650089
     atom   16 type  1   force =    -0.00296065    0.00562250   -0.00682646
     atom   17 type  2   force =     0.00379343    0.00056958    0.00148321
     atom   18 type  2   force =    -0.00224846   -0.00465379    0.00681395
     atom   19 type  1   force =     0.00272218   -0.00615707    0.00303577
     atom   20 type  2   force =     0.00283800   -0.00226318   -0.00743967
     atom   21 type  1   force =    -0.00299574    0.00210042    0.00249060
     atom   22 type  2   force =    -0.00040837   -0.00112831   -0.00094724
     atom   23 type  2   force =     0.00016268   -0.00051966    0.00239509
     atom   24 type  1   force =     0.00040098   -0.01089438   -0.01009044
     atom   25 type  2   force =     0.00876535    0.00896663   -0.00258054
     atom   26 type  2   force =    -0.00112657   -0.00395773   -0.00775441
     atom   27 type  1   force =    -0.00021488    0.00431423    0.00256334
     atom   28 type  2   force =     0.01143201   -0.02263923   -0.02582749
     atom   29 type  2   force =     0.00730791   -0.00431639   -0.01341202
     atom   30 type  1   force =     0.00294026   -0.00752960    0.01028218
     atom   31 type  2   force =     0.00404552   -0.00187560    0.01026273
     atom   32 type  2   force =    -0.00843018    0.00382890    0.00547749
     atom   33 type  1   force =     0.00326068    0.00113840    0.00361757
     atom   34 type  2   force =     0.00139057   -0.01789937   -0.01321674
     atom   35 type  2   force =    -0.00399688    0.00406718    0.00681272
     atom   36 type  3   force =    -0.01217275    0.12048060    0.05744731
     The non-local contrib.  to forces
     atom    1 type  1   force =     0.00381713    0.03193897   -0.01173846
     atom    2 type  2   force =    -0.00507692   -0.01298247   -0.27147974
     atom    3 type  2   force =    -0.01179277   -0.00918080    0.26153193
     atom    4 type  1   force =     0.00549622   -0.01201640   -0.00566636
     atom    5 type  2   force =    -0.02642710   -0.04184298   -0.25259049
     atom    6 type  2   force =    -0.00276921    0.00377053    0.25977799
     atom    7 type  1   force =    -0.02139975   -0.01947856   -0.00524275
     atom    8 type  2   force =     0.09705862   -0.45197234    0.01820435
     atom    9 type  2   force =     0.00082203   -0.01412419    0.27765596
     atom   10 type  1   force =    -0.00084043    0.02494932    0.00322480
     atom   11 type  2   force =     0.01363672    0.01010711   -0.26039081
     atom   12 type  2   force =    -0.01457368   -0.01870103    0.26179373
     atom   13 type  1   force =     0.00036555    0.02611095   -0.01241736
     atom   14 type  2   force =     0.00818208   -0.01145226   -0.26561044
     atom   15 type  2   force =    -0.01130140   -0.00899988    0.26083405
     atom   16 type  1   force =     0.00412186    0.01649735   -0.02893372
     atom   17 type  2   force =    -0.00148652   -0.02493623   -0.24655207
     atom   18 type  2   force =    -0.00308714   -0.00103725    0.27266341
     atom   19 type  1   force =     0.01306251   -0.00049755   -0.02126882
     atom   20 type  2   force =    -0.00080999   -0.00925865    0.26091611
     atom   21 type  1   force =    -0.00189846    0.03298555    0.00360641
     atom   22 type  2   force =    -0.00433465    0.00151570   -0.25874122
     atom   23 type  2   force =     0.00882744   -0.01893484    0.26290948
     atom   24 type  1   force =     0.00915017    0.02767728   -0.00802046
     atom   25 type  2   force =     0.00287078   -0.00186874   -0.26569017
     atom   26 type  2   force =     0.00594798   -0.01599934    0.26311049
     atom   27 type  1   force =     0.00258949   -0.01364954    0.00796333
[...]
     atom   28 type  2   force =    -0.00169481   -0.01048992   -0.27833130
     atom   29 type  2   force =    -0.00091005   -0.00708077    0.26812544
     atom   30 type  1   force =    -0.00508448    0.00316914    0.02007097
     atom   31 type  2   force =    -0.00862981   -0.00033915   -0.26902665
     atom   32 type  2   force =     0.00901110   -0.01392311    0.26313203
     atom   33 type  1   force =     0.00034684    0.00694204    0.00438593
     atom   34 type  2   force =     0.00079375   -0.00801505   -0.27702128
     atom   35 type  2   force =     0.00042381   -0.01413719    0.26442107
     atom   36 type  3   force =     0.02601783    0.04736220   -2.30951447
     The ionic contribution  to forces
     atom    1 type  1   force =    -0.26141196    0.19407076    2.16802085
     atom    2 type  2   force =    -0.15038068    0.05464552   38.59878217
     atom    3 type  2   force =     0.06097994   -0.05481539  -37.74451583
     atom    4 type  1   force =    -0.08261141   -0.97529585   -3.73937714
     atom    5 type  2   force =    -1.45850798    0.11247341   37.67433416
     atom    6 type  2   force =     0.12830649   -0.51488267  -38.70923216
     atom    7 type  1   force =    -3.37405707   -1.46438782   -2.25541062
     atom    8 type  2   force =    -1.13547305    0.24936559   27.95249292
     atom    9 type  2   force =     0.36914949   -0.00662148  -38.64596874
     atom   10 type  1   force =    -0.39054527    0.64529243    1.84434103
     atom   11 type  2   force =    -1.05204082   -0.32190825   37.91704833
     atom   12 type  2   force =     0.22998766    0.60895928  -38.75741564
     atom   13 type  1   force =     0.07046824    0.53709224    2.04239590
     atom   14 type  2   force =    -0.10372418   -0.04532569   38.56096046
     atom   15 type  2   force =    -0.01887939   -0.09076033  -37.86288773
     atom   16 type  1   force =    -0.56216336    2.77916958    0.47843145
     atom   17 type  2   force =     0.77353522    0.85904872   38.03070137
     atom   18 type  2   force =    -0.20092631   -0.52056324  -38.44487615
     atom   19 type  1   force =     2.57765586   -1.60758886    0.88487936
     atom   20 type  2   force =    -0.08630518   -0.12701372  -39.60713162
     atom   21 type  1   force =    -0.31581607    0.41979513    0.21488435
     atom   22 type  2   force =     0.39994668   -1.11090748   38.28330038
     atom   23 type  2   force =    -0.25723348    0.50435448  -38.44469717
     atom   24 type  1   force =     0.15979901   -0.09507497    1.62702112
     atom   25 type  2   force =     0.27285738    0.06914576   38.70296827
     atom   26 type  2   force =    -0.03020552   -0.04461885  -37.85186246
     atom   27 type  1   force =     0.60391728   -0.29597323   -1.02505697
     atom   28 type  2   force =     0.63365260   -0.45787348   37.49465974
     atom   29 type  2   force =     0.08864878   -0.26237321  -38.41065676
     atom   30 type  1   force =     1.05510048   -0.02721706   -1.77649371
     atom   31 type  2   force =     2.02311234    0.03741210   37.57819331
     atom   32 type  2   force =    -0.30425906   -0.04663904  -38.72152637
     atom   33 type  1   force =     0.72911938    0.22049670    1.89131748
     atom   34 type  2   force =     0.55873317    0.59462396   38.30019868
     atom   35 type  2   force =     0.00837342    0.38381789  -38.20754866
     atom   36 type  3   force =    -0.95880263   -0.19992291   49.95972640
     The local contribution  to forces
     atom    1 type  1   force =     0.26672067   -0.21895389   -2.16118483
     atom    2 type  2   force =     0.15181338   -0.04446760  -38.34968918
     atom    3 type  2   force =    -0.05854760    0.06430950   37.49704030
     atom    4 type  1   force =     0.08115938    0.95069906    3.71534096
     atom    5 type  2   force =     1.45635568   -0.09031673  -37.43507520
     atom    6 type  2   force =    -0.12787940    0.51655404   38.46240511
     atom    7 type  1   force =     3.38225428    1.47118647    2.26086239
     atom    8 type  2   force =     1.13620279   -0.21851496  -28.24047174
     atom    9 type  2   force =    -0.36265694    0.01820799   38.38632948
     atom   10 type  1   force =     0.38920822   -0.64979747   -1.84587776
     atom   11 type  2   force =     1.04764043    0.32429587  -37.67316603
     atom   12 type  2   force =    -0.22161043   -0.59345192   38.51573780
     atom   13 type  1   force =    -0.07158110   -0.56174808   -2.03501932
     atom   14 type  2   force =     0.10189164    0.05521846  -38.31112557
     atom   15 type  2   force =     0.01907510    0.10005121   37.62037340
     atom   16 type  1   force =     0.56162929   -2.80870341   -0.43900387
     atom   17 type  2   force =    -0.77197635   -0.83735966  -37.79360341
     atom   18 type  2   force =     0.20076127    0.52162269   38.19722544
     atom   19 type  1   force =    -2.59361859    1.60185103   -0.85946519
     atom   20 type  2   force =     0.08695805    0.13766149   39.36690210
     atom   21 type  1   force =     0.31765239   -0.44704644   -0.21937391
     atom   22 type  2   force =    -0.39377300    1.11294298  -38.04100388
     atom   23 type  2   force =     0.24903756   -0.49022880   38.20189529
     atom   24 type  1   force =    -0.16440531    0.08180419   -1.62559917
     atom   25 type  2   force =    -0.27153902   -0.05774702  -38.45447067
     atom   26 type  2   force =     0.02777403    0.05428419   37.60636529
     atom   27 type  1   force =    -0.59827533    0.28898954    1.02252579
     atom   28 type  2   force =    -0.63233353    0.46833455  -37.23759441
     atom   29 type  2   force =    -0.08763625    0.26950477   38.16465258
     atom   30 type  1   force =    -1.05001845    0.02393352    1.75611994
     atom   31 type  2   force =    -2.01517082   -0.03715813  -37.33077013
     atom   32 type  2   force =     0.29600980    0.05979365   38.47829222
     atom   33 type  1   force =    -0.72964573   -0.22764300   -1.89561507
     atom   34 type  2   force =    -0.55927309   -0.58645171  -38.04439787
     atom   35 type  2   force =    -0.00879166   -0.36992139   37.96426696
     atom   36 type  3   force =     0.93240998    0.15313763  -47.67559265
     The core correction contribution to forces
     atom    1 type  1   force =     0.00000000    0.00000000    0.00000000
     atom    2 type  2   force =     0.00007287    0.00046325    0.02099183
     atom    3 type  2   force =     0.00017293    0.00041663   -0.02093224
     atom    4 type  1   force =     0.00000000    0.00000000    0.00000000
     atom    5 type  2   force =    -0.00031545    0.00114583    0.02085191
     atom    6 type  2   force =     0.00013212   -0.00045209   -0.02096019
     atom    7 type  1   force =     0.00000000    0.00000000    0.00000000
     atom    8 type  2   force =    -0.00009853    0.00185589   -0.00989660
     atom    9 type  2   force =     0.00067598    0.00072140   -0.02142288
     atom   10 type  1   force =     0.00000000    0.00000000    0.00000000
     atom   11 type  2   force =    -0.00007442   -0.00021017    0.02100422
     atom   12 type  2   force =     0.00071540    0.00124341   -0.02081028
     atom   13 type  1   force =     0.00000000    0.00000000    0.00000000
     atom   14 type  2   force =    -0.00012261    0.00013900    0.02109679
     atom   15 type  2   force =     0.00004393    0.00048013   -0.02073150
     atom   16 type  1   force =     0.00000000    0.00000000    0.00000000
     atom   17 type  2   force =     0.00027981    0.00101040    0.02053958
     atom   18 type  2   force =    -0.00009791   -0.00044684   -0.02097027
     atom   19 type  1   force =     0.00000000    0.00000000    0.00000000
     atom   20 type  2   force =    -0.00006039    0.00037842   -0.02112636
     atom   21 type  1   force =     0.00000000    0.00000000    0.00000000
     atom   22 type  2   force =     0.00013482   -0.00017842    0.02087120
     atom   23 type  2   force =    -0.00068808    0.00103546   -0.02081894
     atom   24 type  1   force =     0.00000000    0.00000000    0.00000000
     atom   25 type  2   force =     0.00009984    0.00050196    0.02100117
     atom   26 type  2   force =    -0.00015724    0.00043662   -0.02089271
     atom   27 type  1   force =     0.00000000    0.00000000    0.00000000
     atom   28 type  2   force =     0.00007681    0.00081252    0.02148035
     atom   29 type  2   force =     0.00008250    0.00016536   -0.02082499
     atom   30 type  1   force =     0.00000000    0.00000000    0.00000000
     atom   31 type  2   force =     0.00042012    0.00018625    0.02122074
     atom   32 type  2   force =    -0.00074098    0.00067261   -0.02074513
     atom   33 type  1   force =     0.00000000    0.00000000    0.00000000
     atom   34 type  2   force =    -0.00007749    0.00030102    0.02152265
     atom   35 type  2   force =    -0.00009860    0.00087949   -0.02085450
     atom   36 type  3   force =    -0.00028293   -0.00048529    0.02446603
     The Hubbard contrib.    to forces
     atom    1 type  1   force =     0.00000000    0.00000000    0.00000000
     atom    2 type  2   force =     0.00000000    0.00000000    0.00000000
     atom    3 type  2   force =     0.00000000    0.00000000    0.00000000
     atom    4 type  1   force =     0.00000000    0.00000000    0.00000000
     atom    5 type  2   force =     0.00000000    0.00000000    0.00000000
     atom    6 type  2   force =     0.00000000    0.00000000    0.00000000
     atom    7 type  1   force =     0.00000000    0.00000000    0.00000000
     atom    8 type  2   force =     0.00000000    0.00000000    0.00000000
     atom    9 type  2   force =     0.00000000    0.00000000    0.00000000
     atom   10 type  1   force =     0.00000000    0.00000000    0.00000000
     atom   11 type  2   force =     0.00000000    0.00000000    0.00000000
     atom   12 type  2   force =     0.00000000    0.00000000    0.00000000
     atom   13 type  1   force =     0.00000000    0.00000000    0.00000000
     atom   14 type  2   force =     0.00000000    0.00000000    0.00000000
     atom   15 type  2   force =     0.00000000    0.00000000    0.00000000
     atom   16 type  1   force =     0.00000000    0.00000000    0.00000000
     atom   17 type  2   force =     0.00000000    0.00000000    0.00000000
     atom   18 type  2   force =     0.00000000    0.00000000    0.00000000
     atom   19 type  1   force =     0.00000000    0.00000000    0.00000000
     atom   20 type  2   force =     0.00000000    0.00000000    0.00000000
     atom   21 type  1   force =     0.00000000    0.00000000    0.00000000
     atom   22 type  2   force =     0.00000000    0.00000000    0.00000000
     atom   23 type  2   force =     0.00000000    0.00000000    0.00000000
     atom   24 type  1   force =     0.00000000    0.00000000    0.00000000
     atom   25 type  2   force =     0.00000000    0.00000000    0.00000000
     atom   26 type  2   force =     0.00000000    0.00000000    0.00000000
     atom   27 type  1   force =     0.00000000    0.00000000    0.00000000
     atom   28 type  2   force =     0.00000000    0.00000000    0.00000000
     atom   29 type  2   force =     0.00000000    0.00000000    0.00000000
     atom   30 type  1   force =     0.00000000    0.00000000    0.00000000
     atom   31 type  2   force =     0.00000000    0.00000000    0.00000000
     atom   32 type  2   force =     0.00000000    0.00000000    0.00000000
     atom   33 type  1   force =     0.00000000    0.00000000    0.00000000
     atom   34 type  2   force =     0.00000000    0.00000000    0.00000000
     atom   35 type  2   force =     0.00000000    0.00000000    0.00000000
     atom   36 type  3   force =     0.00000000    0.00000000    0.00000000
     The SCF correction term to forces
     atom    1 type  1   force =    -0.00001925   -0.00001769   -0.00002244
     atom    2 type  2   force =     0.00000532    0.00001306   -0.00001094
     atom    3 type  2   force =     0.00000124    0.00000142   -0.00000272
     atom    4 type  1   force =     0.00000685   -0.00001368    0.00001584
     atom    5 type  2   force =     0.00000924   -0.00000480    0.00000698
     atom    6 type  2   force =    -0.00000660   -0.00001101   -0.00000858
     atom    7 type  1   force =    -0.00000246   -0.00000843   -0.00000989
     atom    8 type  2   force =     0.00002744   -0.00002913    0.00001203
     atom    9 type  2   force =    -0.00000100   -0.00000146    0.00000334
     atom   10 type  1   force =     0.00000483    0.00002833   -0.00001554
     atom   11 type  2   force =    -0.00000601    0.00001125   -0.00002194
     atom   12 type  2   force =    -0.00000340    0.00001492   -0.00000038
     atom   13 type  1   force =    -0.00000651   -0.00002005   -0.00002058
     atom   14 type  2   force =    -0.00001138    0.00000646   -0.00001850
     atom   15 type  2   force =    -0.00000910    0.00000474    0.00000239
     atom   16 type  1   force =    -0.00001370   -0.00002091   -0.00002412
     atom   17 type  2   force =    -0.00001138   -0.00001371   -0.00000453
     atom   18 type  2   force =     0.00000073   -0.00001819   -0.00000464
     atom   19 type  1   force =    -0.00001021   -0.00000551    0.00001414
     atom   20 type  2   force =    -0.00000526   -0.00000584    0.00000146
     atom   21 type  1   force =    -0.00001963    0.00004998   -0.00001789
     atom   22 type  2   force =    -0.00000542    0.00000558   -0.00001305
     atom   23 type  2   force =    -0.00000132    0.00001376    0.00000350
     atom   24 type  1   force =     0.00002595   -0.00000540   -0.00000220
     atom   25 type  2   force =     0.00000505    0.00001102   -0.00001814
     atom   26 type  2   force =     0.00000757    0.00000468    0.00000401
     atom   27 type  1   force =     0.00000037   -0.00001279    0.00001922
     atom   28 type  2   force =     0.00000247    0.00000344    0.00001555
     atom   29 type  2   force =     0.00000513   -0.00001303   -0.00000174
     atom   30 type  1   force =     0.00000871   -0.00001798    0.00002242
     atom   31 type  2   force =    -0.00000842   -0.00000806    0.00000306
     atom   32 type  2   force =     0.00000580   -0.00000278    0.00000587
     atom   33 type  1   force =     0.00001390    0.00004210   -0.00001352
     atom   34 type  2   force =     0.00001055    0.00000054   -0.00001346
     atom   35 type  2   force =     0.00000434    0.00001262    0.00000160
     atom   36 type  3   force =     0.00009016   -0.00012072    0.00000946

     Total force =     0.005210     Total SCF correction =     0.000206
     Energy error            =      6.5E-05 Ry
     Gradient error          =      1.4E-03 Ry/Bohr

     bfgs converged in  26 scf cycles and  25 bfgs steps
     (criteria: energy <  1.0E-04 Ry, force <  1.0E-02 Ry/Bohr)

     End of BFGS Geometry Optimization

     Final energy             =   -2246.4507785477 Ry

     File ./MoS2-V-O.bfgs deleted, as requested
Begin final coordinates

ATOMIC_POSITIONS (angstrom)
Mo            6.5654264407        1.7208382634        2.7652978025
S             8.1426048457        0.8092010746        4.3688092351
S             8.1496222140        0.8064938697        1.1828247461
Mo            8.1324190774        4.4311313204        2.6888512018
S             6.5362836562        3.6386558227        4.3119163928
S             6.5454734187        3.5078990660        1.1012500024
Mo            6.5002640003        7.1651913250        2.6323332905
S             8.0983846984        6.2852550193        4.1926154608
S             8.1576679410        6.2875349797        1.1115061507
Mo            8.1404606974        9.8927421130        2.7703305680
S             6.5212240747        8.8910046419        4.3269849228
S             6.5951698549        9.0123461793        1.1091383137
Mo            3.4381771489        1.7132406497        2.7601079252
S             5.0010256837        0.7723247308        4.3522357002
S             5.0041787451        0.8047627447        1.1707977533
Mo            5.0057281837        4.5059228450        2.6520513110
S             3.4790912172        3.6240557146        4.3018713005
S             3.4499833634        3.5168537613        1.1073484094
Mo            3.4845714019        7.1471500933        2.6548103979
S             4.9922857687        6.2662917358        1.0164241294
Mo            5.0026118933        9.8698965929        2.7265114149
S             3.4764620584        8.9130497906        4.3213589354
S             3.4108252805        8.9983560760        1.1187481385
Mo            0.2800713382        1.7093399013        2.7673862330
S             1.8659823509        0.8075202740        4.3653581618
S             1.8582978994        0.8027694713        1.1762903725
Mo            1.8801688412        4.4550297672        2.7034926418
S             0.2733125632        3.5764965041        4.3127477708
S             0.2894504430        3.5082944348        1.1287979856
Mo            0.3058680443        7.1897858390        2.7227418897
S             1.9393201349        6.2711185152        4.2905585837
S             1.8716588762        6.2782059441        1.0991035079
Mo            1.8563073891        9.8966400868        2.7639174240
S             0.2732768049        8.9852061695        4.3627834873
S             0.2693587509        9.0264995005        1.1624253335
O             8.0853408007        6.2511304820        5.6910206820
End final coordinates



     Writing all to output data dir ./MoS2-V-O.save/
 
     init_run     :      4.61s CPU      4.91s WALL (       1 calls)
     electrons    :   2417.11s CPU   2664.24s WALL (      26 calls)
     update_pot   :     78.41s CPU     81.94s WALL (      25 calls)
     forces       :     70.70s CPU     76.31s WALL (      26 calls)

     Called by init_run:
     wfcinit      :      0.49s CPU      0.54s WALL (       1 calls)
     potinit      :      2.34s CPU      2.50s WALL (       1 calls)
     hinit0       :      0.46s CPU      0.48s WALL (       1 calls)

     Called by electrons:
     c_bands      :    356.34s CPU    362.68s WALL (     244 calls)
     sum_band     :    148.31s CPU    165.59s WALL (     244 calls)
     v_of_rho     :    228.03s CPU    261.92s WALL (     262 calls)
     newd         :     78.28s CPU     92.80s WALL (     262 calls)
     PAW_pot      :     10.36s CPU     10.40s WALL (     287 calls)
     mix_rho      :   1621.94s CPU   1796.06s WALL (     244 calls)

     Called by c_bands:
     init_us_2    :      5.82s CPU      6.02s WALL (     514 calls)
     init_us_2:cp :      5.81s CPU      6.01s WALL (     514 calls)
     regterg      :    338.76s CPU    344.86s WALL (     244 calls)

     Called by *egterg:
     rdiaghg      :     22.62s CPU     22.81s WALL (    1298 calls)
     h_psi        :    221.48s CPU    223.08s WALL (    1332 calls)
     s_psi        :     20.53s CPU     20.60s WALL (    1332 calls)
     g_psi        :      1.11s CPU      1.12s WALL (    1087 calls)

     Called by h_psi:
     h_psi:calbec :     22.70s CPU     22.80s WALL (    1332 calls)
     vloc_psi     :    175.67s CPU    177.07s WALL (    1332 calls)
     add_vuspsi   :     20.25s CPU     20.34s WALL (    1332 calls)

     General routines
     calbec       :     33.12s CPU     33.36s WALL (    1705 calls)
     fft          :    157.30s CPU    181.94s WALL (   17497 calls)
     ffts         :    722.84s CPU    890.75s WALL (  398030 calls)
     fftw         :    107.08s CPU    107.81s WALL (  150156 calls)
     interpolate  :      3.27s CPU      3.73s WALL (     262 calls)
 
     Parallel routines
 
     PWSCF        :  43m 1.84s CPU  47m21.37s WALL

 
   This run was terminated on:  17:51:49   1Nov2023            

=------------------------------------------------------------------------------=
   JOB DONE.
=------------------------------------------------------------------------------=
