
     Program PWSCF v.7.2 starts on  1Nov2023 at 17:29:36 

     This program is part of the open-source Quantum ESPRESSO suite
     for quantum simulation of materials; please cite
         "P. Giannozzi et al., J. Phys.:Condens. Matter 21 395502 (2009);
         "P. Giannozzi et al., J. Phys.:Condens. Matter 29 465901 (2017);
         "P. Giannozzi et al., J. Chem. Phys. 152 154105 (2020);
          URL http://www.quantum-espresso.org", 
     in publications or presentations arising from this work. More details at
     http://www.quantum-espresso.org/quote

     Parallel version (MPI & OpenMP), running on      48 processor cores
     Number of MPI processes:                48
     Threads/MPI process:                     1

     MPI processes distributed on     1 nodes
     44439 MiB available memory on the printing compute node when the environment starts
 
     Waiting for input...
     Reading input from standard input
Warning: card &CELL ignored
Warning: card CELL_DYNAMICS = 'BFGS', ignored
Warning: card CELL_DOFREE = '2DXY' ignored
Warning: card / ignored

     Current dimensions of program PWSCF are:
     Max number of different atomic species (ntypx) = 10
     Max number of k-points (npk) =  40000
     Max angular momentum in pseudopotentials (lmaxx) =  4
     file O.pbe-n-kjpaw_psl.0.1.UPF: wavefunction(s)  2P renormalized

     IMPORTANT: XC functional enforced from input :
     Exchange-correlation= RVV10
                           (   1   4  13   4  26   0   0)
     Any further DFT definition will be discarded
     Please, verify this is what you really want


     gamma-point specific algorithms are used
     signal trapping enabled: kill the code with -SIGUSR1 to stop cleanly the simulation 
 
     R & G space division:  proc/nbgrp/npool/nimage =      48
     Subspace diagonalization in iterative solution of the eigenvalue problem:
     one sub-group per band group will be used
     scalapack distributed-memory algorithm (size of sub-group:  2*  2 procs)

 
     Parallelization info
     --------------------
     sticks:   dense  smooth     PW     G-vecs:    dense   smooth      PW
     Min         396     194     47               101632    35090    4376
     Max         398     196     50               101674    35128    4410
     Sum       19091    9389   2349              4879585  1685513  210763
 
     Using Slab Decomposition
 


     bravais-lattice index     =            0
     lattice parameter (alat)  =      17.8707  a.u.
     unit-cell volume          =   17436.2743 (a.u.)^3
     number of atoms/cell      =           36
     number of atomic types    =            3
     number of electrons       =       312.00
     number of Kohn-Sham states=          187
     kinetic-energy cutoff     =      80.0000  Ry
     charge density cutoff     =     650.0000  Ry
     scf convergence threshold =      1.0E-06
     mixing beta               =       0.7000
     number of iterations used =            8  local-TF  mixing
     energy convergence thresh.=      1.0E-04
     force convergence thresh. =      1.0E-02
     Exchange-correlation= RVV10
                           (   1   4  13   4  26   0   0)
     nstep                     =          200


     celldm(1)=  17.870686  celldm(2)=   0.000000  celldm(3)=   0.000000
     celldm(4)=   0.000000  celldm(5)=   0.000000  celldm(6)=   0.000000

     crystal axes: (cart. coord. in units of alat)
               a(1) = (   1.000000   0.000000   0.000000 )  
               a(2) = (   0.000000   1.155671   0.000000 )  
               a(3) = (   0.000000   0.000000   2.643601 )  

     reciprocal axes: (cart. coord. in units 2 pi/alat)
               b(1) = (  1.000000  0.000000  0.000000 )  
               b(2) = (  0.000000  0.865298  0.000000 )  
               b(3) = (  0.000000  0.000000  0.378272 )  


     PseudoPot. # 1 for Mo read from file:
     ../pseudo/Mo_ONCV_PBE-1.0.oncvpsp.upf
     MD5 check sum: 1b5d28e075c9ccadda658a603575cd1f
     Pseudo is Norm-conserving, Zval = 14.0
     Generated using ONCVPSP code by D. R. Hamann
     Using radial grid of 1526 points,  6 beta functions with: 
                l(1) =   0
                l(2) =   0
                l(3) =   1
                l(4) =   1
                l(5) =   2
                l(6) =   2

     PseudoPot. # 2 for S  read from file:
     ../pseudo/s_pbe_v1.4.uspp.F.UPF
     MD5 check sum: 88d86576ff6df21479756cfb9bdac1df
     Pseudo is Ultrasoft + core correction, Zval =  6.0
     Generated by new atomic code, or converted to UPF format
     Using radial grid of  907 points,  6 beta functions with: 
                l(1) =   0
                l(2) =   0
                l(3) =   1
                l(4) =   1
                l(5) =   2
                l(6) =   2
     Q(r) pseudized with  8 coefficients,  rinner =    1.300   1.300   1.300
                                                       1.300   1.300

     PseudoPot. # 3 for O  read from file:
     ../pseudo/O.pbe-n-kjpaw_psl.0.1.UPF
     MD5 check sum: 0234752ac141de4415c5fc33072bef88
     Pseudo is Projector augmented-wave + core cor, Zval =  6.0
     Generated using "atomic" code by A. Dal Corso  v.5.0.99 svn rev. 10869
     Shape of augmentation charge: BESSEL
     Using radial grid of 1095 points,  4 beta functions with: 
                l(1) =   0
                l(2) =   0
                l(3) =   1
                l(4) =   1
     Q(r) pseudized with 0 coefficients 


     atomic species   valence    mass     pseudopotential
        Mo            14.00    95.94000     Mo( 1.00)
        S              6.00    32.06500     S ( 1.00)
        O              6.00    15.99940     O ( 1.00)

     No symmetry found



   Cartesian axes

     site n.     atom                  positions (alat units)
         1           Mo  tau(   1) = (   0.6952221   0.1890506   0.2985846  )
         2           S   tau(   2) = (   0.8646417   0.0856217   0.4689279  )
         3           S   tau(   3) = (   0.8663890   0.0857843   0.1351291  )
         4           Mo  tau(   4) = (   0.8560186   0.4753274   0.2873942  )
         5           S   tau(   5) = (   0.6873294   0.3936244   0.4596353  )
         6           S   tau(   6) = (   0.6929804   0.3713468   0.1185692  )
         7           Mo  tau(   7) = (   0.6862796   0.7633098   0.2825370  )
         8           S   tau(   8) = (   0.8545980   0.6708292   0.4486168  )
         9           S   tau(   9) = (   0.8545123   0.6666874   0.1146125  )
        10           Mo  tau(  10) = (   0.8629403   1.0471007   0.3006803  )
        11           S   tau(  11) = (   0.6868280   0.9456650   0.4634891  )
        12           S   tau(  12) = (   0.6998113   0.9568511   0.1205389  )
        13           Mo  tau(  13) = (   0.3618216   0.1847309   0.2935964  )
        14           S   tau(  14) = (   0.5260962   0.0863870   0.4600448  )
        15           S   tau(  15) = (   0.5348379   0.0894875   0.1297123  )
        16           Mo  tau(  16) = (   0.5265817   0.4772436   0.2784130  )
        17           S   tau(  17) = (   0.3624753   0.3882513   0.4525556  )
        18           S   tau(  18) = (   0.3635411   0.3752055   0.1119148  )
        19           Mo  tau(  19) = (   0.3652268   0.7630864   0.2781795  )
        20           S   tau(  20) = (   0.5269494   0.6690381   0.1096838  )
        21           Mo  tau(  21) = (   0.5300192   1.0470394   0.2900995  )
        22           S   tau(  22) = (   0.3670346   0.9457522   0.4574073  )
        23           S   tau(  23) = (   0.3604225   0.9585725   0.1159032  )
        24           Mo  tau(  24) = (   0.0313099   0.1847895   0.3013130  )
        25           S   tau(  25) = (   0.1956761   0.0838230   0.4650863  )
        26           S   tau(  26) = (   0.1967693   0.0903508   0.1278874  )
        27           Mo  tau(  27) = (   0.1967578   0.4753919   0.2813011  )
        28           S   tau(  28) = (   0.0287851   0.3864324   0.4586755  )
        29           S   tau(  29) = (   0.0244514   0.3729871   0.1239344  )
        30           Mo  tau(  30) = (   0.0286728   0.7631204   0.2856894  )
        31           S   tau(  31) = (   0.2011512   0.6675435   0.4465001  )
        32           S   tau(  32) = (   0.1969214   0.6672839   0.1104564  )
        33           Mo  tau(  33) = (   0.1950294   1.0511147   0.2932237  )
        34           S   tau(  34) = (   0.0312912   0.9612169   0.4667423  )
        35           S   tau(  35) = (   0.0292670   0.9563028   0.1216485  )
        36           O   tau(  36) = (   0.0000000   0.6420393   0.5792558  )

     number of k points=     1  Gaussian smearing, width (Ry)=  0.0100
                       cart. coord. in units 2pi/alat
        k(    1) = (   0.0000000   0.0000000   0.0000000), wk =   2.0000000

     Dense  grid:  2439793 G-vectors     FFT dimensions: ( 150, 180, 384)

     Smooth grid:   842757 G-vectors     FFT dimensions: ( 108, 120, 270)

     Estimated max dynamical RAM per process >     269.22 MB

     Estimated total dynamical RAM >      12.62 GB

     Initial potential from superposition of free atoms

     starting charge     311.9873, renormalised to     312.0000

     negative rho (up, down):  2.751E-04 0.000E+00


---------------------------------------------------------------------------------
Carrying out rVV10 run using the following parameters:
Nqs =      20    Nr_points =    1024   r_max =   100.000
b_value =  6.30000    beta =  0.00901
     q_mesh =  0.00010000  0.00030000  0.00058939  0.00100810
               0.00161396  0.00249058  0.00375900  0.00559430
               0.00824984  0.01209221  0.01765183  0.02569619
               0.03733578  0.05417739  0.07854596  0.11380545
               0.16482331  0.23864234  0.34545298  0.50000000

Gradients computed in Reciprocal space

---------------------------------------------------------------------------------


     Starting wfcs are  216 randomized atomic wfcs
     Checking if some PAW data can be deallocated... 

     total cpu time spent up to now is        5.3 secs

     Self-consistent Calculation

     iteration #  1     ecut=    80.00 Ry     beta= 0.70
     Davidson diagonalization with overlap
     ethr =  1.00E-02,  avg # of iterations =  2.0

     Threshold (ethr) on eigenvalues was too large:
     Diagonalizing with lowered threshold

     Davidson diagonalization with overlap
     ethr =  4.65E-04,  avg # of iterations =  2.0

     negative rho (up, down):  4.392E-08 0.000E+00

     total cpu time spent up to now is       24.1 secs

     total energy              =   -2246.18134880 Ry
     estimated scf accuracy    <       1.69007437 Ry

     iteration #  2     ecut=    80.00 Ry     beta= 0.70
     Davidson diagonalization with overlap
     ethr =  5.42E-04,  avg # of iterations =  4.0

     total cpu time spent up to now is       30.3 secs

     total energy              =   -2246.18583015 Ry
     estimated scf accuracy    <       1.04457195 Ry

     iteration #  3     ecut=    80.00 Ry     beta= 0.70
     Davidson diagonalization with overlap
     ethr =  3.35E-04,  avg # of iterations =  2.0

     total cpu time spent up to now is       34.8 secs

     total energy              =   -2246.18567783 Ry
     estimated scf accuracy    <       0.32843887 Ry

     iteration #  4     ecut=    80.00 Ry     beta= 0.70
     Davidson diagonalization with overlap
     ethr =  1.05E-04,  avg # of iterations =  2.0

     total cpu time spent up to now is       39.1 secs

     total energy              =   -2246.23458681 Ry
     estimated scf accuracy    <       0.05054901 Ry

     iteration #  5     ecut=    80.00 Ry     beta= 0.70
     Davidson diagonalization with overlap
     ethr =  1.62E-05,  avg # of iterations = 16.0

     total cpu time spent up to now is       44.0 secs

     total energy              =   -2246.23659819 Ry
     estimated scf accuracy    <       0.02067997 Ry

     iteration #  6     ecut=    80.00 Ry     beta= 0.70
     Davidson diagonalization with overlap
     ethr =  6.63E-06,  avg # of iterations =  5.0

     total cpu time spent up to now is       48.3 secs

     total energy              =   -2246.23670752 Ry
     estimated scf accuracy    <       0.01287706 Ry

     iteration #  7     ecut=    80.00 Ry     beta= 0.70
     Davidson diagonalization with overlap
     ethr =  4.13E-06,  avg # of iterations =  2.0

     total cpu time spent up to now is       52.5 secs

     total energy              =   -2246.23602628 Ry
     estimated scf accuracy    <       0.01017557 Ry

     iteration #  8     ecut=    80.00 Ry     beta= 0.70
     Davidson diagonalization with overlap
     ethr =  3.26E-06,  avg # of iterations =  2.0

     negative rho (up, down):  1.037E-05 0.000E+00

     total cpu time spent up to now is       59.0 secs

     total energy              =   -2246.23475292 Ry
     estimated scf accuracy    <       0.00643992 Ry

     iteration #  9     ecut=    80.00 Ry     beta= 0.70
     Davidson diagonalization with overlap
     ethr =  2.06E-06,  avg # of iterations =  8.0

     negative rho (up, down):  7.453E-03 0.000E+00

     total cpu time spent up to now is       66.1 secs

     total energy              =   -2246.23434077 Ry
     estimated scf accuracy    <       0.00280188 Ry

     iteration # 10     ecut=    80.00 Ry     beta= 0.70
     Davidson diagonalization with overlap
     ethr =  8.98E-07,  avg # of iterations =  2.0

     negative rho (up, down):  1.504E-02 0.000E+00

     total cpu time spent up to now is       73.6 secs

     total energy              =   -2246.23412811 Ry
     estimated scf accuracy    <       0.00164577 Ry

     iteration # 11     ecut=    80.00 Ry     beta= 0.70
     Davidson diagonalization with overlap
     ethr =  5.27E-07,  avg # of iterations =  2.0

     negative rho (up, down):  2.113E-02 0.000E+00

     total cpu time spent up to now is       81.5 secs

     total energy              =   -2246.23427005 Ry
     estimated scf accuracy    <       0.00076077 Ry

     iteration # 12     ecut=    80.00 Ry     beta= 0.70
     Davidson diagonalization with overlap
     ethr =  2.44E-07,  avg # of iterations =  5.0

     negative rho (up, down):  7.202E-03 0.000E+00

     total cpu time spent up to now is       89.8 secs

     total energy              =   -2246.23425523 Ry
     estimated scf accuracy    <       0.00014682 Ry

     iteration # 13     ecut=    80.00 Ry     beta= 0.70
     Davidson diagonalization with overlap
     ethr =  4.71E-08,  avg # of iterations =  4.0

     negative rho (up, down):  2.499E-03 0.000E+00

     total cpu time spent up to now is       98.2 secs

     total energy              =   -2246.23432507 Ry
     estimated scf accuracy    <       0.00002724 Ry

     iteration # 14     ecut=    80.00 Ry     beta= 0.70
     Davidson diagonalization with overlap
     ethr =  8.73E-09,  avg # of iterations =  7.0

     negative rho (up, down):  1.299E-03 0.000E+00

     total cpu time spent up to now is      108.0 secs

     total energy              =   -2246.23434186 Ry
     estimated scf accuracy    <       0.00001285 Ry

     iteration # 15     ecut=    80.00 Ry     beta= 0.70
     Davidson diagonalization with overlap
     ethr =  4.12E-09,  avg # of iterations =  2.0

     negative rho (up, down):  6.407E-04 0.000E+00

     total cpu time spent up to now is      115.9 secs

     total energy              =   -2246.23434772 Ry
     estimated scf accuracy    <       0.00000489 Ry

     iteration # 16     ecut=    80.00 Ry     beta= 0.70
     Davidson diagonalization with overlap
     ethr =  1.57E-09,  avg # of iterations =  4.0

     negative rho (up, down):  4.106E-04 0.000E+00

     total cpu time spent up to now is      126.5 secs

     total energy              =   -2246.23434799 Ry
     estimated scf accuracy    <       0.00000131 Ry

     iteration # 17     ecut=    80.00 Ry     beta= 0.70
     Davidson diagonalization with overlap
     ethr =  4.20E-10,  avg # of iterations =  2.0

     negative rho (up, down):  1.991E-04 0.000E+00

     total cpu time spent up to now is      130.6 secs

     End of self-consistent calculation

          k = 0.0000 0.0000 0.0000 (105382 PWs)   bands (ev):

   -63.0443 -63.0150 -62.9941 -62.9795 -62.9716 -62.9610 -62.9491 -62.9436
   -62.9306 -62.9214 -62.8821 -62.8746 -37.4131 -37.3209 -37.2871 -37.2631
   -37.2585 -37.2542 -37.2301 -37.2115 -37.2104 -37.2028 -37.1850 -37.1814
   -37.1618 -37.1537 -37.1499 -37.1436 -37.1371 -37.1332 -37.1215 -37.1199
   -37.1105 -37.1086 -37.1020 -37.0730 -37.0577 -37.0549 -37.0396 -37.0249
   -37.0199 -37.0166 -37.0007 -36.9788 -36.9578 -36.9359 -36.9190 -36.8586
   -19.3303 -16.0577 -15.3174 -15.2185 -15.1709 -15.0037 -14.8940 -14.7578
   -14.6295 -14.5583 -14.5230 -14.4865 -14.4643 -14.4225 -14.3757 -14.2915
   -14.2705 -14.2286 -14.1976 -14.0787 -13.9961 -13.9834 -13.9657 -13.9470
    -7.8367  -7.6321  -7.5276  -7.4842  -7.3933  -7.3418  -7.3160  -7.3033
    -7.2405  -6.9961  -6.9590  -6.8940  -6.8513  -6.7979  -6.6980  -6.6258
    -6.5609  -6.4910  -6.4088  -6.3656  -6.1575  -6.0600  -6.0446  -6.0196
    -5.9139  -5.8825  -5.8435  -5.8111  -5.8017  -5.7545  -5.7109  -5.6498
    -5.6289  -5.6026  -5.5737  -5.3342  -5.2875  -5.2129  -5.1786  -5.1357
    -5.0758  -5.0529  -4.9346  -4.8458  -4.7111  -4.6257  -4.4470  -4.4349
    -4.3991  -4.3465  -4.1919  -4.1341  -4.0692  -4.0169  -3.9346  -3.9086
    -3.8753  -3.8327  -3.7106  -3.6929  -3.6485  -3.6447  -3.6088  -3.5768
    -3.5235  -3.4962  -3.3290  -3.2863  -3.0862  -3.0449  -2.9656  -2.9310
    -2.9168  -2.8536  -2.8263  -2.7924  -2.7666  -2.7200  -2.5033  -2.3861
    -2.1802  -2.1094  -2.0255  -1.8289  -1.4695  -0.9648  -0.7060  -0.3034
    -0.2584  -0.1666  -0.0920  -0.0350   0.0011   0.0812   0.1027   0.1311
     0.1504   0.2094   0.2805   0.3420   0.4106   0.4338   0.4449   0.4976
     0.5559   0.6139   0.6469   0.6647   0.6801   0.7145   0.7476   0.8196
     0.8986   0.9407   1.0939

     the Fermi energy is    -1.6492 ev

!    total energy              =   -2246.23434731 Ry
     estimated scf accuracy    <       0.00000037 Ry
     smearing contrib. (-TS)   =      -0.00197449 Ry
     internal energy E=F+TS    =   -2246.23237282 Ry

     The total energy is F=E-TS. E is the sum of the following terms:
     one-electron contribution =  -18427.16719038 Ry
     hartree contribution      =    9201.27495409 Ry
     xc contribution           =    -391.85651147 Ry
     ewald contribution        =    7381.38953123 Ry
     one-center paw contrib.   =      -9.87315630 Ry

     convergence has been achieved in  17 iterations

     negative rho (up, down):  1.991E-04 0.000E+00

     Forces acting on atoms (cartesian axes, Ry/au):

     atom    1 type  1   force =     0.01032073   -0.02380978    0.00461481
     atom    2 type  2   force =    -0.01291996    0.01540565    0.00236359
     atom    3 type  2   force =    -0.01198474    0.01014609   -0.00390535
     atom    4 type  1   force =     0.00547381   -0.00300218   -0.00418322
     atom    5 type  2   force =    -0.00168025   -0.00843905   -0.00367873
     atom    6 type  2   force =    -0.00322680    0.00824821   -0.00070646
     atom    7 type  1   force =    -0.00731426    0.00362601   -0.01164453
     atom    8 type  2   force =     0.13815394   -0.05249453    0.09461589
     atom    9 type  2   force =     0.01043329    0.00735064    0.01319810
     atom   10 type  1   force =    -0.00871092    0.00444539   -0.02599105
     atom   11 type  2   force =     0.00166328    0.00504265   -0.00870622
     atom   12 type  2   force =    -0.00417849   -0.00154752    0.00280978
     atom   13 type  1   force =     0.00527848    0.00483169   -0.00615797
     atom   14 type  2   force =     0.00772055   -0.00053545    0.01248612
     atom   15 type  2   force =    -0.01164849    0.00245997   -0.00805248
     atom   16 type  1   force =     0.00588697    0.01255749    0.00169356
     atom   17 type  2   force =     0.00739669   -0.00039788    0.00258219
     atom   18 type  2   force =    -0.00157829   -0.00789471    0.01067033
     atom   19 type  1   force =     0.00798026   -0.01126054   -0.00959463
     atom   20 type  2   force =     0.00660833   -0.00323299   -0.00164872
     atom   21 type  1   force =    -0.00095826    0.00904445    0.00099543
     atom   22 type  2   force =    -0.00381709   -0.00216036   -0.00021965
     atom   23 type  2   force =    -0.00121859   -0.00096239    0.00720578
     atom   24 type  1   force =    -0.01138513   -0.00448624   -0.02286539
     atom   25 type  2   force =     0.01571818    0.01892564    0.00824282
     atom   26 type  2   force =    -0.01016843    0.00024888   -0.00479292
     atom   27 type  1   force =    -0.00226696    0.00348168    0.00995989
     atom   28 type  2   force =     0.00216370   -0.00350390   -0.01045695
     atom   29 type  2   force =     0.00189162    0.00011383   -0.00287672
     atom   30 type  1   force =    -0.00678656    0.02742877   -0.03287254
     atom   31 type  2   force =     0.00921071    0.00033904    0.00233841
     atom   32 type  2   force =    -0.00647354    0.00684022    0.00931524
     atom   33 type  1   force =     0.01100611   -0.00605508   -0.00974893
     atom   34 type  2   force =     0.00274452   -0.04242887   -0.00831911
     atom   35 type  2   force =    -0.00627712    0.00611866    0.01647451
     atom   36 type  3   force =    -0.13705732    0.02555649   -0.02314487
     The non-local contrib.  to forces
     atom    1 type  1   force =    -0.00163594    0.02863683   -0.01075262
     atom    2 type  2   force =    -0.01232604    0.00161904   -0.27255397
     atom    3 type  2   force =    -0.01561373   -0.00346225    0.27036475
     atom    4 type  1   force =    -0.00218752    0.00953925    0.00940514
     atom    5 type  2   force =     0.00504001   -0.03187067   -0.25764227
     atom    6 type  2   force =    -0.00488779    0.01067035    0.26207509
     atom    7 type  1   force =    -0.03672109   -0.00457508   -0.01000213
     atom    8 type  2   force =     0.31420472   -0.05875444    0.18602403
     atom    9 type  2   force =     0.00649177   -0.00919665    0.28053910
     atom   10 type  1   force =     0.01018685    0.00570859    0.00271727
     atom   11 type  2   force =     0.00989739    0.00774222   -0.26033338
     atom   12 type  2   force =    -0.01786463   -0.02250328    0.26483898
     atom   13 type  1   force =    -0.00178507    0.02301410   -0.00781287
     atom   14 type  2   force =     0.01142463   -0.01032746   -0.26513488
     atom   15 type  2   force =    -0.01247266   -0.00597140    0.26070390
     atom   16 type  1   force =    -0.00888436    0.02244448   -0.03027618
     atom   17 type  2   force =     0.00647608   -0.02917765   -0.25278141
     atom   18 type  2   force =    -0.00341199   -0.00214838    0.27427700
     atom   19 type  1   force =    -0.01135164   -0.00595912   -0.02099687
     atom   20 type  2   force =     0.00229040   -0.01989951    0.26853823
     atom   21 type  1   force =    -0.00326678    0.03152058    0.00736496
     atom   22 type  2   force =    -0.00738216    0.00512196   -0.25820082
     atom   23 type  2   force =     0.00636876   -0.01303870    0.26675809
     atom   24 type  1   force =     0.01449948    0.02106000   -0.01186522
     atom   25 type  2   force =     0.00921639    0.00595598   -0.26188020
     atom   26 type  2   force =    -0.00196486   -0.01213156    0.26303613
     atom   27 type  1   force =    -0.00147428    0.00670347    0.01277152
     atom   28 type  2   force =    -0.00002655   -0.02847053   -0.28519690
     atom   29 type  2   force =     0.00083369    0.00343948    0.26267464
     atom   30 type  1   force =     0.00307097    0.02205779    0.02026448
     atom   31 type  2   force =    -0.04369302    0.00376014   -0.23440224
     atom   32 type  2   force =    -0.00090728   -0.00935947    0.26965790
     atom   33 type  1   force =    -0.00665505    0.00488217    0.01002306
     atom   34 type  2   force =    -0.00326770   -0.02965294   -0.27846097
     atom   35 type  2   force =    -0.00263928   -0.01359193    0.27214769
     atom   36 type  3   force =    -0.86874274    0.14020719   -0.81880249
     The ionic contribution  to forces
     atom    1 type  1   force =     0.04817438   -0.24932101    4.61328074
     atom    2 type  2   force =    -0.80521947    0.31887465   39.04093753
     atom    3 type  2   force =    -0.21449736   -0.01057655  -36.62183852
     atom    4 type  1   force =    -1.18390557   -1.01982704   -2.74262133
     atom    5 type  2   force =    -1.63335505    0.81194374   38.29603038
     atom    6 type  2   force =     0.22247186   -0.67463619  -38.66961193
     atom    7 type  1   force =    -3.77107380   -2.14220767    0.44231973
     atom    8 type  2   force =    -5.08238180    0.85739648   33.51643947
     atom    9 type  2   force =     0.15335930    0.00367771  -39.04797731
     atom   10 type  1   force =    -1.47773404    0.68215250    4.20148593
     atom   11 type  2   force =    -1.05441965   -0.98629649   38.77810130
     atom   12 type  2   force =     0.33272003    0.86576142  -38.46504077
     atom   13 type  1   force =     0.74052601    0.59114052    1.82424190
     atom   14 type  2   force =     0.03263102   -0.04637489   38.32562350
     atom   15 type  2   force =     0.14388750   -0.08239940  -37.26870107
     atom   16 type  1   force =    -0.17497326    3.46888008   -0.98527659
     atom   17 type  2   force =     1.28210851    0.97454539   37.54212621
     atom   18 type  2   force =    -0.06684023   -0.79593605  -39.17353365
     atom   19 type  1   force =     3.55827958   -1.93915036   -1.17490492
     atom   20 type  2   force =     0.19862802   -0.17562364  -39.14257827
     atom   21 type  1   force =    -0.03442188    0.49697820    0.13397079
     atom   22 type  2   force =     0.81451289   -1.22891456   38.10594382
     atom   23 type  2   force =    -0.00256085    0.81560722  -38.86590047
     atom   24 type  1   force =    -0.47240111    0.34968376    4.48055740
     atom   25 type  2   force =     0.82931317    0.21391895   39.03492448
     atom   26 type  2   force =    -0.22675623    0.03649643  -37.85397648
     atom   27 type  1   force =     1.33788754   -0.85270126   -5.11638300
     atom   28 type  2   force =     0.31022470   -1.33674999   36.96893620
     atom   29 type  2   force =    -0.24178424   -0.71216722  -38.10786442
     atom   30 type  1   force =     0.06824832    0.91973995   -5.03680154
     atom   31 type  2   force =     4.19315666    0.33940523   35.16221213
     atom   32 type  2   force =    -0.27274282    0.02948231  -39.58854394
     atom   33 type  1   force =     1.22226720   -0.02442222    0.70590743
     atom   34 type  2   force =     0.39544726    0.16273330   38.65359845
     atom   35 type  2   force =    -0.27690038    0.74240038  -38.57553299
     atom   36 type  3   force =     1.10812376   -0.40351369   46.61044982
     The local contribution  to forces
     atom    1 type  1   force =    -0.03622587    0.19680176   -4.59854159
     atom    2 type  2   force =     0.80423373   -0.30501145  -38.78717580
     atom    3 type  2   force =     0.21735572    0.02407653   36.36811867
     atom    4 type  1   force =     1.19164105    1.00737871    2.72838180
     atom    5 type  2   force =     1.62717004   -0.79021831  -38.06294954
     atom    6 type  2   force =    -0.22126111    0.67328989   38.42733720
     atom    7 type  1   force =     3.80045332    2.15019717   -0.44460379
     atom    8 type  2   force =     4.92362478   -0.85468241  -33.60554406
     atom    9 type  2   force =    -0.14931586    0.01230323   38.80154317
     atom   10 type  1   force =     1.45887598   -0.68328822   -4.23085017
     atom   11 type  2   force =     1.04670522    0.98414143  -38.54741340
     atom   12 type  2   force =    -0.32041328   -0.84640663   38.22357295
     atom   13 type  1   force =    -0.73346746   -0.60933758   -1.82318426
     atom   14 type  2   force =    -0.03573555    0.05608692  -38.06906652
     atom   15 type  2   force =    -0.14373329    0.09042283   37.02018806
     atom   16 type  1   force =     0.18969601   -3.47865531    1.01662601
     atom   17 type  2   force =    -1.28092567   -0.94730179  -37.30744112
     atom   18 type  2   force =     0.06865372    0.79075007   38.93066996
     atom   19 type  1   force =    -3.53887832    1.93379447    1.18572946
     atom   20 type  2   force =    -0.19421639    0.19146785   38.89335101
     atom   21 type  1   force =     0.03666685   -0.51924438   -0.14097176
     atom   22 type  2   force =    -0.81110220    1.22218852  -37.86875987
     atom   23 type  2   force =    -0.00451310   -0.80466259   38.62683691
     atom   24 type  1   force =     0.44654538   -0.37521315   -4.49217573
     atom   25 type  2   force =    -0.82268955   -0.20047010  -38.78588281
     atom   26 type  2   force =     0.21876806   -0.02476175   37.60666430
     atom   27 type  1   force =    -1.33869575    0.84941507    5.11299828
     atom   28 type  2   force =    -0.30802885    1.35908298  -36.71643417
     atom   29 type  2   force =     0.24310462    0.70957500   37.86249392
     atom   30 type  1   force =    -0.07815270   -0.91443198    4.98315269
     atom   31 type  2   force =    -4.14148621   -0.34277144  -34.94590491
     atom   32 type  2   force =     0.26738804   -0.01387700   39.34869566
     atom   33 type  1   force =    -1.20460530    0.01350326   -0.72628102
     atom   34 type  2   force =    -0.38996390   -0.17616043  -38.40530012
     atom   35 type  2   force =     0.27330795   -0.72372508   38.34066790
     atom   36 type  3   force =    -0.38654151    0.29041764  -45.82400459
     The core correction contribution to forces
     atom    1 type  1   force =     0.00000000    0.00000000    0.00000000
     atom    2 type  2   force =     0.00037242   -0.00009434    0.02089662
     atom    3 type  2   force =     0.00074394    0.00008218   -0.02088832
     atom    4 type  1   force =     0.00000000    0.00000000    0.00000000
     atom    5 type  2   force =    -0.00054160    0.00171403    0.02065478
     atom    6 type  2   force =     0.00046551   -0.00107838   -0.02084361
     atom    7 type  1   force =     0.00000000    0.00000000    0.00000000
     atom    8 type  2   force =    -0.01716588    0.00351299   -0.00249731
     atom    9 type  2   force =    -0.00007444    0.00053119   -0.02125593
     atom   10 type  1   force =     0.00000000    0.00000000    0.00000000
     atom   11 type  2   force =    -0.00049992   -0.00051084    0.02075647
     atom   12 type  2   force =     0.00141244    0.00165634   -0.02094408
     atom   13 type  1   force =     0.00000000    0.00000000    0.00000000
     atom   14 type  2   force =    -0.00060080    0.00007656    0.02077935
     atom   15 type  2   force =     0.00067896    0.00038850   -0.02056883
     atom   16 type  1   force =     0.00000000    0.00000000    0.00000000
     atom   17 type  2   force =    -0.00028691    0.00154519    0.02043664
     atom   18 type  2   force =    -0.00000108   -0.00057215   -0.02106318
     atom   19 type  1   force =     0.00000000    0.00000000    0.00000000
     atom   20 type  2   force =    -0.00007566    0.00077182   -0.02130453
     atom   21 type  1   force =     0.00000000    0.00000000    0.00000000
     atom   22 type  2   force =     0.00012638   -0.00053325    0.02056882
     atom   23 type  2   force =    -0.00052979    0.00119918   -0.02082926
     atom   24 type  1   force =     0.00000000    0.00000000    0.00000000
     atom   25 type  2   force =    -0.00010710   -0.00048122    0.02081631
     atom   26 type  2   force =    -0.00020658    0.00063278   -0.02084523
     atom   27 type  1   force =     0.00000000    0.00000000    0.00000000
     atom   28 type  2   force =     0.00002042    0.00267230    0.02198235
     atom   29 type  2   force =    -0.00025982   -0.00071461   -0.02050924
     atom   30 type  1   force =     0.00000000    0.00000000    0.00000000
     atom   31 type  2   force =     0.00113572   -0.00008136    0.02024900
     atom   32 type  2   force =    -0.00026009    0.00055509   -0.02085113
     atom   33 type  1   force =     0.00000000    0.00000000    0.00000000
     atom   34 type  2   force =     0.00054547    0.00063201    0.02160008
     atom   35 type  2   force =    -0.00005907    0.00105313   -0.02113281
     atom   36 type  3   force =     0.01011337   -0.00154854    0.00880946
     The Hubbard contrib.    to forces
     atom    1 type  1   force =     0.00000000    0.00000000    0.00000000
     atom    2 type  2   force =     0.00000000    0.00000000    0.00000000
     atom    3 type  2   force =     0.00000000    0.00000000    0.00000000
     atom    4 type  1   force =     0.00000000    0.00000000    0.00000000
     atom    5 type  2   force =     0.00000000    0.00000000    0.00000000
     atom    6 type  2   force =     0.00000000    0.00000000    0.00000000
     atom    7 type  1   force =     0.00000000    0.00000000    0.00000000
     atom    8 type  2   force =     0.00000000    0.00000000    0.00000000
     atom    9 type  2   force =     0.00000000    0.00000000    0.00000000
     atom   10 type  1   force =     0.00000000    0.00000000    0.00000000
     atom   11 type  2   force =     0.00000000    0.00000000    0.00000000
     atom   12 type  2   force =     0.00000000    0.00000000    0.00000000
     atom   13 type  1   force =     0.00000000    0.00000000    0.00000000
     atom   14 type  2   force =     0.00000000    0.00000000    0.00000000
     atom   15 type  2   force =     0.00000000    0.00000000    0.00000000
     atom   16 type  1   force =     0.00000000    0.00000000    0.00000000
     atom   17 type  2   force =     0.00000000    0.00000000    0.00000000
     atom   18 type  2   force =     0.00000000    0.00000000    0.00000000
     atom   19 type  1   force =     0.00000000    0.00000000    0.00000000
     atom   20 type  2   force =     0.00000000    0.00000000    0.00000000
     atom   21 type  1   force =     0.00000000    0.00000000    0.00000000
     atom   22 type  2   force =     0.00000000    0.00000000    0.00000000
     atom   23 type  2   force =     0.00000000    0.00000000    0.00000000
     atom   24 type  1   force =     0.00000000    0.00000000    0.00000000
     atom   25 type  2   force =     0.00000000    0.00000000    0.00000000
     atom   26 type  2   force =     0.00000000    0.00000000    0.00000000
     atom   27 type  1   force =     0.00000000    0.00000000    0.00000000
     atom   28 type  2   force =     0.00000000    0.00000000    0.00000000
     atom   29 type  2   force =     0.00000000    0.00000000    0.00000000
     atom   30 type  1   force =     0.00000000    0.00000000    0.00000000
     atom   31 type  2   force =     0.00000000    0.00000000    0.00000000
     atom   32 type  2   force =     0.00000000    0.00000000    0.00000000
     atom   33 type  1   force =     0.00000000    0.00000000    0.00000000
     atom   34 type  2   force =     0.00000000    0.00000000    0.00000000
     atom   35 type  2   force =     0.00000000    0.00000000    0.00000000
     atom   36 type  3   force =     0.00000000    0.00000000    0.00000000
     The SCF correction term to forces
     atom    1 type  1   force =     0.00000698    0.00007253    0.00059883
     atom    2 type  2   force =     0.00001824    0.00001764    0.00022977
     atom    3 type  2   force =     0.00002551    0.00002607    0.00030865
     atom    4 type  1   force =    -0.00007532   -0.00009322    0.00062172
     atom    5 type  2   force =     0.00000518   -0.00000794    0.00019848
     atom    6 type  2   force =    -0.00001644    0.00000242    0.00030736
     atom    7 type  1   force =     0.00002614    0.00021148    0.00061222
     atom    8 type  2   force =    -0.00012905    0.00003275    0.00016432
     atom    9 type  2   force =    -0.00002865    0.00003504    0.00031963
     atom   10 type  1   force =    -0.00004088   -0.00012759    0.00062648
     atom   11 type  2   force =    -0.00002093   -0.00003378    0.00015335
     atom   12 type  2   force =    -0.00003422   -0.00005547    0.00035327
     atom   13 type  1   force =     0.00000382    0.00001454    0.00056782
     atom   14 type  2   force =     0.00000007    0.00000332    0.00025525
     atom   15 type  2   force =    -0.00001017    0.00001933    0.00029601
     atom   16 type  1   force =     0.00004741   -0.00011187    0.00059090
     atom   17 type  2   force =     0.00002350   -0.00000913    0.00021242
     atom   18 type  2   force =     0.00002012    0.00001169    0.00029076
     atom   19 type  1   force =    -0.00007054    0.00005437    0.00054827
     atom   20 type  2   force =    -0.00001921    0.00005038    0.00031539
     atom   21 type  1   force =     0.00006238   -0.00021006    0.00060200
     atom   22 type  2   force =     0.00002682   -0.00002315    0.00019896
     atom   23 type  2   force =     0.00001522   -0.00006762    0.00031109
     atom   24 type  1   force =    -0.00003007   -0.00001696    0.00058872
     atom   25 type  2   force =    -0.00001590    0.00000191    0.00023560
     atom   26 type  2   force =    -0.00000998    0.00001286    0.00029893
     atom   27 type  1   force =     0.00001436    0.00006429    0.00054365
     atom   28 type  2   force =    -0.00002720   -0.00003877    0.00022613
     atom   29 type  2   force =    -0.00000380   -0.00001893    0.00029894
     atom   30 type  1   force =     0.00004568    0.00006290    0.00048239
     atom   31 type  2   force =     0.00009639    0.00002636    0.00015499
     atom   32 type  2   force =     0.00004745    0.00003917    0.00032731
     atom   33 type  1   force =    -0.00000191   -0.00001840    0.00057216
     atom   34 type  2   force =    -0.00001778    0.00001908    0.00021402
     atom   35 type  2   force =     0.00001250   -0.00001794    0.00029528
     atom   36 type  3   force =    -0.00001138   -0.00000622    0.00037348

     Total force =     0.248179     Total SCF correction =     0.002457

     BFGS Geometry Optimization
     Energy error            =      0.0E+00 Ry
     Gradient error          =      1.4E-01 Ry/Bohr

     number of scf cycles    =   1
     number of bfgs steps    =   0

     energy             new  =   -2246.2343473132 Ry

     new trust radius        =       0.1754832047 bohr
     new conv_thr            =       0.0000010000 Ry


ATOMIC_POSITIONS (angstrom)
Mo            6.5800099024        1.7752066387        2.8260850817
S             8.1698723921        0.8178563455        4.4357891088
S             8.1868910331        0.8166108253        1.2758168039
Mo            8.0980591829        4.4934682606        2.7156047288
S             6.4990201048        3.7179457364        4.3447139470
S             6.5516422511        3.5161023195        1.1209063847
Mo            6.4861111558        7.2203560876        2.6657224629
S             8.1548356473        6.3160920845        4.2925301377
S             8.0864387066        6.3085921080        1.0908471341
Mo            8.1560094271        9.9045328135        2.8297078917
S             6.4960477671        8.9455952719        4.3784983996
S             6.6157360403        9.0478923018        1.1413941753
Mo            3.4244529156        1.7495126730        2.7732125049
S             4.9792510276        0.8166578601        4.3571404640
S             5.0516696383        0.8475638674        1.2223972695
Mo            4.9828719328        4.5198231420        2.6337807435
S             3.4317558222        3.6713891375        4.2810760166
S             3.4370853861        3.5440509961        1.0639981778
Mo            3.4580847134        7.2103657197        2.6255996041
S             4.9867311703        6.3252214629        1.0363812645
Mo            5.0117568330        9.9063861687        2.7439277180
S             3.4689382004        8.9426080537        4.3254750767
S             3.4077843154        9.0644807087        1.0998814353
Mo            0.2900657344        1.7451355129        2.8373448641
S             1.8587799173        0.8027090230        4.4025713514
S             1.8554191328        0.8545576182        1.2068645523
Mo            1.8594916869        4.4975091895        2.6654679280
S             0.2733588277        3.6525446400        4.3320505173
S             0.2322322123        3.5273094604        1.1704955915
Mo            0.2675608569        7.2311607753        2.6843010290
S             1.9071123462        6.3129782459        4.2236815532
S             1.8588125670        6.3139634992        1.0494886945
Mo            1.8501708449        9.9369349437        2.7677873392
S             0.2973652382        9.0675454362        4.4094671832
S             0.2734496901        9.0467635699        1.1591187130
O            -0.0725276083        6.0851350245        5.4656356892



     Writing config-only to output data dir ./MoS2-V-O.save/
     NEW-OLD atomic charge density approx. for the potential

     negative rho (up, down):  2.279E-04 0.000E+00

     total cpu time spent up to now is      138.6 secs

     Self-consistent Calculation

     iteration #  1     ecut=    80.00 Ry     beta= 0.70
     Davidson diagonalization with overlap
     ethr =  1.00E-06,  avg # of iterations = 15.0

     negative rho (up, down):  9.486E-05 0.000E+00

     total cpu time spent up to now is      152.6 secs

     total energy              =   -2246.28805220 Ry
     estimated scf accuracy    <       0.01891833 Ry

     iteration #  2     ecut=    80.00 Ry     beta= 0.70
     Davidson diagonalization with overlap
     ethr =  6.06E-06,  avg # of iterations =  6.0

     negative rho (up, down):  8.441E-05 0.000E+00

     total cpu time spent up to now is      164.0 secs

     total energy              =   -2246.29133431 Ry
     estimated scf accuracy    <       0.01042099 Ry

     iteration #  3     ecut=    80.00 Ry     beta= 0.70
     Davidson diagonalization with overlap
     ethr =  3.34E-06,  avg # of iterations =  4.0

     negative rho (up, down):  5.113E-05 0.000E+00

     total cpu time spent up to now is      180.9 secs

     total energy              =   -2246.29226404 Ry
     estimated scf accuracy    <       0.00055970 Ry

     iteration #  4     ecut=    80.00 Ry     beta= 0.70
     Davidson diagonalization with overlap
     ethr =  1.79E-07,  avg # of iterations =  6.0

     negative rho (up, down):  4.596E-05 0.000E+00

     total cpu time spent up to now is      193.3 secs

     total energy              =   -2246.29233460 Ry
     estimated scf accuracy    <       0.00006043 Ry

     iteration #  5     ecut=    80.00 Ry     beta= 0.70
     Davidson diagonalization with overlap
     ethr =  1.94E-08,  avg # of iterations =  4.0

     negative rho (up, down):  4.395E-05 0.000E+00

     total cpu time spent up to now is      208.6 secs

     total energy              =   -2246.29234074 Ry
     estimated scf accuracy    <       0.00001644 Ry

     iteration #  6     ecut=    80.00 Ry     beta= 0.70
     Davidson diagonalization with overlap
     ethr =  5.27E-09,  avg # of iterations =  5.0

     negative rho (up, down):  4.537E-05 0.000E+00

     total cpu time spent up to now is      220.8 secs

     total energy              =   -2246.29234336 Ry
     estimated scf accuracy    <       0.00000616 Ry

     iteration #  7     ecut=    80.00 Ry     beta= 0.70
     Davidson diagonalization with overlap
     ethr =  1.97E-09,  avg # of iterations =  5.0

     negative rho (up, down):  5.191E-05 0.000E+00

     total cpu time spent up to now is      233.5 secs

     total energy              =   -2246.29234409 Ry
     estimated scf accuracy    <       0.00000206 Ry

     iteration #  8     ecut=    80.00 Ry     beta= 0.70
     Davidson diagonalization with overlap
     ethr =  6.59E-10,  avg # of iterations =  5.0

     negative rho (up, down):  1.988E-04 0.000E+00

     total cpu time spent up to now is      237.7 secs

     End of self-consistent calculation

          k = 0.0000 0.0000 0.0000 (105382 PWs)   bands (ev):

   -63.0519 -63.0037 -62.9846 -62.9706 -62.9573 -62.9541 -62.9484 -62.9413
   -62.9314 -62.9148 -62.8864 -62.8288 -37.4076 -37.3146 -37.2796 -37.2558
   -37.2520 -37.2395 -37.2240 -37.2052 -37.2005 -37.1925 -37.1754 -37.1708
   -37.1561 -37.1485 -37.1380 -37.1311 -37.1258 -37.1248 -37.1190 -37.1138
   -37.1054 -37.1027 -37.0993 -37.0675 -37.0593 -37.0438 -37.0398 -37.0165
   -37.0112 -36.9864 -36.9776 -36.9730 -36.9441 -36.9279 -36.9093 -36.8570
   -20.3120 -16.0481 -15.3125 -15.1783 -15.1174 -14.9972 -14.8611 -14.6757
   -14.6187 -14.5510 -14.5091 -14.4753 -14.4583 -14.4097 -14.3598 -14.2686
   -14.2503 -14.2214 -14.1965 -14.0125 -13.9876 -13.9654 -13.9504 -13.8995
    -7.8486  -7.6960  -7.5467  -7.5028  -7.4041  -7.3561  -7.3257  -7.3099
    -7.2460  -7.0371  -6.9552  -6.8996  -6.8313  -6.8001  -6.7125  -6.6394
    -6.5556  -6.4899  -6.4012  -6.3498  -6.1684  -6.0763  -6.0263  -6.0054
    -5.9053  -5.8801  -5.8325  -5.8139  -5.7969  -5.7533  -5.7014  -5.6400
    -5.6338  -5.6018  -5.5224  -5.3249  -5.2691  -5.1925  -5.1739  -5.1213
    -5.0859  -5.0549  -4.9530  -4.8440  -4.7190  -4.6589  -4.4446  -4.4276
    -4.3800  -4.3457  -4.1992  -4.1444  -4.1100  -4.0299  -3.9501  -3.8973
    -3.8584  -3.8082  -3.7274  -3.6779  -3.6492  -3.6303  -3.6107  -3.5684
    -3.5190  -3.4837  -3.3412  -3.2863  -3.0737  -3.0347  -2.9941  -2.9461
    -2.9058  -2.8379  -2.8320  -2.8043  -2.7551  -2.7297  -2.5533  -2.3841
    -2.2052  -2.1056  -2.0668  -1.8958  -1.2957  -0.9562  -0.6701  -0.2857
    -0.2355  -0.1578  -0.0728   0.0041   0.0166   0.0927   0.1269   0.1589
     0.1719   0.2252   0.2868   0.3576   0.4323   0.4434   0.4616   0.5263
     0.5724   0.6166   0.6542   0.6709   0.6880   0.7218   0.7675   0.8693
     0.9016   0.9502   1.1324

     the Fermi energy is    -1.5957 ev

!    total energy              =   -2246.29234488 Ry
     estimated scf accuracy    <       0.00000039 Ry
     smearing contrib. (-TS)   =      -0.00008710 Ry
     internal energy E=F+TS    =   -2246.29225778 Ry

     The total energy is F=E-TS. E is the sum of the following terms:
     one-electron contribution =  -18428.11164574 Ry
     hartree contribution      =    9201.80243354 Ry
     xc contribution           =    -391.92436500 Ry
     ewald contribution        =    7381.80958984 Ry
     one-center paw contrib.   =      -9.86827042 Ry

     convergence has been achieved in   8 iterations

     negative rho (up, down):  1.988E-04 0.000E+00

     Forces acting on atoms (cartesian axes, Ry/au):

     atom    1 type  1   force =     0.00142299   -0.01233873    0.00014706
     atom    2 type  2   force =    -0.00823785    0.00917952   -0.00074141
     atom    3 type  2   force =    -0.01130753    0.00758174   -0.00919906
     atom    4 type  1   force =     0.00746691   -0.00321155    0.00012704
     atom    5 type  2   force =     0.00071727   -0.00707854   -0.00474726
     atom    6 type  2   force =    -0.00356435    0.00468343    0.00077794
     atom    7 type  1   force =     0.00585431   -0.00415370    0.01027960
     atom    8 type  2   force =     0.12320204   -0.03356705    0.06500368
     atom    9 type  2   force =     0.00701311    0.00679307    0.01041949
     atom   10 type  1   force =    -0.00356102    0.00424100   -0.00803911
     atom   11 type  2   force =     0.00266356    0.00226120   -0.00980391
     atom   12 type  2   force =    -0.00565975   -0.00177741   -0.00191769
     atom   13 type  1   force =     0.00461777    0.00267694   -0.00234814
     atom   14 type  2   force =     0.00550597   -0.00060555    0.00897337
     atom   15 type  2   force =    -0.00857172    0.00211888   -0.00651518
     atom   16 type  1   force =     0.00424050    0.00989253    0.00147415
     atom   17 type  2   force =     0.00649865    0.00068226    0.00192022
     atom   18 type  2   force =    -0.00129394   -0.00410595    0.00981748
     atom   19 type  1   force =     0.00602155   -0.00810722    0.00068277
     atom   20 type  2   force =     0.00690402   -0.00355402   -0.00595263
     atom   21 type  1   force =    -0.00404696    0.00556414    0.00259026
     atom   22 type  2   force =    -0.00162592   -0.00232177   -0.00251107
     atom   23 type  2   force =     0.00110350   -0.00098088    0.00338298
     atom   24 type  1   force =    -0.00607827   -0.00230951   -0.00980253
     atom   25 type  2   force =     0.01082172    0.01395801    0.00028495
     atom   26 type  2   force =    -0.00668824   -0.00031818   -0.00477974
     atom   27 type  1   force =    -0.00083239    0.00073599    0.00568371
     atom   28 type  2   force =     0.00156977   -0.00679508   -0.00932139
     atom   29 type  2   force =     0.00245169    0.00150132   -0.00448274
     atom   30 type  1   force =    -0.00059409    0.00835743   -0.01657450
     atom   31 type  2   force =     0.01528566    0.00778642   -0.00791353
     atom   32 type  2   force =    -0.00553952    0.00481678    0.00398272
     atom   33 type  1   force =     0.00399538   -0.00153513    0.00010271
     atom   34 type  2   force =    -0.00033327   -0.03061742   -0.01403658
     atom   35 type  2   force =    -0.00453339    0.01250349    0.00400745
     atom   36 type  3   force =    -0.14488817    0.01804357   -0.01097112
     The non-local contrib.  to forces
     atom    1 type  1   force =    -0.00055410    0.02502031   -0.01135851
     atom    2 type  2   force =    -0.00917668   -0.00286695   -0.27278719
     atom    3 type  2   force =    -0.01399520   -0.00623507    0.26563904
     atom    4 type  1   force =    -0.00202717    0.01561720    0.01243129
     atom    5 type  2   force =     0.00720285   -0.03079500   -0.25830766
     atom    6 type  2   force =    -0.00631311    0.00686887    0.26367545
     atom    7 type  1   force =    -0.04020038   -0.00782237   -0.01554015
     atom    8 type  2   force =     0.32653054   -0.06437225    0.21800931
     atom    9 type  2   force =     0.00459609   -0.00925166    0.27990275
     atom   10 type  1   force =     0.00902871    0.00546621    0.00190210
     atom   11 type  2   force =     0.00980989    0.00555742   -0.26000746
     atom   12 type  2   force =    -0.01828274   -0.02216878    0.26293920
     atom   13 type  1   force =    -0.00087719    0.02377937   -0.00792025
     atom   14 type  2   force =     0.00979161   -0.01028796   -0.26692360
     atom   15 type  2   force =    -0.01006329   -0.00625870    0.26077740
     atom   16 type  1   force =    -0.00911634    0.02292640   -0.03296819
     atom   17 type  2   force =     0.00611680   -0.02751165   -0.25391830
     atom   18 type  2   force =    -0.00232224    0.00075506    0.27447727
     atom   19 type  1   force =    -0.00700420   -0.00411548   -0.02586221
     atom   20 type  2   force =     0.00259126   -0.01788240    0.26610227
     atom   21 type  1   force =    -0.00316525    0.03244133    0.00617560
     atom   22 type  2   force =    -0.00567850    0.00373021   -0.26044894
     atom   23 type  2   force =     0.00742026   -0.01367637    0.26514666
     atom   24 type  1   force =     0.01348364    0.01991876   -0.01166402
     atom   25 type  2   force =     0.00482525    0.00235235   -0.26665673
     atom   26 type  2   force =     0.00026527   -0.01229268    0.26329433
     atom   27 type  1   force =    -0.00206534    0.00621595    0.00996729
     atom   28 type  2   force =     0.00123202   -0.03168543   -0.28433197
     atom   29 type  2   force =     0.00024868    0.00226363    0.26361767
     atom   30 type  1   force =    -0.00468473    0.02187993    0.02467587
     atom   31 type  2   force =    -0.01535364    0.00383640   -0.25714577
     atom   32 type  2   force =     0.00051089   -0.00952887    0.26778423
     atom   33 type  1   force =    -0.00416714    0.00287396    0.00825929
     atom   34 type  2   force =    -0.00491447   -0.02007686   -0.28119463
     atom   35 type  2   force =    -0.00253170   -0.00766832    0.26376152
     atom   36 type  3   force =    -1.20246713    0.18920034   -1.09947647
     The ionic contribution  to forces
     atom    1 type  1   force =    -0.19000159    0.08552424    4.71598522
     atom    2 type  2   force =    -0.61927448    0.19286368   39.12423566
     atom    3 type  2   force =    -0.20692424    0.00703341  -36.73695060
     atom    4 type  1   force =    -1.41945058   -0.85194369   -2.85190339
     atom    5 type  2   force =    -1.65762071    0.83157363   38.19843675
     atom    6 type  2   force =     0.18429787   -0.70460804  -38.58639190
     atom    7 type  1   force =    -3.34474154   -2.41895822    0.73910425
     atom    8 type  2   force =    -6.04235757    1.11277688   32.96583901
     atom    9 type  2   force =     0.07120800   -0.08100132  -38.92933121
     atom   10 type  1   force =    -1.29422528    0.68529173    3.93485137
     atom   11 type  2   force =    -0.99760580   -1.08024265   38.73335150
     atom   12 type  2   force =     0.26169888    0.83889879  -38.48217033
     atom   13 type  1   force =     0.66006103    0.59072252    1.78712929
     atom   14 type  2   force =    -0.05710136   -0.01842565   38.42331455
     atom   15 type  2   force =     0.14150521   -0.03074830  -37.31813882
     atom   16 type  1   force =    -0.13287390    3.32894269   -0.82008729
     atom   17 type  2   force =     1.27208436    0.97111128   37.55172260
     atom   18 type  2   force =    -0.06421253   -0.73775548  -39.07329277
     atom   19 type  1   force =     3.50837633   -1.88036314   -1.24216486
     atom   20 type  2   force =     0.19734008   -0.21466224  -39.20776240
     atom   21 type  1   force =    -0.14188120    0.41145860    0.30642075
     atom   22 type  2   force =     0.80974018   -1.25772392   38.11738208
     atom   23 type  2   force =     0.03624332    0.80147557  -38.82935229
     atom   24 type  1   force =    -0.21123974    0.23577597    4.14478389
     atom   25 type  2   force =     0.71526923    0.16153834   39.00384847
     atom   26 type  2   force =    -0.17172661    0.04704260  -37.81936966
     atom   27 type  1   force =     1.39850036   -0.86764269   -4.76608730
     atom   28 type  2   force =     0.39357455   -1.42395082   36.93848900
     atom   29 type  2   force =    -0.18933077   -0.64941174  -38.13004844
     atom   30 type  1   force =     0.07166709    0.63963093   -5.71322516
     atom   31 type  2   force =     4.06637110    0.36613628   35.28178909
     atom   32 type  2   force =    -0.22968217   -0.06474606  -39.53769107
     atom   33 type  1   force =     1.14636137    0.23053627    0.82238104
     atom   34 type  2   force =     0.38314678    0.38493602   38.57650923
     atom   35 type  2   force =    -0.22465323    0.84980284  -38.57779013
     atom   36 type  3   force =     1.87745756   -0.49088830   47.25618387
     The local contribution  to forces
     atom    1 type  1   force =     0.19173302   -0.12266896   -4.70490544
     atom    2 type  2   force =     0.61994878   -0.18082015  -38.87342480
     atom    3 type  2   force =     0.20897537    0.00658299   36.48283539
     atom    4 type  1   force =     1.42891911    0.83310291    2.83949528
     atom    5 type  2   force =     1.65178886   -0.80950666  -37.96586262
     atom    6 type  2   force =    -0.18212584    0.70333281   38.34435723
     atom    7 type  1   force =     3.39093982    2.42244759   -0.71343209
     atom    8 type  2   force =     5.85830964   -1.08609745  -33.11325226
     atom    9 type  2   force =    -0.06877149    0.09653358   38.68109372
     atom   10 type  1   force =     1.28181408   -0.68632421   -3.94500943
     atom   11 type  2   force =     0.99091019    1.07740184  -38.50415417
     atom   12 type  2   force =    -0.25047485   -0.82011143   38.23811337
     atom   13 type  1   force =    -0.65463068   -0.61183302   -1.78188346
     atom   14 type  2   force =     0.05332188    0.02807996  -38.16859827
     atom   15 type  2   force =    -0.14064327    0.03875615   37.07138518
     atom   16 type  1   force =     0.14621176   -3.34230839    0.85424385
     atom   17 type  2   force =    -1.27146878   -0.94444787  -37.31669521
     atom   18 type  2   force =     0.06531800    0.73347762   38.82971147
     atom   19 type  1   force =    -3.49533755    1.87643880    1.26846158
     atom   20 type  2   force =    -0.19295655    0.22828677   38.95691217
     atom   21 type  1   force =     0.14078389   -0.43817213   -0.31044434
     atom   22 type  2   force =    -0.80578506    1.25225709  -37.88039901
     atom   23 type  2   force =    -0.04200412   -0.78992394   38.58832025
     atom   24 type  1   force =     0.19197663   -0.25804270   -4.14309906
     atom   25 type  2   force =    -0.70931508   -0.14959356  -38.75820805
     atom   26 type  2   force =     0.16508291   -0.03567396   37.57214976
     atom   27 type  1   force =    -1.39728919    0.86191462    4.76158832
     atom   28 type  2   force =    -0.39320447    1.44622082  -36.68570586
     atom   29 type  2   force =     0.19177589    0.64921187   37.88248708
     atom   30 type  1   force =    -0.06757666   -0.65333260    5.67195662
     atom   31 type  2   force =    -4.03553561   -0.36220999  -35.05409525
     atom   32 type  2   force =     0.22397735    0.07853292   39.29460487
     atom   33 type  1   force =    -1.13818389   -0.23457910   -0.83072246
     atom   34 type  2   force =    -0.37910433   -0.39569009  -38.33131665
     atom   35 type  2   force =     0.22270734   -0.83042254   38.33885048
     atom   36 type  3   force =    -0.83372339    0.32179076  -46.18040626
     The core correction contribution to forces
     atom    1 type  1   force =     0.00000000    0.00000000    0.00000000
     atom    2 type  2   force =     0.00033495    0.00002631    0.02093963
     atom    3 type  2   force =     0.00064806    0.00022453   -0.02079486
     atom    4 type  1   force =     0.00000000    0.00000000    0.00000000
     atom    5 type  2   force =    -0.00065198    0.00162072    0.02062109
     atom    6 type  2   force =     0.00052612   -0.00096490   -0.02084910
     atom    7 type  1   force =     0.00000000    0.00000000    0.00000000
     atom    8 type  2   force =    -0.01913041    0.00404342   -0.00585356
     atom    9 type  2   force =    -0.00003666    0.00046275   -0.02130101
     atom   10 type  1   force =     0.00000000    0.00000000    0.00000000
     atom   11 type  2   force =    -0.00043386   -0.00043462    0.02073472
     atom   12 type  2   force =     0.00136664    0.00165493   -0.02091479
     atom   13 type  1   force =     0.00000000    0.00000000    0.00000000
     atom   14 type  2   force =    -0.00058116    0.00010040    0.02085812
     atom   15 type  2   force =     0.00058874    0.00042496   -0.02058920
     atom   16 type  1   force =     0.00000000    0.00000000    0.00000000
     atom   17 type  2   force =    -0.00024321    0.00144406    0.02045650
     atom   18 type  2   force =    -0.00005996   -0.00066023   -0.02108407
     atom   19 type  1   force =     0.00000000    0.00000000    0.00000000
     atom   20 type  2   force =    -0.00008719    0.00065901   -0.02127437
     atom   21 type  1   force =     0.00000000    0.00000000    0.00000000
     atom   22 type  2   force =     0.00005237   -0.00051736    0.02064180
     atom   23 type  2   force =    -0.00054215    0.00122405   -0.02078860
     atom   24 type  1   force =     0.00000000    0.00000000    0.00000000
     atom   25 type  2   force =     0.00003467   -0.00031540    0.02092239
     atom   26 type  2   force =    -0.00026517    0.00063340   -0.02083984
     atom   27 type  1   force =     0.00000000    0.00000000    0.00000000
     atom   28 type  2   force =    -0.00002691    0.00262620    0.02190891
     atom   29 type  2   force =    -0.00019219   -0.00060335   -0.02056864
     atom   30 type  1   force =     0.00000000    0.00000000    0.00000000
     atom   31 type  2   force =    -0.00029152   -0.00001714    0.02127556
     atom   32 type  2   force =    -0.00032967    0.00050684   -0.02077617
     atom   33 type  1   force =     0.00000000    0.00000000    0.00000000
     atom   34 type  2   force =     0.00057565    0.00027491    0.02165345
     atom   35 type  2   force =    -0.00002573    0.00087786   -0.02089052
     atom   36 type  3   force =     0.01374875   -0.00209013    0.01189314
     The Hubbard contrib.    to forces
     atom    1 type  1   force =     0.00000000    0.00000000    0.00000000
     atom    2 type  2   force =     0.00000000    0.00000000    0.00000000
     atom    3 type  2   force =     0.00000000    0.00000000    0.00000000
     atom    4 type  1   force =     0.00000000    0.00000000    0.00000000
     atom    5 type  2   force =     0.00000000    0.00000000    0.00000000
     atom    6 type  2   force =     0.00000000    0.00000000    0.00000000
     atom    7 type  1   force =     0.00000000    0.00000000    0.00000000
     atom    8 type  2   force =     0.00000000    0.00000000    0.00000000
     atom    9 type  2   force =     0.00000000    0.00000000    0.00000000
     atom   10 type  1   force =     0.00000000    0.00000000    0.00000000
     atom   11 type  2   force =     0.00000000    0.00000000    0.00000000
     atom   12 type  2   force =     0.00000000    0.00000000    0.00000000
     atom   13 type  1   force =     0.00000000    0.00000000    0.00000000
     atom   14 type  2   force =     0.00000000    0.00000000    0.00000000
     atom   15 type  2   force =     0.00000000    0.00000000    0.00000000
     atom   16 type  1   force =     0.00000000    0.00000000    0.00000000
     atom   17 type  2   force =     0.00000000    0.00000000    0.00000000
     atom   18 type  2   force =     0.00000000    0.00000000    0.00000000
     atom   19 type  1   force =     0.00000000    0.00000000    0.00000000
     atom   20 type  2   force =     0.00000000    0.00000000    0.00000000
     atom   21 type  1   force =     0.00000000    0.00000000    0.00000000
     atom   22 type  2   force =     0.00000000    0.00000000    0.00000000
     atom   23 type  2   force =     0.00000000    0.00000000    0.00000000
     atom   24 type  1   force =     0.00000000    0.00000000    0.00000000
     atom   25 type  2   force =     0.00000000    0.00000000    0.00000000
     atom   26 type  2   force =     0.00000000    0.00000000    0.00000000
     atom   27 type  1   force =     0.00000000    0.00000000    0.00000000
     atom   28 type  2   force =     0.00000000    0.00000000    0.00000000
     atom   29 type  2   force =     0.00000000    0.00000000    0.00000000
     atom   30 type  1   force =     0.00000000    0.00000000    0.00000000
     atom   31 type  2   force =     0.00000000    0.00000000    0.00000000
     atom   32 type  2   force =     0.00000000    0.00000000    0.00000000
     atom   33 type  1   force =     0.00000000    0.00000000    0.00000000
     atom   34 type  2   force =     0.00000000    0.00000000    0.00000000
     atom   35 type  2   force =     0.00000000    0.00000000    0.00000000
     atom   36 type  3   force =     0.00000000    0.00000000    0.00000000
     The SCF correction term to forces
     atom    1 type  1   force =     0.00024621   -0.00021477    0.00041125
     atom    2 type  2   force =    -0.00006987   -0.00002381    0.00028074
     atom    3 type  2   force =    -0.00001098   -0.00002456    0.00005741
     atom    4 type  1   force =     0.00002610    0.00001159    0.00008932
     atom    5 type  2   force =    -0.00000120    0.00002832    0.00035063
     atom    6 type  2   force =     0.00005115    0.00005425   -0.00002830
     atom    7 type  1   force =    -0.00014304    0.00017886    0.00013305
     atom    8 type  2   force =    -0.00014961    0.00008191    0.00024663
     atom    9 type  2   force =     0.00001772    0.00004927    0.00004069
     atom   10 type  1   force =    -0.00017798   -0.00019317    0.00020230
     atom   11 type  2   force =    -0.00001632   -0.00002122    0.00025696
     atom   12 type  2   force =     0.00003286   -0.00005136    0.00010031
     atom   13 type  1   force =     0.00006514    0.00000763    0.00031174
     atom   14 type  2   force =     0.00007554   -0.00007274    0.00030803
     atom   15 type  2   force =     0.00004144   -0.00005568    0.00003572
     atom   16 type  1   force =     0.00001953    0.00033138    0.00027125
     atom   17 type  2   force =     0.00001002    0.00008600    0.00034009
     atom   18 type  2   force =    -0.00001667    0.00007664   -0.00000896
     atom   19 type  1   force =    -0.00001248   -0.00006784    0.00023371
     atom   20 type  2   force =     0.00001697    0.00004440    0.00005516
     atom   21 type  1   force =     0.00021614   -0.00016410    0.00042370
     atom   22 type  2   force =     0.00004564   -0.00006822    0.00029845
     atom   23 type  2   force =    -0.00001326   -0.00008064    0.00004243
     atom   24 type  1   force =    -0.00029826    0.00003802    0.00016211
     atom   25 type  2   force =     0.00000819   -0.00002417    0.00036432
     atom   26 type  2   force =    -0.00004409   -0.00002799   -0.00002888
     atom   27 type  1   force =     0.00002233    0.00024766    0.00020085
     atom   28 type  2   force =    -0.00000487   -0.00000630    0.00030399
     atom   29 type  2   force =    -0.00004938    0.00004048    0.00001505
     atom   30 type  1   force =     0.00000076    0.00017872    0.00000362
     atom   31 type  2   force =     0.00009588    0.00004044    0.00024829
     atom   32 type  2   force =    -0.00001537    0.00005150    0.00004631
     atom   33 type  1   force =    -0.00001441   -0.00036670    0.00017030
     atom   34 type  2   force =    -0.00003636   -0.00006185    0.00029747
     atom   35 type  2   force =    -0.00002951   -0.00008679    0.00006155
     atom   36 type  3   force =     0.00009658    0.00003045    0.00082006

     Total force =     0.216754     Total SCF correction =     0.001822
     Energy error            =      5.8E-02 Ry
     Gradient error          =      1.4E-01 Ry/Bohr

     number of scf cycles    =   2
     number of bfgs steps    =   1

     energy             old  =   -2246.2343473132 Ry
     energy             new  =   -2246.2923448767 Ry

     CASE: energy            _new < energy            _old


     WARNING: bfgs curvature condition failed, Theta= 0.954
     new trust radius        =       0.1930315252 bohr
     new conv_thr            =       0.0000001449 Ry


ATOMIC_POSITIONS (angstrom)
Mo            6.5826596214        1.7647378115        2.8270345597
S             8.1634497336        0.8252052738        4.4358825510
S             8.1791699176        0.8221896968        1.2706483342
Mo            8.1026931348        4.4913518145        2.7148692771
S             6.4990451700        3.7129339603        4.3417299838
S             6.5493133334        3.5199256893        1.1211460552
Mo            6.4875343612        7.2190485798        2.6684497112
S             8.2404037367        6.2899501883        4.3418139440
S             8.0917987501        6.3132593182        1.0983721412
Mo            8.1526378367        9.9074192485        2.8208918665
S             6.4976456768        8.9476431366        4.3721248261
S             6.6122179971        9.0467426800        1.1410067853
Mo            3.4276792133        1.7517203435        2.7709104466
S             4.9833695683        0.8162646277        4.3638343007
S             5.0453284985        0.8490514842        1.2177300833
Mo            4.9860326283        4.5269726915        2.6348123073
S             3.4362901815        3.6716415469        4.2824913539
S             3.4361624583        3.5405727095        1.0707522811
Mo            3.4625007090        7.2043218774        2.6241010364
S             4.9913103988        6.3228963360        1.0332040565
Mo            5.0096277454        9.9107847852        2.7453632017
S             3.4674292806        8.9410798947        4.3242254041
S             3.4080830662        9.0638256392        1.1028807842
Mo            0.2849741085        1.7431703592        2.8282757995
S             1.8669782687        0.8130267078        4.4042779916
S             1.8502657909        0.8544519605        1.2036528032
Mo            1.8586596344        4.4985261795        2.6700983741
S             0.2745259072        3.6486089472        4.3255756685
S             0.2337716928        3.5280532820        1.1677915818
Mo            0.2659828163        7.2404036848        2.6700690550
S             1.9162187485        6.3167881366        4.2203203548
S             1.8549153380        6.3175829046        1.0531781991
Mo            1.8541884104        9.9350435388        2.7659803759
S             0.2977275361        9.0447390139        4.4011313740
S             0.2700738205        9.0539429462        1.1641833629
O            -0.1683180778        6.0986805270        5.4559513054



     Writing config-only to output data dir ./MoS2-V-O.save/
     NEW-OLD atomic charge density approx. for the potential

     negative rho (up, down):  2.051E-04 0.000E+00

     total cpu time spent up to now is      245.6 secs

     Self-consistent Calculation

     iteration #  1     ecut=    80.00 Ry     beta= 0.70
     Davidson diagonalization with overlap
     ethr =  1.00E-06,  avg # of iterations = 19.0

     negative rho (up, down):  5.473E-05 0.000E+00

     total cpu time spent up to now is      261.6 secs

     total energy              =   -2246.33164052 Ry
     estimated scf accuracy    <       0.02404355 Ry

     iteration #  2     ecut=    80.00 Ry     beta= 0.70
     Davidson diagonalization with overlap
     ethr =  7.71E-06,  avg # of iterations =  5.0

     negative rho (up, down):  4.131E-05 0.000E+00

     total cpu time spent up to now is      275.4 secs

     total energy              =   -2246.33656719 Ry
     estimated scf accuracy    <       0.01150648 Ry

     iteration #  3     ecut=    80.00 Ry     beta= 0.70
     Davidson diagonalization with overlap
     ethr =  3.69E-06,  avg # of iterations =  3.0

     negative rho (up, down):  2.316E-05 0.000E+00

     total cpu time spent up to now is      289.8 secs

     total energy              =   -2246.33716757 Ry
     estimated scf accuracy    <       0.00141095 Ry

     iteration #  4     ecut=    80.00 Ry     beta= 0.70
     Davidson diagonalization with overlap
     ethr =  4.52E-07,  avg # of iterations =  4.0

     negative rho (up, down):  2.026E-05 0.000E+00

     total cpu time spent up to now is      303.4 secs

     total energy              =   -2246.33731417 Ry
     estimated scf accuracy    <       0.00023696 Ry

     iteration #  5     ecut=    80.00 Ry     beta= 0.70
     Davidson diagonalization with overlap
     ethr =  7.59E-08,  avg # of iterations =  2.0

     negative rho (up, down):  1.799E-05 0.000E+00

     total cpu time spent up to now is      315.1 secs

     total energy              =   -2246.33732309 Ry
     estimated scf accuracy    <       0.00006337 Ry

     iteration #  6     ecut=    80.00 Ry     beta= 0.70
     Davidson diagonalization with overlap
     ethr =  2.03E-08,  avg # of iterations =  5.0

     negative rho (up, down):  1.615E-05 0.000E+00

     total cpu time spent up to now is      326.8 secs

     total energy              =   -2246.33733114 Ry
     estimated scf accuracy    <       0.00002548 Ry

     iteration #  7     ecut=    80.00 Ry     beta= 0.70
     Davidson diagonalization with overlap
     ethr =  8.17E-09,  avg # of iterations =  2.0

     negative rho (up, down):  1.471E-05 0.000E+00

     total cpu time spent up to now is      337.9 secs

     total energy              =   -2246.33733364 Ry
     estimated scf accuracy    <       0.00000794 Ry

     iteration #  8     ecut=    80.00 Ry     beta= 0.70
     Davidson diagonalization with overlap
     ethr =  2.54E-09,  avg # of iterations =  5.0

     negative rho (up, down):  1.734E-05 0.000E+00

     total cpu time spent up to now is      349.5 secs

     total energy              =   -2246.33733752 Ry
     estimated scf accuracy    <       0.00000258 Ry

     iteration #  9     ecut=    80.00 Ry     beta= 0.70
     Davidson diagonalization with overlap
     ethr =  8.26E-10,  avg # of iterations =  2.0

     negative rho (up, down):  4.380E-05 0.000E+00

     total cpu time spent up to now is      361.4 secs

     total energy              =   -2246.33733938 Ry
     estimated scf accuracy    <       0.00000079 Ry

     iteration # 10     ecut=    80.00 Ry     beta= 0.70
     Davidson diagonalization with overlap
     ethr =  2.53E-10,  avg # of iterations =  4.0

     negative rho (up, down):  8.294E-05 0.000E+00

     total cpu time spent up to now is      372.6 secs

     total energy              =   -2246.33733997 Ry
     estimated scf accuracy    <       0.00000021 Ry

     iteration # 11     ecut=    80.00 Ry     beta= 0.70
     Davidson diagonalization with overlap
     ethr =  6.78E-11,  avg # of iterations =  3.0

     negative rho (up, down):  2.008E-04 0.000E+00

     total cpu time spent up to now is      376.7 secs

     End of self-consistent calculation

          k = 0.0000 0.0000 0.0000 (105382 PWs)   bands (ev):

   -63.0064 -62.9746 -62.9650 -62.9452 -62.9364 -62.9281 -62.9181 -62.9151
   -62.8984 -62.8972 -62.8857 -62.7494 -37.3614 -37.2908 -37.2456 -37.2278
   -37.2245 -37.2083 -37.1897 -37.1788 -37.1738 -37.1664 -37.1471 -37.1433
   -37.1282 -37.1255 -37.1162 -37.1067 -37.0997 -37.0930 -37.0891 -37.0848
   -37.0821 -37.0725 -37.0663 -37.0558 -37.0375 -37.0188 -37.0102 -36.9996
   -36.9766 -36.9495 -36.9486 -36.9174 -36.9050 -36.9026 -36.8628 -36.8248
   -22.0749 -16.0250 -15.2896 -15.1586 -15.0532 -14.9747 -14.8329 -14.6005
   -14.5790 -14.5257 -14.4946 -14.4337 -14.4258 -14.3811 -14.3365 -14.2350
   -14.2144 -14.2008 -14.1629 -13.9924 -13.9579 -13.9446 -13.9184 -13.6075
    -7.9598  -7.9001  -7.5866  -7.5509  -7.4481  -7.3315  -7.3148  -7.2902
    -7.2243  -7.1238  -6.9563  -6.9271  -6.8153  -6.7854  -6.7066  -6.6486
    -6.5274  -6.4641  -6.3800  -6.3211  -6.1928  -6.1073  -5.9966  -5.9710
    -5.8796  -5.8610  -5.8057  -5.7972  -5.7667  -5.7340  -5.6836  -5.6329
    -5.6210  -5.5975  -5.4609  -5.3170  -5.2492  -5.1788  -5.1489  -5.0923
    -5.0690  -5.0366  -4.9549  -4.8337  -4.7249  -4.6929  -4.4295  -4.4078
    -4.3456  -4.3223  -4.2383  -4.1613  -4.1309  -4.0258  -4.0079  -3.8670
    -3.8301  -3.7664  -3.7428  -3.6586  -3.6349  -3.5979  -3.5869  -3.5440
    -3.5102  -3.4589  -3.3718  -3.2695  -3.0804  -3.0236  -2.9991  -2.9097
    -2.8644  -2.8318  -2.8112  -2.7893  -2.7293  -2.7133  -2.5613  -2.3689
    -2.2722  -2.1055  -2.0797  -1.9576  -1.1569  -0.9162  -0.5995  -0.2497
    -0.1953  -0.1356  -0.0429   0.0341   0.0683   0.1151   0.1606   0.2055
     0.2145   0.2516   0.3154   0.3933   0.4562   0.4774   0.4933   0.5732
     0.6028   0.6402   0.6747   0.6895   0.7186   0.7491   0.8174   0.9146
     0.9329   0.9783   1.1858

     the Fermi energy is    -1.5572 ev

!    total energy              =   -2246.33734007 Ry
     estimated scf accuracy    <       0.00000006 Ry
     smearing contrib. (-TS)   =      -0.00000196 Ry
     internal energy E=F+TS    =   -2246.33733811 Ry

     The total energy is F=E-TS. E is the sum of the following terms:
     one-electron contribution =  -18430.42668670 Ry
     hartree contribution      =    9203.08460687 Ry
     xc contribution           =    -392.05818257 Ry
     ewald contribution        =    7382.92256100 Ry
     one-center paw contrib.   =      -9.85963671 Ry

     convergence has been achieved in  11 iterations

     negative rho (up, down):  2.008E-04 0.000E+00

     Forces acting on atoms (cartesian axes, Ry/au):

     atom    1 type  1   force =    -0.00478276   -0.00337530   -0.00349614
     atom    2 type  2   force =    -0.00442108    0.00450880   -0.00246001
     atom    3 type  2   force =    -0.00969848    0.00481426   -0.01123213
     atom    4 type  1   force =     0.00972064   -0.00104660    0.00404647
     atom    5 type  2   force =     0.00280680   -0.00485789   -0.00469704
     atom    6 type  2   force =    -0.00384081    0.00228200    0.00168147
     atom    7 type  1   force =     0.01105449   -0.01024940    0.01990566
     atom    8 type  2   force =     0.03632287   -0.00535742   -0.03393791
     atom    9 type  2   force =     0.00363962    0.00512927    0.00912877
     atom   10 type  1   force =    -0.00183802    0.00542974    0.00162878
     atom   11 type  2   force =     0.00402776   -0.00009004   -0.00781248
     atom   12 type  2   force =    -0.00551503   -0.00225828   -0.00186167
     atom   13 type  1   force =     0.00334149    0.00076866   -0.00003561
     atom   14 type  2   force =     0.00334658   -0.00048836    0.00599742
     atom   15 type  2   force =    -0.00610700    0.00122038   -0.00485909
     atom   16 type  1   force =     0.00228292    0.00697153    0.00162576
     atom   17 type  2   force =     0.00549746    0.00162691    0.00141162
     atom   18 type  2   force =    -0.00119977   -0.00047868    0.00862529
     atom   19 type  1   force =     0.00389480   -0.00401509    0.00393484
     atom   20 type  2   force =     0.00770691   -0.00276564   -0.00575366
     atom   21 type  1   force =    -0.00522556    0.00211242    0.00181409
     atom   22 type  2   force =     0.00000324   -0.00181345   -0.00314352
     atom   23 type  2   force =     0.00260111   -0.00088255    0.00212266
     atom   24 type  1   force =    -0.00248454   -0.00011446   -0.00216595
     atom   25 type  2   force =     0.00657072    0.00928869   -0.00443462
     atom   26 type  2   force =    -0.00346937   -0.00064133   -0.00331713
     atom   27 type  1   force =     0.00135728   -0.00168116    0.00075295
     atom   28 type  2   force =     0.00169497   -0.01036189   -0.00653282
     atom   29 type  2   force =     0.00290664    0.00208257   -0.00521786
     atom   30 type  1   force =     0.00709934   -0.00650527   -0.00338354
     atom   31 type  2   force =     0.01931774    0.00963402   -0.00898146
     atom   32 type  2   force =    -0.00335887    0.00237984    0.00001558
     atom   33 type  1   force =    -0.00002933    0.00089476    0.00416520
     atom   34 type  2   force =    -0.00231735   -0.01962349   -0.01559619
     atom   35 type  2   force =    -0.00378815    0.01709482   -0.00463646
     atom   36 type  3   force =    -0.07711727    0.00036765    0.06669873
     The non-local contrib.  to forces
     atom    1 type  1   force =    -0.00006382    0.02273362   -0.01158951
     atom    2 type  2   force =    -0.00619548   -0.00656358   -0.27220064
     atom    3 type  2   force =    -0.01172874   -0.00860701    0.26290526
     atom    4 type  1   force =    -0.00185259    0.02510031    0.01827804
     atom    5 type  2   force =     0.00931614   -0.02885247   -0.25770049
     atom    6 type  2   force =    -0.00774399    0.00388152    0.26479093
     atom    7 type  1   force =    -0.03612655   -0.01242663   -0.01664744
     atom    8 type  2   force =     0.26286706   -0.06208283    0.19084168
     atom    9 type  2   force =     0.00343620   -0.01022915    0.27919545
     atom   10 type  1   force =     0.00791346    0.00466126    0.00137609
     atom   11 type  2   force =     0.01045030    0.00278636   -0.25814117
     atom   12 type  2   force =    -0.01749595   -0.02161853    0.26362680
     atom   13 type  1   force =     0.00025555    0.02439170   -0.00779665
     atom   14 type  2   force =     0.00779282   -0.01030803   -0.26791351
     atom   15 type  2   force =    -0.00816305   -0.00691907    0.26074928
     atom   16 type  1   force =    -0.00818261    0.02420752   -0.03533065
     atom   17 type  2   force =     0.00557758   -0.02594982   -0.25449874
[...]
     atom   28 type  2   force =    -0.00083956   -0.01128221   -0.27797393
     atom   29 type  2   force =    -0.00114838   -0.00805713    0.26713730
     atom   30 type  1   force =    -0.00537663    0.00305048    0.01971704
     atom   31 type  2   force =    -0.00828458   -0.00019383   -0.26826802
     atom   32 type  2   force =     0.00817341   -0.01367568    0.26363618
     atom   33 type  1   force =     0.00040696    0.00684510    0.00428419
     atom   34 type  2   force =    -0.00045730   -0.00861245   -0.27694982
     atom   35 type  2   force =     0.00102759   -0.01413142    0.26383459
     atom   36 type  3   force =     0.03045748    0.05789005   -2.30928338
     The ionic contribution  to forces
     atom    1 type  1   force =    -0.27844991    0.21082557    2.14447134
     atom    2 type  2   force =    -0.14868637    0.07051453   38.61040851
     atom    3 type  2   force =     0.07027849   -0.07780122  -37.75497007
     atom    4 type  1   force =    -0.11019600   -0.95244408   -3.96018408
     atom    5 type  2   force =    -1.46994803    0.09350796   37.61966003
     atom    6 type  2   force =     0.10363200   -0.50948627  -38.69026202
     atom    7 type  1   force =    -3.35668846   -1.39593038   -2.01240005
     atom    8 type  2   force =    -1.10959073    0.29699694   28.00852706
     atom    9 type  2   force =     0.35089039    0.03752616  -38.64055407
     atom   10 type  1   force =    -0.40891346    0.59283336    2.05508709
     atom   11 type  2   force =    -1.04848410   -0.31895275   37.94560844
     atom   12 type  2   force =     0.23596944    0.57250088  -38.68467992
     atom   13 type  1   force =     0.06960101    0.51852743    1.78814005
     atom   14 type  2   force =    -0.12534529   -0.04065735   38.53766970
     atom   15 type  2   force =    -0.01418325   -0.09229996  -37.92881157
     atom   16 type  1   force =    -0.53536682    2.75081832    0.59295073
     atom   17 type  2   force =     0.76645972    0.83295067   38.03503244
     atom   18 type  2   force =    -0.17719879   -0.51013703  -38.45921609
     atom   19 type  1   force =     2.57084851   -1.57274437    0.90759776
     atom   20 type  2   force =    -0.06426646   -0.11107168  -39.59083440
     atom   21 type  1   force =    -0.30372592    0.38097374    0.18100286
     atom   22 type  2   force =     0.40458095   -1.09677436   38.26301821
     atom   23 type  2   force =    -0.23999771    0.48017537  -38.42127137
     atom   24 type  1   force =     0.18541210   -0.11097601    1.40875975
     atom   25 type  2   force =     0.28517958    0.08450026   38.65178238
     atom   26 type  2   force =    -0.04442775   -0.06066643  -37.90606428
     atom   27 type  1   force =     0.61920393   -0.29361854   -0.96134376
     atom   28 type  2   force =     0.64541925   -0.48724328   37.46498269
     atom   29 type  2   force =     0.09169265   -0.26870188  -38.43848471
     atom   30 type  1   force =     1.01331465   -0.00342224   -1.63363445
     atom   31 type  2   force =     2.02660056    0.04243819   37.59203880
     atom   32 type  2   force =    -0.31710600   -0.02116533  -38.72788797
     atom   33 type  1   force =     0.72407927    0.23160737    1.86944053
     atom   34 type  2   force =     0.55591854    0.57973859   38.34357278
     atom   35 type  2   force =    -0.00048186    0.36773710  -38.17279021
     atom   36 type  3   force =    -0.96602413   -0.22007930   49.96363788
     The local contribution  to forces
     atom    1 type  1   force =     0.28356892   -0.23411668   -2.13831162
     atom    2 type  2   force =     0.15015757   -0.06010575  -38.36127352
     atom    3 type  2   force =    -0.06791082    0.08697816   37.50737201
     atom    4 type  1   force =     0.10757283    0.92879041    3.93753376
     atom    5 type  2   force =     1.46767687   -0.07149276  -37.37958607
     atom    6 type  2   force =    -0.10341452    0.51119653   38.44268246
     atom    7 type  1   force =     3.36593714    1.40453299    2.01809901
     atom    8 type  2   force =     1.11034741   -0.26346964  -28.29712395
     atom    9 type  2   force =    -0.34453149   -0.02540508   38.38102167
     atom   10 type  1   force =     0.40703813   -0.59780753   -2.05606466
     atom   11 type  2   force =     1.04388061    0.32173055  -37.70180158
     atom   12 type  2   force =    -0.22741637   -0.55714664   38.44257712
     atom   13 type  1   force =    -0.07114606   -0.54368813   -1.78077499
     atom   14 type  2   force =     0.12314179    0.05056854  -38.28776270
     atom   15 type  2   force =     0.01483351    0.10169431   37.68673998
     atom   16 type  1   force =     0.53538440   -2.78092751   -0.55435155
     atom   17 type  2   force =    -0.76486291   -0.81171031  -37.79783325
     atom   18 type  2   force =     0.17751421    0.51156149   38.21140468
     atom   19 type  1   force =    -2.58702907    1.56715138   -0.88181518
     atom   20 type  2   force =     0.06526445    0.12167412   39.35065433
     atom   21 type  1   force =     0.30530388   -0.40866654   -0.18505482
     atom   22 type  2   force =    -0.39837754    1.09907958  -38.02016063
     atom   23 type  2   force =     0.23182196   -0.46628612   38.17759516
     atom   24 type  1   force =    -0.18938176    0.09775458   -1.40717347
     atom   25 type  2   force =    -0.28372012   -0.07271119  -38.40307855
     atom   26 type  2   force =     0.04157556    0.07009447   37.66059295
     atom   27 type  1   force =    -0.61363861    0.28643089    0.95852981
     atom   28 type  2   force =    -0.64422570    0.49745388  -37.20755664
     atom   29 type  2   force =    -0.09049256    0.27583977   38.19188008
     atom   30 type  1   force =    -1.00790991    0.00011244    1.61386303
     atom   31 type  2   force =    -2.01840704   -0.04241248  -37.34439742
     atom   32 type  2   force =     0.30890942    0.03428011   38.48473143
     atom   33 type  1   force =    -0.72470124   -0.23790561   -1.87356220
     atom   34 type  2   force =    -0.55634069   -0.57129263  -38.08798559
     atom   35 type  2   force =    -0.00020750   -0.35397600   37.92922201
     atom   36 type  3   force =     0.93557984    0.16291614  -47.68009868
     The core correction contribution to forces
     atom    1 type  1   force =     0.00000000    0.00000000    0.00000000
     atom    2 type  2   force =     0.00013003    0.00049384    0.02099432
     atom    3 type  2   force =     0.00010686    0.00039913   -0.02091907
     atom    4 type  1   force =     0.00000000    0.00000000    0.00000000
     atom    5 type  2   force =    -0.00025207    0.00113251    0.02083247
     atom    6 type  2   force =     0.00011069   -0.00042908   -0.02093398
     atom    7 type  1   force =     0.00000000    0.00000000    0.00000000
     atom    8 type  2   force =    -0.00011129    0.00194311   -0.00983719
     atom    9 type  2   force =     0.00068814    0.00076689   -0.02143605
     atom   10 type  1   force =     0.00000000    0.00000000    0.00000000
     atom   11 type  2   force =    -0.00008413   -0.00016634    0.02100126
     atom   12 type  2   force =     0.00077233    0.00123253   -0.02080208
     atom   13 type  1   force =     0.00000000    0.00000000    0.00000000
     atom   14 type  2   force =    -0.00014943    0.00017209    0.02108175
     atom   15 type  2   force =     0.00008665    0.00046167   -0.02074610
     atom   16 type  1   force =     0.00000000    0.00000000    0.00000000
     atom   17 type  2   force =     0.00027713    0.00094725    0.02052844
     atom   18 type  2   force =    -0.00014498   -0.00038033   -0.02095853
     atom   19 type  1   force =     0.00000000    0.00000000    0.00000000
     atom   20 type  2   force =    -0.00005597    0.00038789   -0.02110816
     atom   21 type  1   force =     0.00000000    0.00000000    0.00000000
     atom   22 type  2   force =     0.00015099   -0.00017047    0.02084661
     atom   23 type  2   force =    -0.00070476    0.00106341   -0.02080465
     atom   24 type  1   force =     0.00000000    0.00000000    0.00000000
     atom   25 type  2   force =     0.00009297    0.00052126    0.02099865
     atom   26 type  2   force =    -0.00014425    0.00040541   -0.02090341
     atom   27 type  1   force =     0.00000000    0.00000000    0.00000000
     atom   28 type  2   force =     0.00003574    0.00083139    0.02147448
     atom   29 type  2   force =     0.00010825    0.00021275   -0.02080091
     atom   30 type  1   force =     0.00000000    0.00000000    0.00000000
     atom   31 type  2   force =     0.00040333    0.00018087    0.02119976
     atom   32 type  2   force =    -0.00072167    0.00066972   -0.02075553
     atom   33 type  1   force =     0.00000000    0.00000000    0.00000000
     atom   34 type  2   force =     0.00000132    0.00032517    0.02152162
     atom   35 type  2   force =    -0.00012559    0.00087088   -0.02083398
     atom   36 type  3   force =    -0.00033209   -0.00059769    0.02446855
     The Hubbard contrib.    to forces
     atom    1 type  1   force =     0.00000000    0.00000000    0.00000000
     atom    2 type  2   force =     0.00000000    0.00000000    0.00000000
     atom    3 type  2   force =     0.00000000    0.00000000    0.00000000
     atom    4 type  1   force =     0.00000000    0.00000000    0.00000000
     atom    5 type  2   force =     0.00000000    0.00000000    0.00000000
     atom    6 type  2   force =     0.00000000    0.00000000    0.00000000
     atom    7 type  1   force =     0.00000000    0.00000000    0.00000000
     atom    8 type  2   force =     0.00000000    0.00000000    0.00000000
     atom    9 type  2   force =     0.00000000    0.00000000    0.00000000
     atom   10 type  1   force =     0.00000000    0.00000000    0.00000000
     atom   11 type  2   force =     0.00000000    0.00000000    0.00000000
     atom   12 type  2   force =     0.00000000    0.00000000    0.00000000
     atom   13 type  1   force =     0.00000000    0.00000000    0.00000000
     atom   14 type  2   force =     0.00000000    0.00000000    0.00000000
     atom   15 type  2   force =     0.00000000    0.00000000    0.00000000
     atom   16 type  1   force =     0.00000000    0.00000000    0.00000000
     atom   17 type  2   force =     0.00000000    0.00000000    0.00000000
     atom   18 type  2   force =     0.00000000    0.00000000    0.00000000
     atom   19 type  1   force =     0.00000000    0.00000000    0.00000000
     atom   20 type  2   force =     0.00000000    0.00000000    0.00000000
     atom   21 type  1   force =     0.00000000    0.00000000    0.00000000
     atom   22 type  2   force =     0.00000000    0.00000000    0.00000000
     atom   23 type  2   force =     0.00000000    0.00000000    0.00000000
     atom   24 type  1   force =     0.00000000    0.00000000    0.00000000
     atom   25 type  2   force =     0.00000000    0.00000000    0.00000000
     atom   26 type  2   force =     0.00000000    0.00000000    0.00000000
     atom   27 type  1   force =     0.00000000    0.00000000    0.00000000
     atom   28 type  2   force =     0.00000000    0.00000000    0.00000000
     atom   29 type  2   force =     0.00000000    0.00000000    0.00000000
     atom   30 type  1   force =     0.00000000    0.00000000    0.00000000
     atom   31 type  2   force =     0.00000000    0.00000000    0.00000000
     atom   32 type  2   force =     0.00000000    0.00000000    0.00000000
     atom   33 type  1   force =     0.00000000    0.00000000    0.00000000
     atom   34 type  2   force =     0.00000000    0.00000000    0.00000000
     atom   35 type  2   force =     0.00000000    0.00000000    0.00000000
     atom   36 type  3   force =     0.00000000    0.00000000    0.00000000
     The SCF correction term to forces
     atom    1 type  1   force =    -0.00000307   -0.00000741    0.00000383
     atom    2 type  2   force =     0.00000975   -0.00000803    0.00000136
     atom    3 type  2   force =     0.00000365   -0.00001409   -0.00001717
     atom    4 type  1   force =     0.00000968    0.00000783   -0.00003233
     atom    5 type  2   force =    -0.00000073   -0.00000711   -0.00001509
     atom    6 type  2   force =     0.00001084   -0.00000314    0.00000656
     atom    7 type  1   force =    -0.00003734    0.00007647   -0.00004472
     atom    8 type  2   force =     0.00000718    0.00002017   -0.00003115
     atom    9 type  2   force =     0.00001209    0.00001702   -0.00000681
     atom   10 type  1   force =     0.00002440   -0.00006523    0.00000488
     atom   11 type  2   force =    -0.00000755    0.00000849   -0.00002129
     atom   12 type  2   force =    -0.00000011   -0.00001301   -0.00000182
     atom   13 type  1   force =    -0.00004618   -0.00006171   -0.00004762
     atom   14 type  2   force =     0.00000014   -0.00000645   -0.00000180
     atom   15 type  2   force =     0.00000210   -0.00001588   -0.00000937
     atom   16 type  1   force =     0.00004519    0.00001522    0.00001196
     atom   17 type  2   force =     0.00000031    0.00001250   -0.00000942
     atom   18 type  2   force =    -0.00001405    0.00001232   -0.00000955
     atom   19 type  1   force =    -0.00006363    0.00007301    0.00000367
     atom   20 type  2   force =    -0.00000993    0.00002104    0.00000053
     atom   21 type  1   force =    -0.00001135   -0.00006519   -0.00001592
     atom   22 type  2   force =    -0.00001450   -0.00002076   -0.00002219
     atom   23 type  2   force =    -0.00000001   -0.00001480    0.00001162
     atom   24 type  1   force =    -0.00002665    0.00000275   -0.00003555
     atom   25 type  2   force =    -0.00000055   -0.00001962   -0.00002020
     atom   26 type  2   force =     0.00000673   -0.00001467   -0.00000108
     atom   27 type  1   force =    -0.00001248    0.00006841   -0.00004387
     atom   28 type  2   force =    -0.00000723   -0.00000223   -0.00001503
     atom   29 type  2   force =     0.00000384    0.00000701   -0.00000191
     atom   30 type  1   force =     0.00004055    0.00004536   -0.00000900
     atom   31 type  2   force =    -0.00001662    0.00003454   -0.00002123
     atom   32 type  2   force =    -0.00000797    0.00001487    0.00000996
     atom   33 type  1   force =     0.00004201   -0.00007139   -0.00005508
     atom   34 type  2   force =     0.00000852   -0.00000428   -0.00001172
     atom   35 type  2   force =     0.00000340   -0.00000845   -0.00000362
     atom   36 type  3   force =     0.00000921   -0.00001229    0.00000187

     Total force =     0.004806     Total SCF correction =     0.000271
     Energy error            =      5.7E-05 Ry
     Gradient error          =      1.3E-03 Ry/Bohr

     bfgs converged in  23 scf cycles and  22 bfgs steps
     (criteria: energy <  1.0E-04 Ry, force <  1.0E-02 Ry/Bohr)

     End of BFGS Geometry Optimization

     Final energy             =   -2246.4507526033 Ry

     File ./MoS2-V-O.bfgs deleted, as requested
Begin final coordinates

ATOMIC_POSITIONS (angstrom)
Mo            6.5952386823        1.7523935290        2.7745816704
S             8.1761325490        0.8447566085        4.3786254534
S             8.1761267257        0.8394704566        1.1932961148
Mo            8.1630388740        4.4648513138        2.6951134804
S             6.5700428555        3.6696496989        4.3177389520
S             6.5739176205        3.5423762923        1.1130897260
Mo            6.5271925778        7.1962238512        2.6473684964
S             8.1238093900        6.3142824478        4.2072042438
S             8.1856251467        6.3221354731        1.1225017179
Mo            8.1719502516        9.9273391054        2.7840772063
S             6.5509367935        8.9270636143        4.3405694381
S             6.6284348684        9.0450067290        1.1245933847
Mo            3.4683088239        1.7477983870        2.7649862095
S             5.0296322211        0.8082614733        4.3586775770
S             5.0353413813        0.8371766012        1.1758271720
Mo            5.0334699909        4.5399943059        2.6642263423
S             3.5075778639        3.6554191365        4.3106796249
S             3.4761317627        3.5545854419        1.1171441420
Mo            3.5128312545        7.1810016767        2.6656284897
S             5.0195556079        6.3007508377        1.0295003198
Mo            5.0334831085        9.9050314792        2.7359155087
S             3.5066541340        8.9476596383        4.3289717508
S             3.4394777474        9.0344311394        1.1316610445
Mo            0.3097276127        1.7437562770        2.7732424181
S             1.8955941533        0.8427296381        4.3707365193
S             1.8891913469        0.8357077469        1.1815893850
Mo            1.9092814497        4.4902182534        2.7140434126
S             0.3009133509        3.6118808770        4.3194103404
S             0.3205923953        3.5454339748        1.1384965609
Mo            0.3330029921        7.2230931792        2.7354232782
S             1.9666139748        6.3051896036        4.3003463037
S             1.9008762564        6.3137443783        1.1088645417
Mo            1.8858952142        9.9304992933        2.7733924065
S             0.3068997686        9.0197328628        4.3755938132
S             0.2971299875        9.0598599375        1.1760241996
O            -1.3482817213        6.2730522627        5.7056202924
End final coordinates



     Writing all to output data dir ./MoS2-V-O.save/
 
     init_run     :      4.63s CPU      5.11s WALL (       1 calls)
     electrons    :   2141.26s CPU   2442.47s WALL (      23 calls)
     update_pot   :     69.86s CPU     75.09s WALL (      22 calls)
     forces       :     67.93s CPU     78.90s WALL (      23 calls)

     Called by init_run:
     wfcinit      :      0.49s CPU      0.54s WALL (       1 calls)
     potinit      :      2.37s CPU      2.61s WALL (       1 calls)
     hinit0       :      0.44s CPU      0.46s WALL (       1 calls)

     Called by electrons:
     c_bands      :    308.43s CPU    316.32s WALL (     211 calls)
     sum_band     :    130.32s CPU    181.22s WALL (     211 calls)
     v_of_rho     :    252.92s CPU    308.47s WALL (     226 calls)
     newd         :     80.96s CPU    121.68s WALL (     226 calls)
     PAW_pot      :      8.98s CPU      9.02s WALL (     248 calls)
     mix_rho      :   1386.57s CPU   1536.81s WALL (     211 calls)

     Called by c_bands:
     init_us_2    :      4.86s CPU      5.23s WALL (     445 calls)
     init_us_2:cp :      4.86s CPU      5.22s WALL (     445 calls)
     regterg      :    292.67s CPU    300.18s WALL (     211 calls)

     Called by *egterg:
     rdiaghg      :     19.18s CPU     19.36s WALL (    1098 calls)
     h_psi        :    190.92s CPU    192.69s WALL (    1129 calls)
     s_psi        :     17.63s CPU     17.68s WALL (    1129 calls)
     g_psi        :      0.95s CPU      0.97s WALL (     917 calls)

     Called by h_psi:
     h_psi:calbec :     20.31s CPU     20.44s WALL (    1129 calls)
     vloc_psi     :    150.62s CPU    152.15s WALL (    1129 calls)
     add_vuspsi   :     17.58s CPU     17.67s WALL (    1129 calls)

     General routines
     calbec       :     29.72s CPU     29.93s WALL (    1454 calls)
     fft          :    177.35s CPU    199.69s WALL (   15127 calls)
     ffts         :    616.59s CPU    761.44s WALL (  337017 calls)
     fftw         :     95.54s CPU     96.44s WALL (  129652 calls)
     interpolate  :      2.82s CPU      3.23s WALL (     226 calls)
 
     Parallel routines
 
     PWSCF        :  38m14.80s CPU  43m38.15s WALL

 
   This run was terminated on:  18:13:15   1Nov2023            

=------------------------------------------------------------------------------=
   JOB DONE.
=------------------------------------------------------------------------------=
