
     Program PWSCF v.7.2 starts on  1Nov2023 at 20:16:39 

     This program is part of the open-source Quantum ESPRESSO suite
     for quantum simulation of materials; please cite
         "P. Giannozzi et al., J. Phys.:Condens. Matter 21 395502 (2009);
         "P. Giannozzi et al., J. Phys.:Condens. Matter 29 465901 (2017);
         "P. Giannozzi et al., J. Chem. Phys. 152 154105 (2020);
          URL http://www.quantum-espresso.org", 
     in publications or presentations arising from this work. More details at
     http://www.quantum-espresso.org/quote

     Parallel version (MPI & OpenMP), running on      48 processor cores
     Number of MPI processes:                48
     Threads/MPI process:                     1

     MPI processes distributed on     1 nodes
     75539 MiB available memory on the printing compute node when the environment starts
 
     Waiting for input...
     Reading input from standard input
Warning: card &CELL ignored
Warning: card CELL_DYNAMICS = 'BFGS', ignored
Warning: card CELL_DOFREE = '2DXY' ignored
Warning: card / ignored

     Current dimensions of program PWSCF are:
     Max number of different atomic species (ntypx) = 10
     Max number of k-points (npk) =  40000
     Max angular momentum in pseudopotentials (lmaxx) =  4
     file O.pbe-n-kjpaw_psl.0.1.UPF: wavefunction(s)  2P renormalized

     IMPORTANT: XC functional enforced from input :
     Exchange-correlation= RVV10
                           (   1   4  13   4  26   0   0)
     Any further DFT definition will be discarded
     Please, verify this is what you really want


     gamma-point specific algorithms are used
     signal trapping enabled: kill the code with -SIGUSR1 to stop cleanly the simulation 
 
     R & G space division:  proc/nbgrp/npool/nimage =      48
     Subspace diagonalization in iterative solution of the eigenvalue problem:
     one sub-group per band group will be used
     scalapack distributed-memory algorithm (size of sub-group:  2*  2 procs)

 
     Parallelization info
     --------------------
     sticks:   dense  smooth     PW     G-vecs:    dense   smooth      PW
     Min         396     194     47               101632    35090    4376
     Max         398     196     50               101674    35128    4410
     Sum       19091    9389   2349              4879585  1685513  210763
 
     Using Slab Decomposition
 


     bravais-lattice index     =            0
     lattice parameter (alat)  =      17.8707  a.u.
     unit-cell volume          =   17436.2743 (a.u.)^3
     number of atoms/cell      =           36
     number of atomic types    =            3
     number of electrons       =       312.00
     number of Kohn-Sham states=          187
     kinetic-energy cutoff     =      80.0000  Ry
     charge density cutoff     =     650.0000  Ry
     scf convergence threshold =      1.0E-06
     mixing beta               =       0.7000
     number of iterations used =            8  local-TF  mixing
     energy convergence thresh.=      1.0E-04
     force convergence thresh. =      1.0E-02
     Exchange-correlation= RVV10
                           (   1   4  13   4  26   0   0)
     nstep                     =          200


     celldm(1)=  17.870686  celldm(2)=   0.000000  celldm(3)=   0.000000
     celldm(4)=   0.000000  celldm(5)=   0.000000  celldm(6)=   0.000000

     crystal axes: (cart. coord. in units of alat)
               a(1) = (   1.000000   0.000000   0.000000 )  
               a(2) = (   0.000000   1.155671   0.000000 )  
               a(3) = (   0.000000   0.000000   2.643601 )  

     reciprocal axes: (cart. coord. in units 2 pi/alat)
               b(1) = (  1.000000  0.000000  0.000000 )  
               b(2) = (  0.000000  0.865298  0.000000 )  
               b(3) = (  0.000000  0.000000  0.378272 )  


     PseudoPot. # 1 for Mo read from file:
     ../pseudo/Mo_ONCV_PBE-1.0.oncvpsp.upf
     MD5 check sum: 1b5d28e075c9ccadda658a603575cd1f
     Pseudo is Norm-conserving, Zval = 14.0
     Generated using ONCVPSP code by D. R. Hamann
     Using radial grid of 1526 points,  6 beta functions with: 
                l(1) =   0
                l(2) =   0
                l(3) =   1
                l(4) =   1
                l(5) =   2
                l(6) =   2

     PseudoPot. # 2 for S  read from file:
     ../pseudo/s_pbe_v1.4.uspp.F.UPF
     MD5 check sum: 88d86576ff6df21479756cfb9bdac1df
     Pseudo is Ultrasoft + core correction, Zval =  6.0
     Generated by new atomic code, or converted to UPF format
     Using radial grid of  907 points,  6 beta functions with: 
                l(1) =   0
                l(2) =   0
                l(3) =   1
                l(4) =   1
                l(5) =   2
                l(6) =   2
     Q(r) pseudized with  8 coefficients,  rinner =    1.300   1.300   1.300
                                                       1.300   1.300

     PseudoPot. # 3 for O  read from file:
     ../pseudo/O.pbe-n-kjpaw_psl.0.1.UPF
     MD5 check sum: 0234752ac141de4415c5fc33072bef88
     Pseudo is Projector augmented-wave + core cor, Zval =  6.0
     Generated using "atomic" code by A. Dal Corso  v.5.0.99 svn rev. 10869
     Shape of augmentation charge: BESSEL
     Using radial grid of 1095 points,  4 beta functions with: 
                l(1) =   0
                l(2) =   0
                l(3) =   1
                l(4) =   1
     Q(r) pseudized with 0 coefficients 


     atomic species   valence    mass     pseudopotential
        Mo            14.00    95.94000     Mo( 1.00)
        S              6.00    32.06500     S ( 1.00)
        O              6.00    15.99940     O ( 1.00)

     No symmetry found



   Cartesian axes

     site n.     atom                  positions (alat units)
         1           Mo  tau(   1) = (   0.6952221   0.1890506   0.2985846  )
         2           S   tau(   2) = (   0.8646417   0.0856217   0.4689279  )
         3           S   tau(   3) = (   0.8663890   0.0857843   0.1351291  )
         4           Mo  tau(   4) = (   0.8560186   0.4753274   0.2873942  )
         5           S   tau(   5) = (   0.6873294   0.3936244   0.4596353  )
         6           S   tau(   6) = (   0.6929804   0.3713468   0.1185692  )
         7           Mo  tau(   7) = (   0.6862796   0.7633098   0.2825370  )
         8           S   tau(   8) = (   0.8545980   0.6708292   0.4486168  )
         9           S   tau(   9) = (   0.8545123   0.6666874   0.1146125  )
        10           Mo  tau(  10) = (   0.8629403   1.0471007   0.3006803  )
        11           S   tau(  11) = (   0.6868280   0.9456650   0.4634891  )
        12           S   tau(  12) = (   0.6998113   0.9568511   0.1205389  )
        13           Mo  tau(  13) = (   0.3618216   0.1847309   0.2935964  )
        14           S   tau(  14) = (   0.5260962   0.0863870   0.4600448  )
        15           S   tau(  15) = (   0.5348379   0.0894875   0.1297123  )
        16           Mo  tau(  16) = (   0.5265817   0.4772436   0.2784130  )
        17           S   tau(  17) = (   0.3624753   0.3882513   0.4525556  )
        18           S   tau(  18) = (   0.3635411   0.3752055   0.1119148  )
        19           Mo  tau(  19) = (   0.3652268   0.7630864   0.2781795  )
        20           S   tau(  20) = (   0.5269494   0.6690381   0.1096838  )
        21           Mo  tau(  21) = (   0.5300192   1.0470394   0.2900995  )
        22           S   tau(  22) = (   0.3670346   0.9457522   0.4574073  )
        23           S   tau(  23) = (   0.3604225   0.9585725   0.1159032  )
        24           Mo  tau(  24) = (   0.0313099   0.1847895   0.3013130  )
        25           S   tau(  25) = (   0.1956761   0.0838230   0.4650863  )
        26           S   tau(  26) = (   0.1967693   0.0903508   0.1278874  )
        27           Mo  tau(  27) = (   0.1967578   0.4753919   0.2813011  )
        28           S   tau(  28) = (   0.0287851   0.3864324   0.4586755  )
        29           S   tau(  29) = (   0.0244514   0.3729871   0.1239344  )
        30           Mo  tau(  30) = (   0.0286728   0.7631204   0.2856894  )
        31           S   tau(  31) = (   0.2011512   0.6675435   0.4465001  )
        32           S   tau(  32) = (   0.1969214   0.6672839   0.1104564  )
        33           Mo  tau(  33) = (   0.1950294   1.0511147   0.2932237  )
        34           S   tau(  34) = (   0.0312912   0.9612169   0.4667423  )
        35           S   tau(  35) = (   0.0292670   0.9563028   0.1216485  )
        36           O   tau(  36) = (   0.1111111   0.8988550   0.5792558  )

     number of k points=     1  Gaussian smearing, width (Ry)=  0.0100
                       cart. coord. in units 2pi/alat
        k(    1) = (   0.0000000   0.0000000   0.0000000), wk =   2.0000000

     Dense  grid:  2439793 G-vectors     FFT dimensions: ( 150, 180, 384)

     Smooth grid:   842757 G-vectors     FFT dimensions: ( 108, 120, 270)

     Estimated max dynamical RAM per process >     269.22 MB

     Estimated total dynamical RAM >      12.62 GB

     Initial potential from superposition of free atoms

     starting charge     311.9873, renormalised to     312.0000

     negative rho (up, down):  2.755E-04 0.000E+00


---------------------------------------------------------------------------------
Carrying out rVV10 run using the following parameters:
Nqs =      20    Nr_points =    1024   r_max =   100.000
b_value =  6.30000    beta =  0.00901
     q_mesh =  0.00010000  0.00030000  0.00058939  0.00100810
               0.00161396  0.00249058  0.00375900  0.00559430
               0.00824984  0.01209221  0.01765183  0.02569619
               0.03733578  0.05417739  0.07854596  0.11380545
               0.16482331  0.23864234  0.34545298  0.50000000

Gradients computed in Reciprocal space

---------------------------------------------------------------------------------


     Starting wfcs are  216 randomized atomic wfcs
     Checking if some PAW data can be deallocated... 

     total cpu time spent up to now is        5.3 secs

     Self-consistent Calculation

     iteration #  1     ecut=    80.00 Ry     beta= 0.70
     Davidson diagonalization with overlap
     ethr =  1.00E-02,  avg # of iterations =  2.0

     Threshold (ethr) on eigenvalues was too large:
     Diagonalizing with lowered threshold

     Davidson diagonalization with overlap
     ethr =  4.48E-04,  avg # of iterations =  4.0

     negative rho (up, down):  3.846E-08 0.000E+00

     total cpu time spent up to now is       22.5 secs

     total energy              =   -2246.29004168 Ry
     estimated scf accuracy    <       1.64603437 Ry

     iteration #  2     ecut=    80.00 Ry     beta= 0.70
     Davidson diagonalization with overlap
     ethr =  5.28E-04,  avg # of iterations =  3.0

     total cpu time spent up to now is       27.2 secs

     total energy              =   -2246.28466320 Ry
     estimated scf accuracy    <       0.55685504 Ry

     iteration #  3     ecut=    80.00 Ry     beta= 0.70
     Davidson diagonalization with overlap
     ethr =  1.78E-04,  avg # of iterations =  2.0

     total cpu time spent up to now is       31.2 secs

     total energy              =   -2246.29823680 Ry
     estimated scf accuracy    <       0.11847947 Ry

     iteration #  4     ecut=    80.00 Ry     beta= 0.70
     Davidson diagonalization with overlap
     ethr =  3.80E-05,  avg # of iterations = 20.0

     total cpu time spent up to now is       36.3 secs

     total energy              =   -2246.31770459 Ry
     estimated scf accuracy    <       0.02352176 Ry

     iteration #  5     ecut=    80.00 Ry     beta= 0.70
     Davidson diagonalization with overlap
     ethr =  7.54E-06,  avg # of iterations =  7.0

     total cpu time spent up to now is       40.2 secs

     total energy              =   -2246.31692300 Ry
     estimated scf accuracy    <       0.01445040 Ry

     iteration #  6     ecut=    80.00 Ry     beta= 0.70
     Davidson diagonalization with overlap
     ethr =  4.63E-06,  avg # of iterations =  2.0

     total cpu time spent up to now is       43.8 secs

     total energy              =   -2246.31618328 Ry
     estimated scf accuracy    <       0.00874402 Ry

     iteration #  7     ecut=    80.00 Ry     beta= 0.70
     Davidson diagonalization with overlap
     ethr =  2.80E-06,  avg # of iterations = 14.0

     negative rho (up, down):  7.784E-05 0.000E+00

     total cpu time spent up to now is       51.1 secs

     total energy              =   -2246.31518932 Ry
     estimated scf accuracy    <       0.00526628 Ry

     iteration #  8     ecut=    80.00 Ry     beta= 0.70
     Davidson diagonalization with overlap
     ethr =  1.69E-06,  avg # of iterations =  2.0

     negative rho (up, down):  1.603E-02 0.000E+00

     total cpu time spent up to now is       57.0 secs

     total energy              =   -2246.31469434 Ry
     estimated scf accuracy    <       0.00294135 Ry

     iteration #  9     ecut=    80.00 Ry     beta= 0.70
     Davidson diagonalization with overlap
     ethr =  9.43E-07,  avg # of iterations =  2.0

     negative rho (up, down):  2.539E-02 0.000E+00

     total cpu time spent up to now is       63.1 secs

     total energy              =   -2246.31456834 Ry
     estimated scf accuracy    <       0.00154620 Ry

     iteration # 10     ecut=    80.00 Ry     beta= 0.70
     Davidson diagonalization with overlap
     ethr =  4.96E-07,  avg # of iterations =  2.0

     negative rho (up, down):  2.152E-02 0.000E+00

     total cpu time spent up to now is       69.9 secs

     total energy              =   -2246.31462672 Ry
     estimated scf accuracy    <       0.00050057 Ry

     iteration # 11     ecut=    80.00 Ry     beta= 0.70
     Davidson diagonalization with overlap
     ethr =  1.60E-07,  avg # of iterations =  2.0

     negative rho (up, down):  1.000E-02 0.000E+00

     total cpu time spent up to now is       76.5 secs

     total energy              =   -2246.31460109 Ry
     estimated scf accuracy    <       0.00007481 Ry

     iteration # 12     ecut=    80.00 Ry     beta= 0.70
     Davidson diagonalization with overlap
     ethr =  2.40E-08,  avg # of iterations =  7.0

     negative rho (up, down):  2.663E-03 0.000E+00

     total cpu time spent up to now is       85.3 secs

     total energy              =   -2246.31465623 Ry
     estimated scf accuracy    <       0.00002880 Ry

     iteration # 13     ecut=    80.00 Ry     beta= 0.70
     Davidson diagonalization with overlap
     ethr =  9.23E-09,  avg # of iterations =  2.0

     negative rho (up, down):  5.562E-04 0.000E+00

     total cpu time spent up to now is       95.4 secs

     total energy              =   -2246.31466321 Ry
     estimated scf accuracy    <       0.00000625 Ry

     iteration # 14     ecut=    80.00 Ry     beta= 0.70
     Davidson diagonalization with overlap
     ethr =  2.00E-09,  avg # of iterations =  2.0

     negative rho (up, down):  2.921E-04 0.000E+00

     total cpu time spent up to now is      105.3 secs

     total energy              =   -2246.31466567 Ry
     estimated scf accuracy    <       0.00000124 Ry

     iteration # 15     ecut=    80.00 Ry     beta= 0.70
     Davidson diagonalization with overlap
     ethr =  3.96E-10,  avg # of iterations =  4.0

     negative rho (up, down):  2.100E-04 0.000E+00

     total cpu time spent up to now is      108.9 secs

     End of self-consistent calculation

          k = 0.0000 0.0000 0.0000 (105382 PWs)   bands (ev):

   -63.0746 -62.9852 -62.9472 -62.9330 -62.9284 -62.9165 -62.8918 -62.8915
   -62.8646 -62.8463 -62.7616 -62.6711 -37.3776 -37.3270 -37.2678 -37.2431
   -37.2195 -37.2090 -37.2016 -37.1744 -37.1673 -37.1525 -37.1420 -37.1365
   -37.1142 -37.1086 -37.1033 -37.0987 -37.0908 -37.0716 -37.0569 -37.0518
   -37.0467 -37.0272 -37.0185 -37.0090 -37.0058 -36.9897 -36.9701 -36.9517
   -36.9351 -36.9064 -36.8902 -36.8650 -36.8507 -36.8225 -36.7886 -36.7444
   -23.6384 -16.0054 -15.2372 -15.1760 -15.0236 -14.9515 -14.8406 -14.5613
   -14.5432 -14.5088 -14.4758 -14.4261 -14.3982 -14.3466 -14.3153 -14.2056
   -14.1790 -14.1698 -14.0841 -14.0728 -13.9100 -13.8803 -13.8555 -13.6041
    -8.3264  -8.1566  -7.8830  -7.5741  -7.5103  -7.3325  -7.2787  -7.2453
    -7.1965  -7.1223  -7.0023  -6.8719  -6.8423  -6.7899  -6.7356  -6.6000
    -6.5638  -6.4917  -6.3524  -6.3090  -6.2308  -6.1126  -5.9789  -5.9004
    -5.8973  -5.8504  -5.8354  -5.7954  -5.7276  -5.6964  -5.6672  -5.6008
    -5.5535  -5.5043  -5.4761  -5.4175  -5.3227  -5.2674  -5.1929  -5.1153
    -5.0565  -4.9897  -4.9380  -4.7867  -4.7174  -4.5903  -4.5068  -4.4218
    -4.3812  -4.3169  -4.2277  -4.1262  -4.0927  -4.0688  -3.8840  -3.8688
    -3.8105  -3.7744  -3.6909  -3.6718  -3.6250  -3.5713  -3.5420  -3.5392
    -3.4413  -3.4352  -3.3984  -3.3079  -3.1462  -3.0568  -2.9516  -2.9243
    -2.8175  -2.7884  -2.7716  -2.7458  -2.7118  -2.6556  -2.5623  -2.3823
    -2.3300  -2.1017  -2.0232  -1.8329  -0.8882  -0.8409  -0.7045  -0.2434
    -0.2022  -0.1439  -0.0884   0.0154   0.0632   0.1370   0.1846   0.2027
     0.2416   0.3230   0.3675   0.4170   0.4716   0.4818   0.5253   0.5589
     0.6138   0.6465   0.6917   0.7190   0.7889   0.8202   0.8256   0.8963
     0.9346   0.9885   1.1355

     the Fermi energy is    -1.3612 ev

!    total energy              =   -2246.31466652 Ry
     estimated scf accuracy    <       0.00000047 Ry
     smearing contrib. (-TS)   =      -0.00000007 Ry
     internal energy E=F+TS    =   -2246.31466645 Ry

     The total energy is F=E-TS. E is the sum of the following terms:
     one-electron contribution =  -18438.91357668 Ry
     hartree contribution      =    9207.38859364 Ry
     xc contribution           =    -392.20333693 Ry
     ewald contribution        =    7387.26603773 Ry
     one-center paw contrib.   =      -9.85238422 Ry

     convergence has been achieved in  15 iterations

     negative rho (up, down):  2.100E-04 0.000E+00

     Forces acting on atoms (cartesian axes, Ry/au):

     atom    1 type  1   force =     0.01392641   -0.02471600    0.00689554
     atom    2 type  2   force =    -0.01781361    0.02587681   -0.00083916
     atom    3 type  2   force =    -0.01192299    0.00812861   -0.00713326
     atom    4 type  1   force =     0.00241561    0.00501570   -0.00149277
     atom    5 type  2   force =    -0.00135329   -0.00600303   -0.00731234
     atom    6 type  2   force =     0.00155799    0.01097707    0.00002724
     atom    7 type  1   force =     0.00716324   -0.01531312   -0.00875279
     atom    8 type  2   force =     0.00366556   -0.00256248    0.02173389
     atom    9 type  2   force =     0.00880720    0.00519655    0.01143425
     atom   10 type  1   force =    -0.03214789    0.01070285    0.00329845
     atom   11 type  2   force =    -0.00014239   -0.00162523   -0.01127489
     atom   12 type  2   force =     0.00316168   -0.00067288    0.00245869
     atom   13 type  1   force =     0.00465317    0.00387048   -0.00869759
     atom   14 type  2   force =     0.00761365   -0.00029110    0.01380268
     atom   15 type  2   force =    -0.01221903    0.00345800   -0.00935956
     atom   16 type  1   force =     0.00052297    0.01108040    0.00514833
     atom   17 type  2   force =     0.00553675    0.00133178    0.00182363
     atom   18 type  2   force =    -0.00299163   -0.00597950    0.01312165
     atom   19 type  1   force =     0.00252315   -0.00830224   -0.00259441
     atom   20 type  2   force =     0.00424951   -0.00511608   -0.00011784
     atom   21 type  1   force =    -0.00506127    0.00366027    0.00458106
     atom   22 type  2   force =     0.00478287    0.00177538   -0.01418616
     atom   23 type  2   force =    -0.00041688   -0.00002627    0.00985489
     atom   24 type  1   force =    -0.00605044   -0.00475441   -0.01991932
     atom   25 type  2   force =     0.01498504    0.01918507    0.01176938
     atom   26 type  2   force =    -0.01144726    0.00356897   -0.00308231
     atom   27 type  1   force =     0.00043301    0.00079462    0.00553496
     atom   28 type  2   force =     0.00052910   -0.00143794   -0.00403063
     atom   29 type  2   force =     0.00258178   -0.00081045   -0.00217345
     atom   30 type  1   force =    -0.01576854    0.00141726   -0.04690175
     atom   31 type  2   force =     0.00064213   -0.00297276    0.01391931
     atom   32 type  2   force =    -0.00620997    0.00727378    0.00889455
     atom   33 type  1   force =     0.01024166    0.00375675   -0.02766245
     atom   34 type  2   force =    -0.00243543   -0.01566885   -0.19675828
     atom   35 type  2   force =    -0.00910174    0.00668660    0.01541067
     atom   36 type  3   force =     0.03508988   -0.03750458    0.22257980
     The non-local contrib.  to forces
     atom    1 type  1   force =    -0.00541401    0.03721137   -0.01266169
     atom    2 type  2   force =    -0.01160153   -0.00110708   -0.27065883
     atom    3 type  2   force =    -0.01651163   -0.00366038    0.27147980
     atom    4 type  1   force =     0.00183744    0.00423058    0.00558917
     atom    5 type  2   force =     0.00473546   -0.03428908   -0.25405714
     atom    6 type  2   force =    -0.00195781    0.01114182    0.26317738
     atom    7 type  1   force =    -0.01794589    0.00326959   -0.01899545
     atom    8 type  2   force =     0.00808101    0.00121831   -0.25527839
     atom    9 type  2   force =     0.00000958   -0.00902061    0.27699710
     atom   10 type  1   force =     0.01064333   -0.01070815   -0.00406706
     atom   11 type  2   force =     0.01749133    0.00752193   -0.26464729
     atom   12 type  2   force =    -0.00943849   -0.01162961    0.26456693
     atom   13 type  1   force =     0.00091694    0.01679382   -0.00525382
     atom   14 type  2   force =     0.01017692   -0.01114259   -0.26464807
     atom   15 type  2   force =    -0.01297188   -0.00521947    0.26127608
     atom   16 type  1   force =     0.00110488    0.03130111   -0.03145761
     atom   17 type  2   force =     0.00238059   -0.02849491   -0.24993648
     atom   18 type  2   force =    -0.00490737   -0.00445581    0.27485192
     atom   19 type  1   force =     0.00778323    0.00002056   -0.01433281
     atom   20 type  2   force =     0.00092962   -0.02178896    0.26691207
     atom   21 type  1   force =    -0.00470544    0.03148125    0.01117495
     atom   22 type  2   force =     0.02152253    0.00946075   -0.26486925
     atom   23 type  2   force =     0.00807397   -0.01756750    0.26366053
     atom   24 type  1   force =     0.00924768    0.01875186   -0.01091909
     atom   25 type  2   force =     0.00715991   -0.00434231   -0.26166015
     atom   26 type  2   force =    -0.00381588   -0.00886602    0.26159633
     atom   27 type  1   force =     0.00003329    0.01218467    0.00841173
     atom   28 type  2   force =    -0.00442901   -0.02431739   -0.27609259
     atom   29 type  2   force =     0.00637181    0.00093627    0.26403527
     atom   30 type  1   force =    -0.00228113    0.04173451    0.03585195
     atom   31 type  2   force =     0.01008609   -0.01124055   -0.25026997
     atom   32 type  2   force =     0.00263973   -0.00985892    0.27316266
     atom   33 type  1   force =    -0.03113735   -0.00046852    0.02877102
     atom   34 type  2   force =     0.10914266   -0.13976012    0.11818168
     atom   35 type  2   force =    -0.00325218   -0.00843217    0.27204593
     atom   36 type  3   force =    -1.34290795    1.04336325   -1.56066245
     The ionic contribution  to forces
     atom    1 type  1   force =     0.20925852    0.61286107    4.70531254
     atom    2 type  2   force =    -1.14528401    1.13896375   38.91417779
     atom    3 type  2   force =    -0.28046681    0.21260029  -36.71331378
     atom    4 type  1   force =    -0.30899410   -0.05363103   -0.56138972
     atom    5 type  2   force =    -1.05138256    1.36443085   38.54508773
     atom    6 type  2   force =     0.31480809   -0.53602904  -38.49807857
     atom    7 type  1   force =    -3.08654903   -3.23527713    0.98093132
     atom    8 type  2   force =    -1.90726269   -0.90589033   36.71979517
     atom    9 type  2   force =     0.19318508   -0.22309426  -38.72246092
     atom   10 type  1   force =    -2.60317669    0.75796673    3.08583711
     atom   11 type  2   force =    -1.06316473   -1.47225125   38.71048061
     atom   12 type  2   force =     0.33963783    0.74204176  -38.54532333
     atom   13 type  1   force =     0.86250454    1.56904004    1.66807109
     atom   14 type  2   force =     0.25024465    0.37211441   38.25345333
     atom   15 type  2   force =     0.20596902    0.07197486  -37.34297856
     atom   16 type  1   force =     0.16041361    3.52818993   -0.57781286
     atom   17 type  2   force =     1.00458299    1.30591700   37.67929703
     atom   18 type  2   force =    -0.09845347   -0.69391397  -39.07592375
     atom   19 type  1   force =     4.05132294   -3.31026875   -1.87559214
     atom   20 type  2   force =     0.29660070   -0.32855369  -39.08409104
     atom   21 type  1   force =     0.55165588    0.56548776   -0.40114520
     atom   22 type  2   force =     2.59887219   -1.28525330   37.20563818
     atom   23 type  2   force =     0.12688935    0.73829831  -39.16167681
     atom   24 type  1   force =    -0.75693744    1.99330019    4.45248727
     atom   25 type  2   force =     0.97767961    1.56257521   38.69770159
     atom   26 type  2   force =    -0.22847655    0.30740426  -38.03735058
     atom   27 type  1   force =     0.24441530   -0.47894960   -3.73121012
     atom   28 type  2   force =    -0.05278033    0.72509071   37.92028571
     atom   29 type  2   force =    -0.30063194   -0.48924198  -37.81701540
     atom   30 type  1   force =    -1.35055408   -2.65345540   -4.43616667
     atom   31 type  2   force =     2.05833409   -2.24664476   35.92768370
     atom   32 type  2   force =    -0.39875603   -0.25526530  -39.49373693
     atom   33 type  1   force =     1.80984868    1.09658854   -2.18959308
     atom   34 type  2   force =    -4.86589149    2.57643759   32.00259636
     atom   35 type  2   force =    -0.42704717    0.58102586  -38.94895299
     atom   36 type  3   force =     3.66958608   -3.65458933   49.74497591
     The local contribution  to forces
     atom    1 type  1   force =    -0.18986397   -0.67480724   -4.68658920
     atom    2 type  2   force =     1.13887123   -1.11228383  -38.66527837
     atom    3 type  2   force =     0.28430787   -0.20102545   36.45522247
     atom    4 type  1   force =     0.30970797    0.05459016    0.55344536
     atom    5 type  2   force =     1.04586776   -1.33801947  -38.31898305
     atom    6 type  2   force =    -0.31157704    0.53698440   38.25533657
     atom    7 type  1   force =     3.11170563    3.21674352   -0.97146750
     atom    8 type  2   force =     1.90316768    0.90195316  -36.46344074
     atom    9 type  2   force =    -0.18467095    0.23677134   38.47746096
     atom   10 type  1   force =     2.56040421   -0.73673100   -3.07922987
     atom   11 type  2   force =     1.04655606    1.46374838  -38.47820110
     atom   12 type  2   force =    -0.32797198   -0.73219551   38.30375586
     atom   13 type  1   force =    -0.85884490   -1.58194635   -1.67234356
     atom   14 type  2   force =    -0.25229506   -0.36143586  -37.99594057
     atom   15 type  2   force =    -0.20591339   -0.06369187   37.09245899
     atom   16 type  1   force =    -0.16103176   -3.54821698    0.61351281
     atom   17 type  2   force =    -1.00145464   -1.27757812  -37.44800865
     atom   18 type  2   force =     0.10025606    0.69286766   38.83482378
     atom   19 type  1   force =    -4.05667167    3.30195848    1.88656440
     atom   20 type  2   force =    -0.29337058    0.34439695   38.83783795
     atom   21 type  1   force =    -0.55200429   -0.59345186    0.39373988
     atom   22 type  2   force =    -2.61410864    1.27836653  -36.97633985
     atom   23 type  2   force =    -0.13473567   -0.72221284   38.92814733
     atom   24 type  1   force =     0.74167654   -2.01677865   -4.46226906
     atom   25 type  2   force =    -0.96998562   -1.53918218  -38.44517359
     atom   26 type  2   force =     0.22094337   -0.29540575   37.79298925
     atom   27 type  1   force =    -0.24410006    0.46776536    3.72748737
     atom   28 type  2   force =     0.05745379   -0.70398241  -37.66949801
     atom   29 type  2   force =     0.29739006    0.48811041   37.57095288
     atom   30 type  1   force =     1.33709026    2.61311731    4.35259064
     atom   31 type  2   force =    -2.06727125    2.25393593  -35.68441664
     atom   32 type  2   force =     0.39037321    0.27179670   39.25003113
     atom   33 type  1   force =    -1.76850950   -1.09254183    2.13239520
     atom   34 type  2   force =     4.75978780   -2.45904939  -32.31868806
     atom   35 type  2   force =     0.42119070   -0.56673557   38.71311514
     atom   36 type  3   force =    -2.30557664    2.58453190  -47.97713472
     The core correction contribution to forces
     atom    1 type  1   force =     0.00000000    0.00000000    0.00000000
     atom    2 type  2   force =     0.00024507    0.00020553    0.02072591
     atom    3 type  2   force =     0.00076279    0.00013778   -0.02096337
     atom    4 type  1   force =     0.00000000    0.00000000    0.00000000
     atom    5 type  2   force =    -0.00053622    0.00194195    0.02044765
     atom    6 type  2   force =     0.00030316   -0.00106190   -0.02089557
     atom    7 type  1   force =     0.00000000    0.00000000    0.00000000
     atom    8 type  2   force =    -0.00028672    0.00019238    0.02044619
     atom    9 type  2   force =     0.00031583    0.00054328   -0.02098323
     atom   10 type  1   force =     0.00000000    0.00000000    0.00000000
     atom   11 type  2   force =    -0.00098776   -0.00068405    0.02088505
     atom   12 type  2   force =     0.00096065    0.00108427   -0.02094111
     atom   13 type  1   force =     0.00000000    0.00000000    0.00000000
     atom   14 type  2   force =    -0.00055334    0.00010726    0.02074771
     atom   15 type  2   force =     0.00067158    0.00035817   -0.02059768
     atom   16 type  1   force =     0.00000000    0.00000000    0.00000000
     atom   17 type  2   force =    -0.00003565    0.00153226    0.02027664
     atom   18 type  2   force =     0.00008133   -0.00044181   -0.02110124
     atom   19 type  1   force =     0.00000000    0.00000000    0.00000000
     atom   20 type  2   force =     0.00006751    0.00085107   -0.02124905
     atom   21 type  1   force =     0.00000000    0.00000000    0.00000000
     atom   22 type  2   force =    -0.00152843   -0.00086180    0.02118780
     atom   23 type  2   force =    -0.00066226    0.00140291   -0.02069305
     atom   24 type  1   force =     0.00000000    0.00000000    0.00000000
     atom   25 type  2   force =     0.00012592    0.00007967    0.02073655
     atom   26 type  2   force =    -0.00009261    0.00041615   -0.02077523
     atom   27 type  1   force =     0.00000000    0.00000000    0.00000000
     atom   28 type  2   force =     0.00030341    0.00185139    0.02106343
     atom   29 type  2   force =    -0.00053882   -0.00054051   -0.02060201
     atom   30 type  1   force =     0.00000000    0.00000000    0.00000000
     atom   31 type  2   force =    -0.00050230    0.00099333    0.02071397
     atom   32 type  2   force =    -0.00047698    0.00061038   -0.02097574
     atom   33 type  1   force =     0.00000000    0.00000000    0.00000000
     atom   34 type  2   force =    -0.00552518    0.00670115    0.00094474
     atom   35 type  2   force =    -0.00001057    0.00078680   -0.02119559
     atom   36 type  3   force =     0.01390408   -0.01076536    0.01514941
     The Hubbard contrib.    to forces
     atom    1 type  1   force =     0.00000000    0.00000000    0.00000000
     atom    2 type  2   force =     0.00000000    0.00000000    0.00000000
     atom    3 type  2   force =     0.00000000    0.00000000    0.00000000
     atom    4 type  1   force =     0.00000000    0.00000000    0.00000000
     atom    5 type  2   force =     0.00000000    0.00000000    0.00000000
     atom    6 type  2   force =     0.00000000    0.00000000    0.00000000
     atom    7 type  1   force =     0.00000000    0.00000000    0.00000000
     atom    8 type  2   force =     0.00000000    0.00000000    0.00000000
     atom    9 type  2   force =     0.00000000    0.00000000    0.00000000
     atom   10 type  1   force =     0.00000000    0.00000000    0.00000000
     atom   11 type  2   force =     0.00000000    0.00000000    0.00000000
     atom   12 type  2   force =     0.00000000    0.00000000    0.00000000
     atom   13 type  1   force =     0.00000000    0.00000000    0.00000000
     atom   14 type  2   force =     0.00000000    0.00000000    0.00000000
     atom   15 type  2   force =     0.00000000    0.00000000    0.00000000
     atom   16 type  1   force =     0.00000000    0.00000000    0.00000000
     atom   17 type  2   force =     0.00000000    0.00000000    0.00000000
     atom   18 type  2   force =     0.00000000    0.00000000    0.00000000
     atom   19 type  1   force =     0.00000000    0.00000000    0.00000000
     atom   20 type  2   force =     0.00000000    0.00000000    0.00000000
     atom   21 type  1   force =     0.00000000    0.00000000    0.00000000
     atom   22 type  2   force =     0.00000000    0.00000000    0.00000000
     atom   23 type  2   force =     0.00000000    0.00000000    0.00000000
     atom   24 type  1   force =     0.00000000    0.00000000    0.00000000
     atom   25 type  2   force =     0.00000000    0.00000000    0.00000000
     atom   26 type  2   force =     0.00000000    0.00000000    0.00000000
     atom   27 type  1   force =     0.00000000    0.00000000    0.00000000
     atom   28 type  2   force =     0.00000000    0.00000000    0.00000000
     atom   29 type  2   force =     0.00000000    0.00000000    0.00000000
     atom   30 type  1   force =     0.00000000    0.00000000    0.00000000
     atom   31 type  2   force =     0.00000000    0.00000000    0.00000000
     atom   32 type  2   force =     0.00000000    0.00000000    0.00000000
     atom   33 type  1   force =     0.00000000    0.00000000    0.00000000
     atom   34 type  2   force =     0.00000000    0.00000000    0.00000000
     atom   35 type  2   force =     0.00000000    0.00000000    0.00000000
     atom   36 type  3   force =     0.00000000    0.00000000    0.00000000
     The SCF correction term to forces
     atom    1 type  1   force =    -0.00005597    0.00001911    0.00081087
     atom    2 type  2   force =    -0.00004621    0.00009874    0.00017132
     atom    3 type  2   force =    -0.00001706    0.00007668    0.00041861
     atom    4 type  1   force =    -0.00013756   -0.00017370    0.00083940
     atom    5 type  2   force =    -0.00003957   -0.00006697    0.00016944
     atom    6 type  2   force =    -0.00002026   -0.00005790    0.00046440
     atom    7 type  1   force =    -0.00004932   -0.00004879    0.00075582
     atom    8 type  2   force =    -0.00003557   -0.00003569    0.00018865
     atom    9 type  2   force =    -0.00003419   -0.00000290    0.00039731
     atom   10 type  1   force =    -0.00002058    0.00017557    0.00073524
     atom   11 type  2   force =    -0.00003913    0.00004006    0.00018482
     atom   12 type  2   force =    -0.00002817    0.00002652    0.00037731
     atom   13 type  1   force =     0.00007474   -0.00001673    0.00080567
     atom   14 type  2   force =     0.00003864    0.00006599    0.00016725
     atom   15 type  2   force =     0.00002378    0.00003660    0.00045859
     atom   16 type  1   force =     0.00003439   -0.00019336    0.00088298
     atom   17 type  2   force =     0.00006161   -0.00004415    0.00017207
     atom   18 type  2   force =     0.00002997   -0.00003528    0.00044791
     atom   19 type  1   force =     0.00008680   -0.00001222    0.00074312
     atom   20 type  2   force =     0.00002041   -0.00002114    0.00044920
     atom   21 type  1   force =    -0.00000927    0.00014343    0.00078840
     atom   22 type  2   force =     0.00002337    0.00006351    0.00017392
     atom   23 type  2   force =     0.00001588    0.00005315    0.00039388
     atom   24 type  1   force =    -0.00003908   -0.00002750    0.00075855
     atom   25 type  2   force =     0.00000337    0.00005497    0.00014196
     atom   26 type  2   force =    -0.00000744    0.00002063    0.00043491
     atom   27 type  1   force =     0.00008262   -0.00020550    0.00082295
     atom   28 type  2   force =    -0.00002061   -0.00007994    0.00018781
     atom   29 type  2   force =    -0.00001118   -0.00007434    0.00043278
     atom   30 type  1   force =    -0.00002543    0.00002115    0.00079930
     atom   31 type  2   force =    -0.00000635   -0.00001640    0.00018522
     atom   32 type  2   force =     0.00000825   -0.00000877    0.00039041
     atom   33 type  1   force =     0.00003799    0.00017887    0.00074139
     atom   34 type  2   force =     0.00004893    0.00000222    0.00018397
     atom   35 type  2   force =     0.00001563    0.00004197    0.00037515
     atom   36 type  3   force =     0.00008246   -0.00004473    0.00022862

     Total force =     0.320757     Total SCF correction =     0.003221

     BFGS Geometry Optimization
     Energy error            =      0.0E+00 Ry
     Gradient error          =      2.2E-01 Ry/Bohr

     number of scf cycles    =   1
     number of bfgs steps    =   0

     energy             new  =   -2246.3146665208 Ry

     new trust radius        =       0.2284286794 bohr
     new conv_thr            =       0.0000010000 Ry


ATOMIC_POSITIONS (angstrom)
Mo            6.5819179476        1.7747270841        2.8272919929
S             8.1672827821        0.8233974401        4.4340942879
S             8.1869237134        0.8155432202        1.2741086680
Mo            8.0964408489        4.4977111371        2.7170284533
S             6.4991931288        3.7192348233        4.3427911223
S             6.5541742513        3.5175463693        1.1212946451
Mo            6.4937723176        7.2103339285        2.6672527074
S             8.0836674586        6.3425149850        4.2539626444
S             8.0855782143        6.3074522113        1.0899137419
Mo            8.1436071156        9.9078441158        2.8452072246
S             6.4950922480        8.9420667802        4.3771391202
S             6.6196202907        9.0483551425        1.1412083853
Mo            3.4241220138        1.7490040211        2.7718685976
S             4.9791944594        0.8167871672        4.3578371541
S             5.0513677220        0.8480920013        1.2217055931
Mo            4.9800334262        4.5190414974        2.6356089270
S             3.4307715824        3.6723044324        4.2806746035
S             3.4363374804        3.5450644812        1.0652953580
Mo            3.4551969355        7.2119311830        2.6293039612
S             4.9854829363        6.3242249711        1.0371913731
Mo            5.0095856120        9.9035369818        2.7458251525
S             3.4734891009        8.9446907579        4.3180843201
S             3.4082085608        9.0649760800        1.1012832847
Mo            0.2928887326        1.7449936074        2.8389038586
S             1.8583919538        0.8028463070        4.4044375268
S             1.8547424075        0.8563145369        1.2077697672
Mo            1.8609204483        4.4960872576        2.6631263552
S             0.2724938380        3.6536378986        4.3354511801
S             0.2325974267        3.5268203555        1.1708677451
Mo            0.2628078002        7.2173960739        2.6768770916
S             1.9025780509        6.3112257191        4.2298099004
S             1.8589520378        6.3141929322        1.0492660760
Mo            1.8497663151        9.9421271412        2.7583079111
S             0.2946241255        9.0817062286        4.3097494667
S             0.2719549653        9.0470641096        1.1585557548
O             1.0693198746        8.4804089865        5.5956675853



     Writing config-only to output data dir ./MoS2-V-O.save/
     NEW-OLD atomic charge density approx. for the potential

     negative rho (up, down):  1.829E-04 0.000E+00

     total cpu time spent up to now is      116.2 secs

     Self-consistent Calculation

     iteration #  1     ecut=    80.00 Ry     beta= 0.70
     Davidson diagonalization with overlap
     ethr =  1.00E-06,  avg # of iterations = 15.0

     negative rho (up, down):  2.011E-03 0.000E+00

     total cpu time spent up to now is      133.7 secs

     total energy              =   -2246.34909813 Ry
     estimated scf accuracy    <       0.02161721 Ry

     iteration #  2     ecut=    80.00 Ry     beta= 0.70
     Davidson diagonalization with overlap
     ethr =  6.93E-06,  avg # of iterations =  4.0

     negative rho (up, down):  3.761E-03 0.000E+00

     total cpu time spent up to now is      146.7 secs

     total energy              =   -2246.34901112 Ry
     estimated scf accuracy    <       0.00812406 Ry

     iteration #  3     ecut=    80.00 Ry     beta= 0.70
     Davidson diagonalization with overlap
     ethr =  2.60E-06,  avg # of iterations =  3.0

     negative rho (up, down):  5.729E-03 0.000E+00

     total cpu time spent up to now is      158.0 secs

     total energy              =   -2246.34919786 Ry
     estimated scf accuracy    <       0.00188713 Ry

     iteration #  4     ecut=    80.00 Ry     beta= 0.70
     Davidson diagonalization with overlap
     ethr =  6.05E-07,  avg # of iterations =  3.0

     negative rho (up, down):  6.262E-03 0.000E+00

     total cpu time spent up to now is      169.4 secs

     total energy              =   -2246.34924542 Ry
     estimated scf accuracy    <       0.00071437 Ry

     iteration #  5     ecut=    80.00 Ry     beta= 0.70
     Davidson diagonalization with overlap
     ethr =  2.29E-07,  avg # of iterations =  2.0

     negative rho (up, down):  5.909E-03 0.000E+00

     total cpu time spent up to now is      179.8 secs

     total energy              =   -2246.34921829 Ry
     estimated scf accuracy    <       0.00023036 Ry

     iteration #  6     ecut=    80.00 Ry     beta= 0.70
     Davidson diagonalization with overlap
     ethr =  7.38E-08,  avg # of iterations =  6.0

     negative rho (up, down):  4.708E-03 0.000E+00

     total cpu time spent up to now is      190.1 secs

     total energy              =   -2246.34923760 Ry
     estimated scf accuracy    <       0.00010849 Ry

     iteration #  7     ecut=    80.00 Ry     beta= 0.70
     Davidson diagonalization with overlap
     ethr =  3.48E-08,  avg # of iterations =  5.0

     negative rho (up, down):  3.279E-03 0.000E+00

     total cpu time spent up to now is      199.6 secs

     total energy              =   -2246.34924176 Ry
     estimated scf accuracy    <       0.00001325 Ry

     iteration #  8     ecut=    80.00 Ry     beta= 0.70
     Davidson diagonalization with overlap
     ethr =  4.25E-09,  avg # of iterations =  5.0

     negative rho (up, down):  2.050E-03 0.000E+00

     total cpu time spent up to now is      209.9 secs

     total energy              =   -2246.34923173 Ry
     estimated scf accuracy    <       0.00000966 Ry

     iteration #  9     ecut=    80.00 Ry     beta= 0.70
     Davidson diagonalization with overlap
     ethr =  3.10E-09,  avg # of iterations =  3.0

     negative rho (up, down):  1.015E-03 0.000E+00

     total cpu time spent up to now is      220.0 secs

     total energy              =   -2246.34922608 Ry
     estimated scf accuracy    <       0.00000167 Ry

     iteration # 10     ecut=    80.00 Ry     beta= 0.70
     Davidson diagonalization with overlap
     ethr =  5.36E-10,  avg # of iterations =  5.0

     negative rho (up, down):  1.955E-04 0.000E+00

     total cpu time spent up to now is      223.7 secs

     End of self-consistent calculation

          k = 0.0000 0.0000 0.0000 (105382 PWs)   bands (ev):

   -63.0882 -63.0383 -63.0094 -62.9955 -62.9912 -62.9728 -62.9554 -62.9510
   -62.9242 -62.9136 -62.8693 -62.7872 -37.4018 -37.3822 -37.3156 -37.2943
   -37.2780 -37.2707 -37.2589 -37.2328 -37.2187 -37.2117 -37.2076 -37.1980
   -37.1751 -37.1707 -37.1655 -37.1617 -37.1506 -37.1331 -37.1205 -37.1137
   -37.1095 -37.0874 -37.0814 -37.0772 -37.0671 -37.0614 -37.0515 -37.0399
   -37.0151 -36.9875 -36.9602 -36.9527 -36.9446 -36.9269 -36.8956 -36.8338
   -21.1110 -16.0748 -15.3127 -15.2378 -15.0851 -15.0262 -14.8937 -14.6189
   -14.6061 -14.5614 -14.5461 -14.5036 -14.4698 -14.4145 -14.3803 -14.2713
   -14.2451 -14.2359 -14.1563 -14.1361 -13.9915 -13.9834 -13.9574 -13.8968
    -7.9055  -7.8330  -7.6711  -7.5657  -7.4639  -7.3674  -7.3488  -7.3206
    -7.2724  -7.0416  -6.9513  -6.9192  -6.8846  -6.8405  -6.7850  -6.6272
    -6.6192  -6.5455  -6.4201  -6.3670  -6.2032  -6.1211  -6.0391  -5.9656
    -5.9436  -5.9102  -5.8635  -5.8222  -5.7919  -5.7743  -5.7299  -5.6709
    -5.5716  -5.5536  -5.5161  -5.4354  -5.3479  -5.2539  -5.2398  -5.1614
    -5.1135  -5.0602  -5.0039  -4.7895  -4.7539  -4.6325  -4.5177  -4.4635
    -4.4375  -4.3465  -4.2767  -4.1674  -4.0956  -4.0077  -3.9323  -3.9191
    -3.8644  -3.8210  -3.7447  -3.7369  -3.6519  -3.6416  -3.6216  -3.6005
    -3.5247  -3.4914  -3.4201  -3.3304  -3.1731  -3.0805  -3.0097  -2.9717
    -2.8804  -2.8614  -2.8280  -2.8028  -2.7751  -2.7238  -2.5898  -2.4411
    -2.3880  -2.1533  -2.1046  -1.9613  -0.9355  -0.8780  -0.6808  -0.3118
    -0.2774  -0.1899  -0.1443  -0.0376  -0.0097   0.0841   0.1087   0.1549
     0.1869   0.2721   0.3290   0.3447   0.4022   0.4206   0.4460   0.5070
     0.5407   0.6055   0.6393   0.6604   0.7385   0.7541   0.7703   0.8462
     0.8622   0.9235   1.0684

     the Fermi energy is    -1.4487 ev

!    total energy              =   -2246.34922283 Ry
     estimated scf accuracy    <       0.00000075 Ry
     smearing contrib. (-TS)   =      -0.00000001 Ry
     internal energy E=F+TS    =   -2246.34922282 Ry

     The total energy is F=E-TS. E is the sum of the following terms:
     one-electron contribution =  -18428.94085620 Ry
     hartree contribution      =    9201.90408511 Ry
     xc contribution           =    -392.04631001 Ry
     ewald contribution        =    7382.59785319 Ry
     one-center paw contrib.   =      -9.86399491 Ry

     convergence has been achieved in  10 iterations

     negative rho (up, down):  1.955E-04 0.000E+00

     Forces acting on atoms (cartesian axes, Ry/au):

     atom    1 type  1   force =     0.00414568   -0.01169376   -0.00153083
     atom    2 type  2   force =    -0.01123658    0.01821631    0.00184010
     atom    3 type  2   force =    -0.01121719    0.00625364   -0.00815010
     atom    4 type  1   force =     0.00318400    0.00425488    0.00197414
     atom    5 type  2   force =     0.00009720   -0.00593345   -0.00631719
     atom    6 type  2   force =     0.00088228    0.00715640    0.00259778
     atom    7 type  1   force =     0.00416186   -0.01046297   -0.00148941
     atom    8 type  2   force =     0.00457652   -0.00243903    0.01309459
     atom    9 type  2   force =     0.00566494    0.00261384    0.00261359
     atom   10 type  1   force =    -0.02962350    0.02348732   -0.01440452
     atom   11 type  2   force =    -0.00178484   -0.00393753   -0.00744405
     atom   12 type  2   force =    -0.00204246   -0.00174121    0.00147395
     atom   13 type  1   force =     0.00269753    0.00252816   -0.00280875
     atom   14 type  2   force =     0.00476848   -0.00040118    0.01065965
     atom   15 type  2   force =    -0.00811028    0.00225129   -0.00684426
     atom   16 type  1   force =     0.00069274    0.00700247    0.00380304
     atom   17 type  2   force =     0.00482312    0.00141229    0.00205393
     atom   18 type  2   force =    -0.00173647   -0.00345073    0.01066726
     atom   19 type  1   force =     0.00232252   -0.00736734    0.00202467
     atom   20 type  2   force =     0.00325291   -0.00463168   -0.00299561
     atom   21 type  1   force =    -0.00078783    0.00182928   -0.00171789
     atom   22 type  2   force =    -0.00266817    0.00029342   -0.01011332
     atom   23 type  2   force =     0.00164770   -0.00100012    0.00488127
     atom   24 type  1   force =    -0.00566736   -0.00297071   -0.00989458
     atom   25 type  2   force =     0.01115594    0.01381201    0.00337929
     atom   26 type  2   force =    -0.00759351    0.00412321   -0.00685255
     atom   27 type  1   force =     0.00162500   -0.00007145    0.00468709
     atom   28 type  2   force =     0.00030919   -0.00227946   -0.00494209
     atom   29 type  2   force =     0.00190374    0.00076532   -0.00336658
     atom   30 type  1   force =    -0.00305267   -0.00963941   -0.01443678
     atom   31 type  2   force =    -0.00486343    0.00358242    0.00754840
     atom   32 type  2   force =    -0.00438504    0.00461096    0.00333190
     atom   33 type  1   force =     0.02058710    0.00940572   -0.01960706
     atom   34 type  2   force =     0.12193625   -0.12194053    0.06871119
     atom   35 type  2   force =    -0.01135570    0.01100700    0.00216729
     atom   36 type  3   force =    -0.09430968    0.06535461   -0.02459357
     The non-local contrib.  to forces
     atom    1 type  1   force =    -0.00347280    0.03358722   -0.01165247
     atom    2 type  2   force =    -0.00781482   -0.00744098   -0.27109581
     atom    3 type  2   force =    -0.01408137   -0.00540345    0.26811753
     atom    4 type  1   force =     0.00180679    0.00568264    0.00448503
     atom    5 type  2   force =     0.00637716   -0.03422068   -0.25590174
     atom    6 type  2   force =    -0.00247793    0.00748344    0.26625736
     atom    7 type  1   force =    -0.01869466    0.00259761   -0.01933645
     atom    8 type  2   force =     0.00557422   -0.00075060   -0.26281003
     atom    9 type  2   force =    -0.00061766   -0.01058111    0.27159642
     atom   10 type  1   force =     0.00780330   -0.01068105   -0.00186034
     atom   11 type  2   force =     0.01396154    0.00643380   -0.26436718
     atom   12 type  2   force =    -0.01375009   -0.01521600    0.26246610
     atom   13 type  1   force =     0.00151471    0.01889916   -0.00591142
     atom   14 type  2   force =     0.00880570   -0.01085825   -0.26782551
     atom   15 type  2   force =    -0.01024867   -0.00598148    0.26216636
     atom   16 type  1   force =     0.00012962    0.03198888   -0.03335891
     atom   17 type  2   force =     0.00181958   -0.02752499   -0.25202896
     atom   18 type  2   force =    -0.00307655   -0.00216238    0.27343042
     atom   19 type  1   force =     0.01026061    0.00099127   -0.01571244
     atom   20 type  2   force =     0.00041399   -0.02040113    0.26515345
     atom   21 type  1   force =    -0.00656269    0.03014710    0.01283501
     atom   22 type  2   force =     0.01178029    0.00650077   -0.26697676
     atom   23 type  2   force =     0.00785768   -0.01829734    0.26096622
     atom   24 type  1   force =     0.00778926    0.01954116   -0.01029789
     atom   25 type  2   force =     0.00453325   -0.00468285   -0.27011923
     atom   26 type  2   force =    -0.00097866   -0.00887429    0.26001027
     atom   27 type  1   force =    -0.00075071    0.01286100    0.00810833
     atom   28 type  2   force =    -0.00495319   -0.02466478   -0.27825826
     atom   29 type  2   force =     0.00513519    0.00050780    0.26508875
     atom   30 type  1   force =    -0.00289367    0.03169599    0.03036216
     atom   31 type  2   force =     0.00415557   -0.00051481   -0.25950625
     atom   32 type  2   force =     0.00152049   -0.01039752    0.27069042
     atom   33 type  1   force =    -0.01948097    0.00160839    0.02294558
     atom   34 type  2   force =     0.17692257   -0.19087459    0.31970295
     atom   35 type  2   force =    -0.00392880   -0.00724431    0.26823542
     atom   36 type  3   force =    -1.01614221    0.79493118   -1.49172499
     The ionic contribution  to forces
     atom    1 type  1   force =    -0.07637380    0.98743014    4.79749124
     atom    2 type  2   force =    -0.88349869    1.02667966   39.06736901
     atom    3 type  2   force =    -0.25067942    0.19280363  -36.82735208
     atom    4 type  1   force =    -0.30628051   -0.18101191   -0.42962800
     atom    5 type  2   force =    -1.04360869    1.34810850   38.47103300
     atom    6 type  2   force =     0.26143165   -0.60680922  -38.40174050
     atom    7 type  1   force =    -3.18425631   -3.07563622    0.96268428
     atom    8 type  2   force =    -1.78131212   -0.80781746   36.91218580
     atom    9 type  2   force =     0.11266098   -0.31393017  -38.76486338
     atom   10 type  1   force =    -2.45551683    0.82896570    3.45550785
     atom   11 type  2   force =    -1.03818396   -1.57102130   38.73987073
     atom   12 type  2   force =     0.25225714    0.71639876  -38.53927165
     atom   13 type  1   force =     0.83961383    1.52574570    1.61689189
     atom   14 type  2   force =     0.13745961    0.40262882   38.35192155
     atom   15 type  2   force =     0.23012504    0.10631895  -37.38158343
     atom   16 type  1   force =     0.16807779    3.32776716   -0.36894302
     atom   17 type  2   force =     0.98742125    1.26731094   37.69645259
     atom   18 type  2   force =    -0.07077441   -0.64545480  -38.99129143
     atom   19 type  1   force =     3.90043115   -3.21350267   -1.70708344
     atom   20 type  2   force =     0.24728847   -0.31501883  -39.12575717
     atom   21 type  1   force =     0.45204231    0.49241078   -0.21026650
     atom   22 type  2   force =     2.33868332   -1.30312671   37.15897177
     atom   23 type  2   force =     0.19194150    0.67831713  -39.11580469
     atom   24 type  1   force =    -0.57084627    1.89659203    4.22569220
     atom   25 type  2   force =     0.85296622    1.39280018   38.73897502
     atom   26 type  2   force =    -0.18712986    0.34485035  -38.03532545
     atom   27 type  1   force =     0.22586950   -0.44026128   -3.43947915
     atom   28 type  2   force =    -0.04206603    0.67528744   37.89837971
     atom   29 type  2   force =    -0.28130527   -0.44882172  -37.80703073
     atom   30 type  1   force =    -1.02873342   -2.75439301   -5.05815395
     atom   31 type  2   force =     1.89090000   -2.01384214   35.95507642
     atom   32 type  2   force =    -0.29510505   -0.31932839  -39.43894029
     atom   33 type  1   force =     1.84691228    1.17460220   -2.34846042
     atom   34 type  2   force =    -3.26658205    1.39251111   32.37694303
     atom   35 type  2   force =    -0.44410887    0.70110936  -38.88319200
     atom   36 type  3   force =     2.27027952   -2.46866269   48.44872122
     The local contribution  to forces
     atom    1 type  1   force =     0.08407373   -1.03259017   -4.78800106
     atom    2 type  2   force =     0.87970468   -1.00132936  -38.81545313
     atom    3 type  2   force =     0.25277735   -0.18114395   36.57165221
     atom    4 type  1   force =     0.30745755    0.17937371    0.42637024
     atom    5 type  2   force =     1.03789410   -1.32170290  -38.24207970
     atom    6 type  2   force =    -0.25839610    0.60750191   38.15870205
     atom    7 type  1   force =     3.20693132    3.06213460   -0.94560677
     atom    8 type  2   force =     1.78026003    0.80558310  -36.65727852
     atom    9 type  2   force =    -0.10668900    0.32646558   38.51644007
     atom   10 type  1   force =     2.41776974   -0.79455154   -3.46859346
     atom   11 type  2   force =     1.02318977    1.56143117  -38.50398403
     atom   12 type  2   force =    -0.24172888   -0.70412875   38.29873321
     atom   13 type  1   force =    -0.83826279   -1.54172361   -1.61458695
     atom   14 type  2   force =    -0.14086417   -0.39222354  -38.09444226
     atom   15 type  2   force =    -0.22854227   -0.09838620   37.13286108
     atom   16 type  1   force =    -0.16747455   -3.35275544    0.40540147
     atom   17 type  2   force =    -0.98432382   -1.23976759  -37.46288398
     atom   18 type  2   force =     0.07217210    0.64468670   38.74930462
     atom   19 type  1   force =    -3.90803720    3.20475924    1.72424649
     atom   20 type  2   force =    -0.24444972    0.32978395   38.87850439
     atom   21 type  1   force =    -0.44614284   -0.52047777    0.19512494
     atom   22 type  2   force =    -2.35170186    1.29773624  -36.92369119
     atom   23 type  2   force =    -0.19753933   -0.66233333   38.87997706
     atom   24 type  1   force =     0.55716334   -1.91866838   -4.22608152
     atom   25 type  2   force =    -0.84647224   -1.37417966  -38.48669189
     atom   26 type  2   force =     0.18073220   -0.33219271   37.78881615
     atom   27 type  1   force =    -0.22332624    0.42701447    3.43540762
     atom   28 type  2   force =     0.04696494   -0.65470635  -37.64637205
     atom   29 type  2   force =     0.27848633    0.44953778   37.55889982
     atom   30 type  1   force =     1.02838400    2.71272388    5.01261944
     atom   31 type  2   force =    -1.89941509    2.01696338  -35.70933315
     atom   32 type  2   force =     0.28951842    0.33363657   39.19207392
     atom   33 type  1   force =    -1.80663976   -1.16668762    2.30533060
     atom   34 type  2   force =     3.22169870   -1.33371561  -32.61757497
     atom   35 type  2   force =     0.43671591   -0.68374376   38.63767596
     atom   36 type  3   force =    -1.35996431    1.74811054  -46.99787919
     The core correction contribution to forces
     atom    1 type  1   force =     0.00000000    0.00000000    0.00000000
     atom    2 type  2   force =     0.00023613    0.00046637    0.02090502
     atom    3 type  2   force =     0.00066271    0.00017567   -0.02089887
     atom    4 type  1   force =     0.00000000    0.00000000    0.00000000
     atom    5 type  2   force =    -0.00061280    0.00189458    0.02050847
     atom    6 type  2   force =     0.00029202   -0.00096044   -0.02095076
     atom    7 type  1   force =     0.00000000    0.00000000    0.00000000
     atom    8 type  2   force =    -0.00003120    0.00038973    0.02087047
     atom    9 type  2   force =     0.00022960    0.00051696   -0.02091073
     atom   10 type  1   force =     0.00000000    0.00000000    0.00000000
     atom   11 type  2   force =    -0.00082135   -0.00073147    0.02096307
     atom   12 type  2   force =     0.00112178    0.00124151   -0.02084953
     atom   13 type  1   force =     0.00000000    0.00000000    0.00000000
     atom   14 type  2   force =    -0.00055619    0.00013244    0.02089694
     atom   15 type  2   force =     0.00059737    0.00039997   -0.02063363
     atom   16 type  1   force =     0.00000000    0.00000000    0.00000000
     atom   17 type  2   force =    -0.00001180    0.00144943    0.02038521
     atom   18 type  2   force =     0.00000851   -0.00050834   -0.02107340
     atom   19 type  1   force =     0.00000000    0.00000000    0.00000000
     atom   20 type  2   force =     0.00007539    0.00079903   -0.02121160
     atom   21 type  1   force =     0.00000000    0.00000000    0.00000000
     atom   22 type  2   force =    -0.00131137   -0.00074467    0.02146527
     atom   23 type  2   force =    -0.00054733    0.00137173   -0.02063679
     atom   24 type  1   force =     0.00000000    0.00000000    0.00000000
     atom   25 type  2   force =     0.00018072   -0.00000993    0.02113629
     atom   26 type  2   force =    -0.00019281    0.00049812   -0.02074860
     atom   27 type  1   force =     0.00000000    0.00000000    0.00000000
     atom   28 type  2   force =     0.00032088    0.00180881    0.02118050
     atom   29 type  2   force =    -0.00046132   -0.00047552   -0.02064860
     atom   30 type  1   force =     0.00000000    0.00000000    0.00000000
     atom   31 type  2   force =    -0.00043444    0.00075172    0.02119367
     atom   32 type  2   force =    -0.00031817    0.00055803   -0.02092129
     atom   33 type  1   force =     0.00000000    0.00000000    0.00000000
     atom   34 type  2   force =    -0.01027275    0.01026399   -0.01063297
     atom   35 type  2   force =    -0.00005998    0.00087730   -0.02103652
     atom   36 type  3   force =     0.01141526   -0.00892077    0.01619346
     The Hubbard contrib.    to forces
     atom    1 type  1   force =     0.00000000    0.00000000    0.00000000
     atom    2 type  2   force =     0.00000000    0.00000000    0.00000000
     atom    3 type  2   force =     0.00000000    0.00000000    0.00000000
     atom    4 type  1   force =     0.00000000    0.00000000    0.00000000
     atom    5 type  2   force =     0.00000000    0.00000000    0.00000000
     atom    6 type  2   force =     0.00000000    0.00000000    0.00000000
     atom    7 type  1   force =     0.00000000    0.00000000    0.00000000
     atom    8 type  2   force =     0.00000000    0.00000000    0.00000000
     atom    9 type  2   force =     0.00000000    0.00000000    0.00000000
     atom   10 type  1   force =     0.00000000    0.00000000    0.00000000
     atom   11 type  2   force =     0.00000000    0.00000000    0.00000000
     atom   12 type  2   force =     0.00000000    0.00000000    0.00000000
     atom   13 type  1   force =     0.00000000    0.00000000    0.00000000
     atom   14 type  2   force =     0.00000000    0.00000000    0.00000000
     atom   15 type  2   force =     0.00000000    0.00000000    0.00000000
     atom   16 type  1   force =     0.00000000    0.00000000    0.00000000
     atom   17 type  2   force =     0.00000000    0.00000000    0.00000000
     atom   18 type  2   force =     0.00000000    0.00000000    0.00000000
     atom   19 type  1   force =     0.00000000    0.00000000    0.00000000
     atom   20 type  2   force =     0.00000000    0.00000000    0.00000000
     atom   21 type  1   force =     0.00000000    0.00000000    0.00000000
     atom   22 type  2   force =     0.00000000    0.00000000    0.00000000
     atom   23 type  2   force =     0.00000000    0.00000000    0.00000000
     atom   24 type  1   force =     0.00000000    0.00000000    0.00000000
     atom   25 type  2   force =     0.00000000    0.00000000    0.00000000
     atom   26 type  2   force =     0.00000000    0.00000000    0.00000000
     atom   27 type  1   force =     0.00000000    0.00000000    0.00000000
     atom   28 type  2   force =     0.00000000    0.00000000    0.00000000
     atom   29 type  2   force =     0.00000000    0.00000000    0.00000000
     atom   30 type  1   force =     0.00000000    0.00000000    0.00000000
     atom   31 type  2   force =     0.00000000    0.00000000    0.00000000
     atom   32 type  2   force =     0.00000000    0.00000000    0.00000000
     atom   33 type  1   force =     0.00000000    0.00000000    0.00000000
     atom   34 type  2   force =     0.00000000    0.00000000    0.00000000
     atom   35 type  2   force =     0.00000000    0.00000000    0.00000000
     atom   36 type  3   force =     0.00000000    0.00000000    0.00000000
     The SCF correction term to forces
     atom    1 type  1   force =    -0.00008607   -0.00011801    0.00062611
     atom    2 type  2   force =     0.00013151   -0.00015643    0.00010966
     atom    3 type  2   force =     0.00009893   -0.00017531    0.00032576
     atom    4 type  1   force =     0.00019555    0.00021340    0.00074151
     atom    5 type  2   force =     0.00004281   -0.00001000    0.00011742
     atom    6 type  2   force =     0.00002802   -0.00005635    0.00032428
     atom    7 type  1   force =     0.00017689    0.00044399    0.00076418
     atom    8 type  2   force =     0.00008099    0.00015915    0.00012152
     atom    9 type  2   force =     0.00007640    0.00014552    0.00034587
     atom   10 type  1   force =     0.00031569   -0.00024284    0.00053608
     atom   11 type  2   force =     0.00006456   -0.00004679    0.00006802
     atom   12 type  2   force =     0.00005297   -0.00003379    0.00039045
     atom   13 type  1   force =    -0.00017283   -0.00039014    0.00079238
     atom   14 type  2   force =    -0.00008109   -0.00007770    0.00010358
     atom   15 type  2   force =    -0.00004636   -0.00009700    0.00034000
     atom   16 type  1   force =    -0.00004474    0.00000482    0.00069815
     atom   17 type  2   force =    -0.00008671   -0.00005255    0.00012373
     atom   18 type  2   force =    -0.00007073   -0.00000897    0.00029170
     atom   19 type  1   force =    -0.00033665    0.00038776    0.00056871
     atom   20 type  2   force =    -0.00007983    0.00020824    0.00030998
     atom   21 type  1   force =    -0.00012922   -0.00024789    0.00058332
     atom   22 type  2   force =    -0.00012316   -0.00006927    0.00011225
     atom   23 type  2   force =    -0.00006942   -0.00005536    0.00037412
     atom   24 type  1   force =     0.00022169   -0.00043257    0.00078728
     atom   25 type  2   force =    -0.00005662   -0.00011278    0.00007373
     atom   26 type  2   force =    -0.00002898   -0.00015532    0.00038973
     atom   27 type  1   force =    -0.00017216    0.00031731    0.00064493
     atom   28 type  2   force =     0.00003798   -0.00000164    0.00012266
     atom   29 type  2   force =     0.00004419    0.00001993    0.00031883
     atom   30 type  1   force =     0.00018581    0.00033667    0.00073021
     atom   31 type  2   force =    -0.00007408    0.00022722    0.00011235
     atom   32 type  2   force =    -0.00000536    0.00014522    0.00042379
     atom   33 type  1   force =    -0.00020905   -0.00011431    0.00057182
     atom   34 type  2   force =     0.00016515   -0.00012247    0.00026780
     atom   35 type  2   force =     0.00002143    0.00001136    0.00047907
     atom   36 type  3   force =     0.00009746   -0.00010070    0.00009056

     Total force =     0.233128     Total SCF correction =     0.003052
     Energy error            =      3.5E-02 Ry
     Gradient error          =      1.2E-01 Ry/Bohr

     number of scf cycles    =   2
     number of bfgs steps    =   1

     energy             old  =   -2246.3146665208 Ry
     energy             new  =   -2246.3492228285 Ry

     CASE: energy            _new < energy            _old

     new trust radius        =       0.1534447241 bohr
     new conv_thr            =       0.0000001219 Ry


ATOMIC_POSITIONS (angstrom)
Mo            6.5865920728        1.7644472263        2.8279663739
S             8.1585884698        0.8368937491        4.4347690691
S             8.1794128498        0.8200259717        1.2689564911
Mo            8.0983796456        4.5006584666        2.7176342455
S             6.4989677677        3.7153224421        4.3384420513
S             6.5548886781        3.5230102351        1.1224889318
Mo            6.4971052880        7.2024922430        2.6648258078
S             8.0864927699        6.3408878329        4.2642889541
S             8.0899268583        6.3096845921        1.0933897900
Mo            8.1236399640        9.9207270117        2.8392728182
S             6.4942470410        8.9399407352        4.3714842277
S             6.6193160092        9.0474241214        1.1423731807
Mo            3.4262843461        1.7509327783        2.7688489203
S             4.9828948580        0.8165455269        4.3654676737
S             5.0452196768        0.8498118018        1.2167070999
Mo            4.9804547312        4.5244555239        2.6383759210
S             3.4340828538        3.6732163099        4.2819781955
S             3.4349462771        3.5422929842        1.0727935620
Mo            3.4567629291        7.2069041367        2.6297132158
S             4.9878189455        6.3210851882        1.0357969620
Mo            5.0082158643        9.9051039825        2.7459524277
S             3.4732217249        8.9451790451        4.3106273618
S             3.4088794923        9.0645131431        1.1054821991
Mo            0.2890886705        1.7426860714        2.8304038281
S             1.8664853540        0.8129927117        4.4083308122
S             1.8489847488        0.8589131313        1.2040191523
Mo            1.8617504565        4.4962130038        2.6663750179
S             0.2727408363        3.6523079994        4.3323857752
S             0.2339834588        3.5270089946        1.1688936776
Mo            0.2582665661        7.2132672735        2.6609181332
S             1.9004803810        6.3122724247        4.2360398359
S             1.8557070070        6.3177534738        1.0525644413
Mo            1.8612299913        9.9471806754        2.7438190823
S             0.3499416137        9.0227768329        4.3019614830
S             0.2649432592        9.0534346631        1.1626204459
O             1.0331566664        8.5028396629        5.6287943720



     Writing config-only to output data dir ./MoS2-V-O.save/
     NEW-OLD atomic charge density approx. for the potential

     negative rho (up, down):  1.559E-04 0.000E+00

     total cpu time spent up to now is      231.0 secs

     Self-consistent Calculation

     iteration #  1     ecut=    80.00 Ry     beta= 0.70
     Davidson diagonalization with overlap
     ethr =  1.00E-06,  avg # of iterations = 11.0

     negative rho (up, down):  1.545E-04 0.000E+00

     total cpu time spent up to now is      243.0 secs

     total energy              =   -2246.38163541 Ry
     estimated scf accuracy    <       0.00376881 Ry

     iteration #  2     ecut=    80.00 Ry     beta= 0.70
     Davidson diagonalization with overlap
     ethr =  1.21E-06,  avg # of iterations =  5.0

     negative rho (up, down):  1.823E-04 0.000E+00

     total cpu time spent up to now is      253.7 secs

     total energy              =   -2246.38204228 Ry
     estimated scf accuracy    <       0.00154064 Ry

     iteration #  3     ecut=    80.00 Ry     beta= 0.70
     Davidson diagonalization with overlap
     ethr =  4.94E-07,  avg # of iterations =  3.0

     negative rho (up, down):  1.921E-04 0.000E+00

     total cpu time spent up to now is      268.1 secs

     total energy              =   -2246.38208590 Ry
     estimated scf accuracy    <       0.00027622 Ry

     iteration #  4     ecut=    80.00 Ry     beta= 0.70
     Davidson diagonalization with overlap
     ethr =  8.85E-08,  avg # of iterations =  5.0

     negative rho (up, down):  2.013E-04 0.000E+00

     total cpu time spent up to now is      282.4 secs

     total energy              =   -2246.38212443 Ry
     estimated scf accuracy    <       0.00002177 Ry

     iteration #  5     ecut=    80.00 Ry     beta= 0.70
     Davidson diagonalization with overlap
     ethr =  6.98E-09,  avg # of iterations =  7.0

     negative rho (up, down):  2.078E-04 0.000E+00

     total cpu time spent up to now is      294.5 secs

     total energy              =   -2246.38213101 Ry
     estimated scf accuracy    <       0.00000428 Ry

     iteration #  6     ecut=    80.00 Ry     beta= 0.70
     Davidson diagonalization with overlap
     ethr =  1.37E-09,  avg # of iterations =  2.0

     negative rho (up, down):  2.142E-04 0.000E+00

     total cpu time spent up to now is      306.5 secs

     total energy              =   -2246.38213130 Ry
     estimated scf accuracy    <       0.00000100 Ry

     iteration #  7     ecut=    80.00 Ry     beta= 0.70
     Davidson diagonalization with overlap
     ethr =  3.22E-10,  avg # of iterations =  2.0

     negative rho (up, down):  1.922E-04 0.000E+00

     total cpu time spent up to now is      310.0 secs

     End of self-consistent calculation

          k = 0.0000 0.0000 0.0000 (105382 PWs)   bands (ev):

   -63.0596 -63.0385 -63.0119 -62.9981 -62.9877 -62.9829 -62.9603 -62.9548
   -62.9324 -62.9211 -62.8711 -62.7997 -37.3833 -37.3549 -37.3036 -37.2888
   -37.2794 -37.2707 -37.2557 -37.2342 -37.2196 -37.2132 -37.2024 -37.1993
   -37.1789 -37.1713 -37.1668 -37.1583 -37.1559 -37.1391 -37.1244 -37.1176
   -37.1125 -37.0914 -37.0847 -37.0819 -37.0716 -37.0644 -37.0569 -37.0417
   -37.0218 -36.9917 -36.9666 -36.9595 -36.9555 -36.9470 -36.9034 -36.8458
   -21.5089 -16.0774 -15.3134 -15.2440 -15.0908 -15.0191 -14.8912 -14.6249
   -14.5967 -14.5566 -14.5487 -14.5098 -14.4688 -14.4188 -14.3804 -14.2656
   -14.2487 -14.2456 -14.1495 -14.1362 -14.0052 -13.9787 -13.9100 -13.8970
    -7.9115  -7.8304  -7.7030  -7.5815  -7.4463  -7.3663  -7.3615  -7.3391
    -7.2812  -7.0704  -6.9498  -6.9265  -6.8946  -6.8320  -6.7913  -6.6450
    -6.6301  -6.5394  -6.4232  -6.3762  -6.2206  -6.1430  -6.0328  -5.9741
    -5.9476  -5.9095  -5.8698  -5.8240  -5.8030  -5.7812  -5.7464  -5.6804
    -5.5739  -5.5407  -5.5024  -5.4431  -5.3460  -5.2609  -5.2228  -5.1693
    -5.1080  -5.0764  -5.0134  -4.7970  -4.7615  -4.6376  -4.5282  -4.4687
    -4.4478  -4.3646  -4.2937  -4.1846  -4.1361  -4.0450  -3.9341  -3.9169
    -3.8680  -3.8141  -3.7533  -3.7319  -3.6726  -3.6471  -3.6357  -3.6044
    -3.5266  -3.4944  -3.4394  -3.3463  -3.1631  -3.0844  -3.0202  -2.9694
    -2.8971  -2.8732  -2.8200  -2.8150  -2.7900  -2.7288  -2.6547  -2.5139
    -2.3955  -2.1498  -2.1118  -2.0283  -0.9276  -0.8863  -0.5568  -0.3120
    -0.2845  -0.1788  -0.1436  -0.0402   0.0077   0.0871   0.0919   0.1702
     0.2035   0.2734   0.3244   0.3599   0.4017   0.4224   0.4317   0.5180
     0.5355   0.6166   0.6522   0.6545   0.7437   0.7526   0.7773   0.8414
     0.8952   0.9176   1.0540

     the Fermi energy is    -1.4785 ev

!    total energy              =   -2246.38213153 Ry
     estimated scf accuracy    <       0.00000012 Ry
     smearing contrib. (-TS)   =      -0.00000000 Ry
     internal energy E=F+TS    =   -2246.38213153 Ry

     The total energy is F=E-TS. E is the sum of the following terms:
     one-electron contribution =  -18424.34946757 Ry
     hartree contribution      =    9199.57845672 Ry
     xc contribution           =    -392.07334738 Ry
     ewald contribution        =    7380.32430608 Ry
     one-center paw contrib.   =      -9.86207937 Ry

     convergence has been achieved in   7 iterations

     negative rho (up, down):  1.922E-04 0.000E+00

     Forces acting on atoms (cartesian axes, Ry/au):

     atom    1 type  1   force =    -0.00436605   -0.00053706   -0.00608414
     atom    2 type  2   force =    -0.00554808    0.00903271    0.00234522
     atom    3 type  2   force =    -0.01018565    0.00524861   -0.01013882
     atom    4 type  1   force =     0.00328808    0.00253408    0.00288644
     atom    5 type  2   force =     0.00117015   -0.00551706   -0.00515083
     atom    6 type  2   force =     0.00030802    0.00440450    0.00411166
     atom    7 type  1   force =     0.00217986   -0.00453037    0.00361218
     atom    8 type  2   force =     0.00415462   -0.00206564    0.00633212
     atom    9 type  2   force =     0.00182593   -0.00012792   -0.00389169
     atom   10 type  1   force =     0.00450096    0.01030328    0.00224237
     atom   11 type  2   force =    -0.00078066   -0.00384375   -0.00583620
     atom   12 type  2   force =    -0.00523927   -0.00167091    0.00019825
     atom   13 type  1   force =     0.00155448    0.00173190    0.00121736
     atom   14 type  2   force =     0.00288749   -0.00046446    0.00629139
     atom   15 type  2   force =    -0.00501911    0.00136008   -0.00509121
     atom   16 type  1   force =     0.00099567    0.00363359    0.00235065
     atom   17 type  2   force =     0.00447076    0.00123007    0.00219562
     atom   18 type  2   force =    -0.00050216   -0.00089368    0.00829911
     atom   19 type  1   force =     0.00187260   -0.00523282    0.00210866
     atom   20 type  2   force =     0.00196374   -0.00381827   -0.00402265
     atom   21 type  1   force =    -0.00110586    0.00026526   -0.00202002
     atom   22 type  2   force =    -0.00211854    0.00064573   -0.00747537
     atom   23 type  2   force =     0.00390062   -0.00280193   -0.00110806
     atom   24 type  1   force =    -0.00567787   -0.00205852   -0.00155126
     atom   25 type  2   force =     0.00690101    0.00885548   -0.00388806
     atom   26 type  2   force =    -0.00402692    0.00607897   -0.00988078
     atom   27 type  1   force =     0.00066309    0.00083903    0.00469439
     atom   28 type  2   force =     0.00023041   -0.00282737   -0.00503709
     atom   29 type  2   force =     0.00154651    0.00211622   -0.00328458
     atom   30 type  1   force =     0.00622482   -0.01430007    0.00566486
     atom   31 type  2   force =    -0.00479846    0.00065770    0.00199860
     atom   32 type  2   force =    -0.00148420    0.00187572   -0.00100645
     atom   33 type  1   force =     0.01759497    0.00526113   -0.00439315
     atom   34 type  2   force =     0.07060099   -0.08153059    0.04642386
     atom   35 type  2   force =    -0.01181672    0.01318510   -0.00007520
     atom   36 type  3   force =    -0.07616523    0.05296127   -0.02303718
     The non-local contrib.  to forces
     atom    1 type  1   force =    -0.00139775    0.02968585   -0.01126762
     atom    2 type  2   force =    -0.00308976   -0.01204592   -0.26866503
     atom    3 type  2   force =    -0.01236483   -0.00629508    0.26472510
     atom    4 type  1   force =     0.00185825    0.00650782    0.00355413
     atom    5 type  2   force =     0.00749460   -0.03375787   -0.25642539
     atom    6 type  2   force =    -0.00275209    0.00480134    0.26808181
     atom    7 type  1   force =    -0.01849177    0.00222208   -0.02009918
     atom    8 type  2   force =     0.00558580   -0.00098942   -0.26579436
     atom    9 type  2   force =    -0.00380149   -0.01273245    0.26655690
     atom   10 type  1   force =     0.00204529   -0.00768470   -0.00117770
     atom   11 type  2   force =     0.01183395    0.00578531   -0.26338330
     atom   12 type  2   force =    -0.01570036   -0.01622405    0.26149507
     atom   13 type  1   force =     0.00206798    0.02040543   -0.00625732
     atom   14 type  2   force =     0.00720016   -0.01095374   -0.26998685
     atom   15 type  2   force =    -0.00826945   -0.00744649    0.26244342
     atom   16 type  1   force =    -0.00044571    0.03250712   -0.03455338
     atom   17 type  2   force =     0.00109890   -0.02682164   -0.25260134
     atom   18 type  2   force =    -0.00142250   -0.00017537    0.27194753
     atom   19 type  1   force =     0.01117263    0.00220091   -0.01742301
     atom   20 type  2   force =    -0.00033288   -0.01859500    0.26447023
     atom   21 type  1   force =    -0.00486576    0.03135327    0.01197556
     atom   22 type  2   force =     0.01087783    0.00627087   -0.26831924
     atom   23 type  2   force =     0.00884152   -0.01874993    0.25909541
     atom   24 type  1   force =     0.00618492    0.01814729   -0.00957391
     atom   25 type  2   force =     0.00185935   -0.00718199   -0.27301137
     atom   26 type  2   force =     0.00167229   -0.00656710    0.25790931
     atom   27 type  1   force =    -0.00066161    0.01115513    0.00661456
     atom   28 type  2   force =    -0.00491163   -0.02399877   -0.27888984
     atom   29 type  2   force =     0.00447644    0.00027628    0.26638418
     atom   30 type  1   force =    -0.00374564    0.03171906    0.03151778
     atom   31 type  2   force =     0.00231261   -0.00227259   -0.26798781
     atom   32 type  2   force =     0.00206523   -0.01179273    0.26910221
     atom   33 type  1   force =    -0.01769608    0.00023235    0.02381543
     atom   34 type  2   force =     0.13612623   -0.14701315    0.31553834
     atom   35 type  2   force =    -0.00344462   -0.00755988    0.27008823
     atom   36 type  3   force =    -0.96573439    0.74373690   -1.68770514
     The ionic contribution  to forces
[...]
     atom   28 type  2   force =    -0.00101466   -0.01335729   -0.27723589
     atom   29 type  2   force =     0.00079963   -0.00760313    0.27026904
     atom   30 type  1   force =     0.00030931    0.03060684    0.01878237
     atom   31 type  2   force =    -0.01020708    0.00556385   -0.27085272
     atom   32 type  2   force =     0.00611477   -0.01454321    0.26940150
     atom   33 type  1   force =    -0.01078837   -0.00188325    0.02033926
     atom   34 type  2   force =    -0.00120321   -0.00813064    0.29442973
     atom   35 type  2   force =     0.00053470   -0.01542745    0.27664960
     atom   36 type  3   force =     0.01629213    0.02410516   -2.31995186
     The ionic contribution  to forces
     atom    1 type  1   force =    -0.58654225    1.30920462    1.92943981
     atom    2 type  2   force =    -0.69823431    1.14007696   38.32000005
     atom    3 type  2   force =     0.03150919    0.15763079  -38.26217181
     atom    4 type  1   force =    -0.37331157   -0.22735971   -0.12772568
     atom    5 type  2   force =    -0.96008227    1.13967997   38.22856753
     atom    6 type  2   force =     0.14423910   -0.36194711  -38.36383621
     atom    7 type  1   force =    -3.33134139   -2.50130770    1.41406781
     atom    8 type  2   force =    -1.75073041   -0.83145624   37.66902044
     atom    9 type  2   force =     0.21370637   -0.11967987  -38.70514063
     atom   10 type  1   force =    -1.36654216    0.22068621   -1.23100422
     atom   11 type  2   force =    -1.46188025   -1.51210469   37.88012615
     atom   12 type  2   force =     0.12115597    0.25508319  -38.71343508
     atom   13 type  1   force =     0.56557907    1.28043104    1.46511068
     atom   14 type  2   force =    -0.03095070    0.29823195   38.32068736
     atom   15 type  2   force =     0.01015962    0.04015524  -37.89946131
     atom   16 type  1   force =    -0.04142688    3.24073021    1.18773095
     atom   17 type  2   force =     0.93558533    1.12846693   38.09094866
     atom   18 type  2   force =    -0.10337830   -0.35831525  -38.44538011
     atom   19 type  1   force =     3.24478294   -2.47527164    0.79669396
     atom   20 type  2   force =     0.01292729   -0.13972157  -39.02682428
     atom   21 type  1   force =    -0.05183820    0.03148383   -0.08669469
     atom   22 type  2   force =     1.38243233   -1.53029715   37.83453626
     atom   23 type  2   force =    -0.13019358    0.29356615  -38.74812141
     atom   24 type  1   force =     0.02564338    1.40865473    1.14281001
     atom   25 type  2   force =     0.72328000    1.11754510   38.29331704
     atom   26 type  2   force =    -0.04115128    0.14626284  -38.29813419
     atom   27 type  1   force =     0.35560657   -0.20330329   -0.84958331
     atom   28 type  2   force =     0.03775817    0.47179414   37.83789594
     atom   29 type  2   force =    -0.02296888   -0.12525117  -37.99208383
     atom   30 type  1   force =     0.05568265   -1.81049728   -2.23567920
     atom   31 type  2   force =     1.79647382   -0.80142935   37.54350146
     atom   32 type  2   force =    -0.22611103   -0.10733723  -38.83288306
     atom   33 type  1   force =     1.46131851    0.18358284   -1.09641007
     atom   34 type  2   force =     0.07710540   -0.43340297   28.65849560
     atom   35 type  2   force =    -0.00399579    0.13872804  -38.16696384
     atom   36 type  3   force =    -0.01426645   -0.46331257   50.46858326
     The local contribution  to forces
     atom    1 type  1   force =     0.58970633   -1.33286860   -1.92497113
     atom    2 type  2   force =     0.69887071   -1.12931371  -38.06979743
     atom    3 type  2   force =    -0.02910913   -0.14805720   38.01770869
     atom    4 type  1   force =     0.37177197    0.22359958    0.12507636
     atom    5 type  2   force =     0.95529601   -1.11722644  -37.99319062
     atom    6 type  2   force =    -0.14421693    0.36444844   38.11883755
     atom    7 type  1   force =     3.34462742    2.49692890   -1.39211094
     atom    8 type  2   force =     1.74256711    0.82731347  -37.41903948
     atom    9 type  2   force =    -0.20876823    0.13232663   38.45765009
     atom   10 type  1   force =     1.35750666   -0.22050930    1.21097622
     atom   11 type  2   force =     1.45794785    1.50920867  -37.63718619
     atom   12 type  2   force =    -0.11361545   -0.24195246   38.47232620
     atom   13 type  1   force =    -0.56871388   -1.30366774   -1.46033796
     atom   14 type  2   force =     0.03051220   -0.28756201  -38.06873114
     atom   15 type  2   force =    -0.00982971   -0.02853984   37.65548843
     atom   16 type  1   force =     0.04204599   -3.27468355   -1.15152307
     atom   17 type  2   force =    -0.93118797   -1.10560609  -37.85494606
     atom   18 type  2   force =     0.10413181    0.36073467   38.20006612
     atom   19 type  1   force =    -3.26048544    2.47078934   -0.77447997
     atom   20 type  2   force =    -0.01249865    0.15102526   38.78317680
     atom   21 type  1   force =     0.05164133   -0.06218038    0.07487608
     atom   22 type  2   force =    -1.37901506    1.52656032  -37.59196713
     atom   23 type  2   force =     0.12243608   -0.28031770   38.50754588
     atom   24 type  1   force =    -0.02570890   -1.42123554   -1.14117781
     atom   25 type  2   force =    -0.72351859   -1.10604557  -38.04329068
     atom   26 type  2   force =     0.03867144   -0.13706598   38.05393174
     atom   27 type  1   force =    -0.35306172    0.19874018    0.84695684
     atom   28 type  2   force =    -0.03706186   -0.45941908  -37.58165193
     atom   29 type  2   force =     0.02232984    0.13334181   37.74248501
     atom   30 type  1   force =    -0.05588476    1.77872693    2.21713761
     atom   31 type  2   force =    -1.78776444    0.79705712  -37.29362674
     atom   32 type  2   force =     0.22042830    0.11989262   38.58596938
     atom   33 type  1   force =    -1.45026527   -0.18184852    1.07586440
     atom   34 type  2   force =    -0.07599928    0.44119632  -28.94580470
     atom   35 type  2   force =     0.00405341   -0.12528989   37.91129597
     atom   36 type  3   force =    -0.00106301    0.43963429  -48.17194412
     The core correction contribution to forces
     atom    1 type  1   force =     0.00000000    0.00000000    0.00000000
     atom    2 type  2   force =     0.00005713    0.00042144    0.02122661
     atom    3 type  2   force =     0.00013814    0.00051761   -0.02082657
     atom    4 type  1   force =     0.00000000    0.00000000    0.00000000
     atom    5 type  2   force =    -0.00046043    0.00109524    0.02049268
     atom    6 type  2   force =     0.00018368   -0.00033687   -0.02087046
     atom    7 type  1   force =     0.00000000    0.00000000    0.00000000
     atom    8 type  2   force =    -0.00037773    0.00011417    0.02131725
     atom    9 type  2   force =     0.00051277    0.00066927   -0.02097921
     atom   10 type  1   force =     0.00000000    0.00000000    0.00000000
     atom   11 type  2   force =     0.00007713   -0.00036767    0.02104193
     atom   12 type  2   force =     0.00062372    0.00089650   -0.02073794
     atom   13 type  1   force =     0.00000000    0.00000000    0.00000000
     atom   14 type  2   force =    -0.00005167    0.00018758    0.02112845
     atom   15 type  2   force =     0.00005473    0.00050176   -0.02072324
     atom   16 type  1   force =     0.00000000    0.00000000    0.00000000
     atom   17 type  2   force =     0.00035144    0.00109147    0.02047516
     atom   18 type  2   force =    -0.00012930   -0.00036971   -0.02086414
     atom   19 type  1   force =     0.00000000    0.00000000    0.00000000
     atom   20 type  2   force =     0.00016564    0.00053639   -0.02127547
     atom   21 type  1   force =     0.00000000    0.00000000    0.00000000
     atom   22 type  2   force =    -0.00001764   -0.00047327    0.02102567
     atom   23 type  2   force =    -0.00067649    0.00097384   -0.02074334
     atom   24 type  1   force =     0.00000000    0.00000000    0.00000000
     atom   25 type  2   force =    -0.00001849    0.00051818    0.02123694
     atom   26 type  2   force =    -0.00023356    0.00044058   -0.02084470
     atom   27 type  1   force =     0.00000000    0.00000000    0.00000000
     atom   28 type  2   force =     0.00009612    0.00089041    0.02126751
     atom   29 type  2   force =    -0.00007407    0.00016612   -0.02088139
     atom   30 type  1   force =     0.00000000    0.00000000    0.00000000
     atom   31 type  2   force =     0.00053417    0.00004102    0.02127608
     atom   32 type  2   force =    -0.00055756    0.00077621   -0.02099929
     atom   33 type  1   force =     0.00000000    0.00000000    0.00000000
     atom   34 type  2   force =     0.00006185    0.00033952   -0.00958509
     atom   35 type  2   force =    -0.00003113    0.00086531   -0.02131067
     atom   36 type  3   force =    -0.00017682   -0.00027135    0.02458538
     The Hubbard contrib.    to forces
     atom    1 type  1   force =     0.00000000    0.00000000    0.00000000
     atom    2 type  2   force =     0.00000000    0.00000000    0.00000000
     atom    3 type  2   force =     0.00000000    0.00000000    0.00000000
     atom    4 type  1   force =     0.00000000    0.00000000    0.00000000
     atom    5 type  2   force =     0.00000000    0.00000000    0.00000000
     atom    6 type  2   force =     0.00000000    0.00000000    0.00000000
     atom    7 type  1   force =     0.00000000    0.00000000    0.00000000
     atom    8 type  2   force =     0.00000000    0.00000000    0.00000000
     atom    9 type  2   force =     0.00000000    0.00000000    0.00000000
     atom   10 type  1   force =     0.00000000    0.00000000    0.00000000
     atom   11 type  2   force =     0.00000000    0.00000000    0.00000000
     atom   12 type  2   force =     0.00000000    0.00000000    0.00000000
     atom   13 type  1   force =     0.00000000    0.00000000    0.00000000
     atom   14 type  2   force =     0.00000000    0.00000000    0.00000000
     atom   15 type  2   force =     0.00000000    0.00000000    0.00000000
     atom   16 type  1   force =     0.00000000    0.00000000    0.00000000
     atom   17 type  2   force =     0.00000000    0.00000000    0.00000000
     atom   18 type  2   force =     0.00000000    0.00000000    0.00000000
     atom   19 type  1   force =     0.00000000    0.00000000    0.00000000
     atom   20 type  2   force =     0.00000000    0.00000000    0.00000000
     atom   21 type  1   force =     0.00000000    0.00000000    0.00000000
     atom   22 type  2   force =     0.00000000    0.00000000    0.00000000
     atom   23 type  2   force =     0.00000000    0.00000000    0.00000000
     atom   24 type  1   force =     0.00000000    0.00000000    0.00000000
     atom   25 type  2   force =     0.00000000    0.00000000    0.00000000
     atom   26 type  2   force =     0.00000000    0.00000000    0.00000000
     atom   27 type  1   force =     0.00000000    0.00000000    0.00000000
     atom   28 type  2   force =     0.00000000    0.00000000    0.00000000
     atom   29 type  2   force =     0.00000000    0.00000000    0.00000000
     atom   30 type  1   force =     0.00000000    0.00000000    0.00000000
     atom   31 type  2   force =     0.00000000    0.00000000    0.00000000
     atom   32 type  2   force =     0.00000000    0.00000000    0.00000000
     atom   33 type  1   force =     0.00000000    0.00000000    0.00000000
     atom   34 type  2   force =     0.00000000    0.00000000    0.00000000
     atom   35 type  2   force =     0.00000000    0.00000000    0.00000000
     atom   36 type  3   force =     0.00000000    0.00000000    0.00000000
     The SCF correction term to forces
     atom    1 type  1   force =     0.00001071    0.00000790   -0.00000737
     atom    2 type  2   force =    -0.00000143   -0.00001190    0.00001204
     atom    3 type  2   force =     0.00000637    0.00000325   -0.00000794
     atom    4 type  1   force =     0.00002237    0.00001758   -0.00001841
     atom    5 type  2   force =     0.00000225    0.00000197   -0.00000470
     atom    6 type  2   force =    -0.00000245    0.00000903   -0.00000540
     atom    7 type  1   force =     0.00000988    0.00000561   -0.00002158
     atom    8 type  2   force =    -0.00000151    0.00000911   -0.00000714
     atom    9 type  2   force =     0.00000807   -0.00000493   -0.00000495
     atom   10 type  1   force =     0.00000327   -0.00004536    0.00002916
     atom   11 type  2   force =     0.00002608   -0.00000169    0.00000212
     atom   12 type  2   force =     0.00000285   -0.00001395    0.00000429
     atom   13 type  1   force =     0.00001418    0.00000566   -0.00001812
     atom   14 type  2   force =     0.00000826   -0.00000324   -0.00000212
     atom   15 type  2   force =    -0.00000060   -0.00000318   -0.00000364
     atom   16 type  1   force =     0.00002132   -0.00000456   -0.00002936
     atom   17 type  2   force =    -0.00000206    0.00000455   -0.00001168
     atom   18 type  2   force =    -0.00001216    0.00001562   -0.00001189
     atom   19 type  1   force =    -0.00000794   -0.00001050   -0.00005840
     atom   20 type  2   force =     0.00000439    0.00000248   -0.00001796
     atom   21 type  1   force =     0.00000890   -0.00000328   -0.00001846
     atom   22 type  2   force =     0.00001782    0.00000596   -0.00000489
     atom   23 type  2   force =     0.00000677   -0.00000959   -0.00002492
     atom   24 type  1   force =     0.00000237    0.00001898   -0.00001392
     atom   25 type  2   force =    -0.00000756    0.00000657   -0.00000354
     atom   26 type  2   force =    -0.00000515    0.00000628   -0.00001669
     atom   27 type  1   force =    -0.00000961    0.00001454   -0.00005262
     atom   28 type  2   force =    -0.00001085    0.00000303   -0.00001462
     atom   29 type  2   force =     0.00000423    0.00000974   -0.00000858
     atom   30 type  1   force =    -0.00002773    0.00000168   -0.00003378
     atom   31 type  2   force =    -0.00001903   -0.00001297   -0.00002057
     atom   32 type  2   force =    -0.00001036   -0.00000889   -0.00001591
     atom   33 type  1   force =    -0.00005189   -0.00000648   -0.00003764
     atom   34 type  2   force =    -0.00004120    0.00000415   -0.00001978
     atom   35 type  2   force =    -0.00000466   -0.00000405    0.00000431
     atom   36 type  3   force =    -0.00006378    0.00000633   -0.00000988

     Total force =     0.006522     Total SCF correction =     0.000182
     Energy error            =      8.0E-05 Ry
     Gradient error          =      2.5E-03 Ry/Bohr

     bfgs converged in  20 scf cycles and  19 bfgs steps
     (criteria: energy <  1.0E-04 Ry, force <  1.0E-02 Ry/Bohr)

     End of BFGS Geometry Optimization

     Final energy             =   -2246.4498039787 Ry

     File ./MoS2-V-O.bfgs deleted, as requested
Begin final coordinates

ATOMIC_POSITIONS (angstrom)
Mo            6.5842905717        1.7460463412        2.7692825649
S             8.1532101984        0.8353539087        4.3792250352
S             8.1562801860        0.8501180764        1.1728151841
Mo            8.1398573780        4.4854204908        2.7222020170
S             6.5383353238        3.6575225000        4.3185208393
S             6.5746197382        3.5489248370        1.1222065915
Mo            6.5490834116        7.1720062589        2.6760898069
S             8.1154218993        6.2927652742        4.3138072562
S             8.1535725915        6.2997701462        1.1064749340
Mo            8.1348491288        9.9446423246        2.7576349334
S             6.5540452707        8.9412624871        4.3280984247
S             6.6031409337        9.0102548410        1.1224668986
Mo            3.4454918257        1.7422381277        2.7609389096
S             5.0130812118        0.7973615110        4.3519311730
S             5.0191763160        0.8237945306        1.1769379064
Mo            5.0158264633        4.5240566524        2.6628642333
S             3.4843175017        3.6519299279        4.3076028730
S             3.4577117770        3.5465270685        1.1150554910
Mo            3.4957060939        7.1719568965        2.6645774787
S             5.0296244453        6.2988384896        1.0507531998
Mo            5.0185066799        9.8844356986        2.7350360514
S             3.4881936897        8.9338354825        4.3242709728
S             3.4333063996        9.0145538863        1.1170617758
Mo            0.2874805131        1.7283190364        2.7746646628
S             1.8804657961        0.8347611008        4.3772076680
S             1.8683629212        0.8439652230        1.1688713923
Mo            1.8923743348        4.4870538844        2.7090477257
S             0.2926158190        3.5977413183        4.3190140192
S             0.2836394629        3.5462049357        1.1553875463
Mo            0.2922533675        7.1743851096        2.7236347817
S             1.9348625889        6.2898814799        4.3027276119
S             1.8860242283        6.3074997183        1.0943165906
Mo            1.8971555278        9.9409691073        2.7583656934
S             0.2868422342        9.0115478869        4.2660209501
S             0.2860521375        9.0441621565        1.1857638153
O             0.2773201564        9.0010952512        5.7638845290
End final coordinates



     Writing all to output data dir ./MoS2-V-O.save/
 
     init_run     :      4.60s CPU      5.11s WALL (       1 calls)
     electrons    :   1792.81s CPU   2029.70s WALL (      20 calls)
     update_pot   :     57.94s CPU     61.82s WALL (      19 calls)
     forces       :     54.87s CPU     62.54s WALL (      20 calls)

     Called by init_run:
     wfcinit      :      0.48s CPU      0.54s WALL (       1 calls)
     potinit      :      2.37s CPU      2.61s WALL (       1 calls)
     hinit0       :      0.43s CPU      0.47s WALL (       1 calls)

     Called by electrons:
     c_bands      :    266.11s CPU    272.94s WALL (     185 calls)
     sum_band     :    104.20s CPU    134.18s WALL (     185 calls)
     v_of_rho     :    173.59s CPU    211.90s WALL (     198 calls)
     newd         :     61.59s CPU     89.69s WALL (     198 calls)
     PAW_pot      :      7.87s CPU      7.90s WALL (     217 calls)
     mix_rho      :   1199.62s CPU   1335.23s WALL (     185 calls)

     Called by c_bands:
     init_us_2    :      4.26s CPU      4.59s WALL (     390 calls)
     init_us_2:cp :      4.25s CPU      4.59s WALL (     390 calls)
     regterg      :    252.14s CPU    258.62s WALL (     185 calls)

     Called by *egterg:
     rdiaghg      :     17.33s CPU     17.52s WALL (     983 calls)
     h_psi        :    163.29s CPU    164.78s WALL (    1010 calls)
     s_psi        :     15.62s CPU     15.71s WALL (    1010 calls)
     g_psi        :      0.78s CPU      0.79s WALL (     824 calls)

     Called by h_psi:
     h_psi:calbec :     18.02s CPU     18.15s WALL (    1010 calls)
     vloc_psi     :    127.67s CPU    128.93s WALL (    1010 calls)
     add_vuspsi   :     15.57s CPU     15.66s WALL (    1010 calls)

     General routines
     calbec       :     26.29s CPU     26.47s WALL (    1294 calls)
     fft          :    118.94s CPU    138.07s WALL (   13244 calls)
     ffts         :    535.40s CPU    665.96s WALL (  294343 calls)
     fftw         :     81.34s CPU     82.00s WALL (  113046 calls)
     interpolate  :      2.45s CPU      2.83s WALL (     198 calls)
 
     Parallel routines
 
     PWSCF        :  31m59.00s CPU  36m12.12s WALL

 
   This run was terminated on:  20:52:51   1Nov2023            

=------------------------------------------------------------------------------=
   JOB DONE.
=------------------------------------------------------------------------------=
