
     Program PWSCF v.7.2 starts on  2Nov2023 at 10:38:18 

     This program is part of the open-source Quantum ESPRESSO suite
     for quantum simulation of materials; please cite
         "P. Giannozzi et al., J. Phys.:Condens. Matter 21 395502 (2009);
         "P. Giannozzi et al., J. Phys.:Condens. Matter 29 465901 (2017);
         "P. Giannozzi et al., J. Chem. Phys. 152 154105 (2020);
          URL http://www.quantum-espresso.org", 
     in publications or presentations arising from this work. More details at
     http://www.quantum-espresso.org/quote

     Parallel version (MPI & OpenMP), running on      48 processor cores
     Number of MPI processes:                48
     Threads/MPI process:                     1

     MPI processes distributed on     2 nodes
     181041 MiB available memory on the printing compute node when the environment starts
 
     Waiting for input...
     Reading input from standard input
Warning: card &CELL ignored
Warning: card CELL_DYNAMICS = 'BFGS', ignored
Warning: card CELL_DOFREE = '2DXY' ignored
Warning: card / ignored

     Current dimensions of program PWSCF are:
     Max number of different atomic species (ntypx) = 10
     Max number of k-points (npk) =  40000
     Max angular momentum in pseudopotentials (lmaxx) =  4
     file O.pbe-n-kjpaw_psl.0.1.UPF: wavefunction(s)  2P renormalized

     IMPORTANT: XC functional enforced from input :
     Exchange-correlation= RVV10
                           (   1   4  13   4  26   0   0)
     Any further DFT definition will be discarded
     Please, verify this is what you really want


     gamma-point specific algorithms are used
     signal trapping enabled: kill the code with -SIGUSR1 to stop cleanly the simulation 
 
     R & G space division:  proc/nbgrp/npool/nimage =      48
     Subspace diagonalization in iterative solution of the eigenvalue problem:
     one sub-group per band group will be used
     scalapack distributed-memory algorithm (size of sub-group:  2*  2 procs)

 
     Parallelization info
     --------------------
     sticks:   dense  smooth     PW     G-vecs:    dense   smooth      PW
     Min         396     194     47               101632    35090    4376
     Max         398     196     50               101674    35128    4410
     Sum       19091    9389   2349              4879585  1685513  210763
 
     Using Slab Decomposition
 


     bravais-lattice index     =            0
     lattice parameter (alat)  =      17.8707  a.u.
     unit-cell volume          =   17436.2743 (a.u.)^3
     number of atoms/cell      =           36
     number of atomic types    =            3
     number of electrons       =       312.00
     number of Kohn-Sham states=          187
     kinetic-energy cutoff     =      80.0000  Ry
     charge density cutoff     =     650.0000  Ry
     scf convergence threshold =      1.0E-06
     mixing beta               =       0.7000
     number of iterations used =            8  local-TF  mixing
     energy convergence thresh.=      1.0E-04
     force convergence thresh. =      1.0E-02
     Exchange-correlation= RVV10
                           (   1   4  13   4  26   0   0)
     nstep                     =          200


     celldm(1)=  17.870686  celldm(2)=   0.000000  celldm(3)=   0.000000
     celldm(4)=   0.000000  celldm(5)=   0.000000  celldm(6)=   0.000000

     crystal axes: (cart. coord. in units of alat)
               a(1) = (   1.000000   0.000000   0.000000 )  
               a(2) = (   0.000000   1.155671   0.000000 )  
               a(3) = (   0.000000   0.000000   2.643601 )  

     reciprocal axes: (cart. coord. in units 2 pi/alat)
               b(1) = (  1.000000  0.000000  0.000000 )  
               b(2) = (  0.000000  0.865298  0.000000 )  
               b(3) = (  0.000000  0.000000  0.378272 )  


     PseudoPot. # 1 for Mo read from file:
     ../pseudo/Mo_ONCV_PBE-1.0.oncvpsp.upf
     MD5 check sum: 1b5d28e075c9ccadda658a603575cd1f
     Pseudo is Norm-conserving, Zval = 14.0
     Generated using ONCVPSP code by D. R. Hamann
     Using radial grid of 1526 points,  6 beta functions with: 
                l(1) =   0
                l(2) =   0
                l(3) =   1
                l(4) =   1
                l(5) =   2
                l(6) =   2

     PseudoPot. # 2 for S  read from file:
     ../pseudo/s_pbe_v1.4.uspp.F.UPF
     MD5 check sum: 88d86576ff6df21479756cfb9bdac1df
     Pseudo is Ultrasoft + core correction, Zval =  6.0
     Generated by new atomic code, or converted to UPF format
     Using radial grid of  907 points,  6 beta functions with: 
                l(1) =   0
                l(2) =   0
                l(3) =   1
                l(4) =   1
                l(5) =   2
                l(6) =   2
     Q(r) pseudized with  8 coefficients,  rinner =    1.300   1.300   1.300
                                                       1.300   1.300

     PseudoPot. # 3 for O  read from file:
     ../pseudo/O.pbe-n-kjpaw_psl.0.1.UPF
     MD5 check sum: 0234752ac141de4415c5fc33072bef88
     Pseudo is Projector augmented-wave + core cor, Zval =  6.0
     Generated using "atomic" code by A. Dal Corso  v.5.0.99 svn rev. 10869
     Shape of augmentation charge: BESSEL
     Using radial grid of 1095 points,  4 beta functions with: 
                l(1) =   0
                l(2) =   0
                l(3) =   1
                l(4) =   1
     Q(r) pseudized with 0 coefficients 


     atomic species   valence    mass     pseudopotential
        Mo            14.00    95.94000     Mo( 1.00)
        S              6.00    32.06500     S ( 1.00)
        O              6.00    15.99940     O ( 1.00)

     No symmetry found



   Cartesian axes

     site n.     atom                  positions (alat units)
         1           Mo  tau(   1) = (   0.6952221   0.1890506   0.2985846  )
         2           S   tau(   2) = (   0.8646417   0.0856217   0.4689279  )
         3           S   tau(   3) = (   0.8663890   0.0857843   0.1351291  )
         4           Mo  tau(   4) = (   0.8560186   0.4753274   0.2873942  )
         5           S   tau(   5) = (   0.6873294   0.3936244   0.4596353  )
         6           S   tau(   6) = (   0.6929804   0.3713468   0.1185692  )
         7           Mo  tau(   7) = (   0.6862796   0.7633098   0.2825370  )
         8           S   tau(   8) = (   0.8545980   0.6708292   0.4486168  )
         9           S   tau(   9) = (   0.8545123   0.6666874   0.1146125  )
        10           Mo  tau(  10) = (   0.8629403   1.0471007   0.3006803  )
        11           S   tau(  11) = (   0.6868280   0.9456650   0.4634891  )
        12           S   tau(  12) = (   0.6998113   0.9568511   0.1205389  )
        13           Mo  tau(  13) = (   0.3618216   0.1847309   0.2935964  )
        14           S   tau(  14) = (   0.5260962   0.0863870   0.4600448  )
        15           S   tau(  15) = (   0.5348379   0.0894875   0.1297123  )
        16           Mo  tau(  16) = (   0.5265817   0.4772436   0.2784130  )
        17           S   tau(  17) = (   0.3624753   0.3882513   0.4525556  )
        18           S   tau(  18) = (   0.3635411   0.3752055   0.1119148  )
        19           Mo  tau(  19) = (   0.3652268   0.7630864   0.2781795  )
        20           S   tau(  20) = (   0.5269494   0.6690381   0.1096838  )
        21           Mo  tau(  21) = (   0.5300192   1.0470394   0.2900995  )
        22           S   tau(  22) = (   0.3670346   0.9457522   0.4574073  )
        23           S   tau(  23) = (   0.3604225   0.9585725   0.1159032  )
        24           Mo  tau(  24) = (   0.0313099   0.1847895   0.3013130  )
        25           S   tau(  25) = (   0.1956761   0.0838230   0.4650863  )
        26           S   tau(  26) = (   0.1967693   0.0903508   0.1278874  )
        27           Mo  tau(  27) = (   0.1967578   0.4753919   0.2813011  )
        28           S   tau(  28) = (   0.0287851   0.3864324   0.4586755  )
        29           S   tau(  29) = (   0.0244514   0.3729871   0.1239344  )
        30           Mo  tau(  30) = (   0.0286728   0.7631204   0.2856894  )
        31           S   tau(  31) = (   0.2011512   0.6675435   0.4465001  )
        32           S   tau(  32) = (   0.1969214   0.6672839   0.1104564  )
        33           Mo  tau(  33) = (   0.1950294   1.0511147   0.2932237  )
        34           S   tau(  34) = (   0.0312912   0.9612169   0.4667423  )
        35           S   tau(  35) = (   0.0292670   0.9563028   0.1216485  )
        36           O   tau(  36) = (   0.5555556   0.1284079   0.5575849  )

     number of k points=     1  Gaussian smearing, width (Ry)=  0.0100
                       cart. coord. in units 2pi/alat
        k(    1) = (   0.0000000   0.0000000   0.0000000), wk =   2.0000000

     Dense  grid:  2439793 G-vectors     FFT dimensions: ( 150, 180, 384)

     Smooth grid:   842757 G-vectors     FFT dimensions: ( 108, 120, 270)

     Estimated max dynamical RAM per process >     269.22 MB

     Estimated total dynamical RAM >      12.62 GB

     Initial potential from superposition of free atoms

     starting charge     311.9873, renormalised to     312.0000

     negative rho (up, down):  2.742E-04 0.000E+00


---------------------------------------------------------------------------------
Carrying out rVV10 run using the following parameters:
Nqs =      20    Nr_points =    1024   r_max =   100.000
b_value =  6.30000    beta =  0.00901
     q_mesh =  0.00010000  0.00030000  0.00058939  0.00100810
               0.00161396  0.00249058  0.00375900  0.00559430
               0.00824984  0.01209221  0.01765183  0.02569619
               0.03733578  0.05417739  0.07854596  0.11380545
               0.16482331  0.23864234  0.34545298  0.50000000

Gradients computed in Reciprocal space

---------------------------------------------------------------------------------


     Starting wfcs are  216 randomized atomic wfcs
     Checking if some PAW data can be deallocated... 

     total cpu time spent up to now is       19.1 secs

     Self-consistent Calculation

     iteration #  1     ecut=    80.00 Ry     beta= 0.70
     Davidson diagonalization with overlap
     ethr =  1.00E-02,  avg # of iterations =  3.0

     Threshold (ethr) on eigenvalues was too large:
     Diagonalizing with lowered threshold

     Davidson diagonalization with overlap
     ethr =  5.88E-04,  avg # of iterations =  2.0

     negative rho (up, down):  3.270E-08 0.000E+00

     total cpu time spent up to now is      991.6 secs

     total energy              =   -2245.24361305 Ry
     estimated scf accuracy    <       2.08214090 Ry

     iteration #  2     ecut=    80.00 Ry     beta= 0.70
     Davidson diagonalization with overlap
     ethr =  6.67E-04,  avg # of iterations =  4.0

     total cpu time spent up to now is     1109.5 secs

     total energy              =   -2245.24475177 Ry
     estimated scf accuracy    <       0.61253446 Ry

     iteration #  3     ecut=    80.00 Ry     beta= 0.70
     Davidson diagonalization with overlap
     ethr =  1.96E-04,  avg # of iterations =  3.0

     total cpu time spent up to now is     1167.3 secs

     total energy              =   -2245.26058327 Ry
     estimated scf accuracy    <       0.11777757 Ry

     iteration #  4     ecut=    80.00 Ry     beta= 0.70
     Davidson diagonalization with overlap
     ethr =  3.77E-05,  avg # of iterations =  8.0

     total cpu time spent up to now is     1218.0 secs

     total energy              =   -2245.26508539 Ry
     estimated scf accuracy    <       0.05335417 Ry

     iteration #  5     ecut=    80.00 Ry     beta= 0.70
     Davidson diagonalization with overlap
     ethr =  1.71E-05,  avg # of iterations =  5.0

     total cpu time spent up to now is     1260.4 secs

     total energy              =   -2245.27665878 Ry
     estimated scf accuracy    <       0.02348200 Ry

     iteration #  6     ecut=    80.00 Ry     beta= 0.70
     Davidson diagonalization with overlap
     ethr =  7.53E-06,  avg # of iterations =  5.0

     total cpu time spent up to now is     1301.4 secs

     total energy              =   -2245.28709263 Ry
     estimated scf accuracy    <       0.01985888 Ry

     iteration #  7     ecut=    80.00 Ry     beta= 0.70
     Davidson diagonalization with overlap
     ethr =  6.37E-06,  avg # of iterations =  3.0

     total cpu time spent up to now is     1412.6 secs

     total energy              =   -2245.28183731 Ry
     estimated scf accuracy    <       0.00887493 Ry

     iteration #  8     ecut=    80.00 Ry     beta= 0.70
     Davidson diagonalization with overlap
     c_bands:  1 eigenvalues not converged
     ethr =  2.84E-06,  avg # of iterations = 20.0

     negative rho (up, down):  3.520E-05 0.000E+00

     total cpu time spent up to now is     1729.1 secs

     total energy              =   -2245.28402039 Ry
     estimated scf accuracy    <       0.01633885 Ry

     iteration #  9     ecut=    80.00 Ry     beta= 0.70
     Davidson diagonalization with overlap
     ethr =  2.84E-06,  avg # of iterations =  9.0

     negative rho (up, down):  2.599E-02 0.000E+00

     total cpu time spent up to now is     1956.7 secs

     total energy              =   -2245.27003627 Ry
     estimated scf accuracy    <       0.00614794 Ry

     iteration # 10     ecut=    80.00 Ry     beta= 0.70
     Davidson diagonalization with overlap
     ethr =  1.97E-06,  avg # of iterations =  5.0

     negative rho (up, down):  2.622E-02 0.000E+00

     total cpu time spent up to now is     2174.2 secs

     total energy              =   -2245.28214242 Ry
     estimated scf accuracy    <       0.00389619 Ry

     iteration # 11     ecut=    80.00 Ry     beta= 0.70
     Davidson diagonalization with overlap
     ethr =  1.25E-06,  avg # of iterations =  5.0

     negative rho (up, down):  2.226E-02 0.000E+00

     total cpu time spent up to now is     2345.9 secs

     total energy              =   -2245.26449572 Ry
     estimated scf accuracy    <       0.02662562 Ry

     iteration # 12     ecut=    80.00 Ry     beta= 0.70
     Davidson diagonalization with overlap
     ethr =  1.25E-06,  avg # of iterations =  6.0

     negative rho (up, down):  1.730E-02 0.000E+00

     total cpu time spent up to now is     2547.6 secs

     total energy              =   -2245.27656476 Ry
     estimated scf accuracy    <       0.00127805 Ry

     iteration # 13     ecut=    80.00 Ry     beta= 0.70
     Davidson diagonalization with overlap
     ethr =  4.10E-07,  avg # of iterations =  6.0

     negative rho (up, down):  5.218E-03 0.000E+00

     total cpu time spent up to now is     2882.9 secs

     total energy              =   -2245.28457606 Ry
     estimated scf accuracy    <       0.00529932 Ry

     iteration # 14     ecut=    80.00 Ry     beta= 0.70
     Davidson diagonalization with overlap
     ethr =  4.10E-07,  avg # of iterations =  4.0

     negative rho (up, down):  5.791E-04 0.000E+00

     total cpu time spent up to now is     3350.5 secs

     total energy              =   -2245.28463431 Ry
     estimated scf accuracy    <       0.00087988 Ry

     iteration # 15     ecut=    80.00 Ry     beta= 0.70
     Davidson diagonalization with overlap
     ethr =  2.82E-07,  avg # of iterations =  4.0

     negative rho (up, down):  2.307E-04 0.000E+00

     total cpu time spent up to now is     3788.4 secs

     total energy              =   -2245.28430671 Ry
     estimated scf accuracy    <       0.00003411 Ry

     iteration # 16     ecut=    80.00 Ry     beta= 0.70
     Davidson diagonalization with overlap
     ethr =  1.09E-08,  avg # of iterations = 12.0

     negative rho (up, down):  3.829E-04 0.000E+00

     total cpu time spent up to now is     4278.0 secs

     total energy              =   -2245.30511594 Ry
     estimated scf accuracy    <       0.01375770 Ry

     iteration # 17     ecut=    80.00 Ry     beta= 0.70
     Davidson diagonalization with overlap
     c_bands:  3 eigenvalues not converged
     ethr =  1.09E-08,  avg # of iterations = 20.0

     negative rho (up, down):  8.908E-04 0.000E+00

     total cpu time spent up to now is     4913.4 secs

     total energy              =   -2243.44933238 Ry
     estimated scf accuracy    <       5.08699701 Ry

     iteration # 18     ecut=    80.00 Ry     beta= 0.70
     Davidson diagonalization with overlap
     c_bands:  3 eigenvalues not converged
     ethr =  1.09E-08,  avg # of iterations = 20.0

     negative rho (up, down):  3.102E-04 0.000E+00

     total cpu time spent up to now is     5515.3 secs

     total energy              =   -2245.28286359 Ry
     estimated scf accuracy    <       0.00010627 Ry

     iteration # 19     ecut=    80.00 Ry     beta= 0.70
     Davidson diagonalization with overlap
     ethr =  1.09E-08,  avg # of iterations = 12.0

     negative rho (up, down):  3.535E-04 0.000E+00

     total cpu time spent up to now is     6936.9 secs

     total energy              =   -2245.29152276 Ry
     estimated scf accuracy    <       0.01115682 Ry

     iteration # 20     ecut=    80.00 Ry     beta= 0.70
     Davidson diagonalization with overlap
     ethr =  1.09E-08,  avg # of iterations =  6.0

     negative rho (up, down):  3.276E-04 0.000E+00

     total cpu time spent up to now is     7354.1 secs

     total energy              =   -2245.29058147 Ry
     estimated scf accuracy    <       0.00856410 Ry

     iteration # 21     ecut=    80.00 Ry     beta= 0.70
     Davidson diagonalization with overlap
     ethr =  1.09E-08,  avg # of iterations =  4.0

     negative rho (up, down):  3.838E-04 0.000E+00

     total cpu time spent up to now is     7774.6 secs

     total energy              =   -2245.28875206 Ry
     estimated scf accuracy    <       0.00753371 Ry

     iteration # 22     ecut=    80.00 Ry     beta= 0.70
     Davidson diagonalization with overlap
     ethr =  1.09E-08,  avg # of iterations =  6.0

     negative rho (up, down):  3.488E-04 0.000E+00

     total cpu time spent up to now is     8258.9 secs

     total energy              =   -2245.29131169 Ry
     estimated scf accuracy    <       0.00568722 Ry

     iteration # 23     ecut=    80.00 Ry     beta= 0.70
     Davidson diagonalization with overlap
     c_bands:  1 eigenvalues not converged
     ethr =  1.09E-08,  avg # of iterations = 20.0

     negative rho (up, down):  8.760E-04 0.000E+00

     total cpu time spent up to now is     8706.8 secs

     total energy              =   -2243.44742880 Ry
     estimated scf accuracy    <       4.86742694 Ry

     iteration # 24     ecut=    80.00 Ry     beta= 0.70
     Davidson diagonalization with overlap
     c_bands:  4 eigenvalues not converged
     ethr =  1.09E-08,  avg # of iterations = 20.0

     negative rho (up, down):  3.721E-04 0.000E+00

     total cpu time spent up to now is     9557.0 secs

     total energy              =   -2245.28550840 Ry
     estimated scf accuracy    <       0.00282649 Ry

     iteration # 25     ecut=    80.00 Ry     beta= 0.70
     Davidson diagonalization with overlap
     ethr =  1.09E-08,  avg # of iterations = 10.0

     negative rho (up, down):  2.990E-04 0.000E+00

     total cpu time spent up to now is    10431.3 secs

     total energy              =   -2245.28521357 Ry
     estimated scf accuracy    <       0.00252925 Ry

     iteration # 26     ecut=    80.00 Ry     beta= 0.70
     Davidson diagonalization with overlap
     ethr =  1.09E-08,  avg # of iterations =  5.0

     negative rho (up, down):  2.837E-04 0.000E+00

     total cpu time spent up to now is    10967.8 secs

     total energy              =   -2245.28511287 Ry
     estimated scf accuracy    <       0.00160501 Ry

     iteration # 27     ecut=    80.00 Ry     beta= 0.70
     Davidson diagonalization with overlap
     ethr =  1.09E-08,  avg # of iterations =  4.0

     negative rho (up, down):  2.568E-04 0.000E+00

     total cpu time spent up to now is    11512.7 secs

     total energy              =   -2245.28499895 Ry
     estimated scf accuracy    <       0.00122742 Ry

     iteration # 28     ecut=    80.00 Ry     beta= 0.70
     Davidson diagonalization with overlap
     ethr =  1.09E-08,  avg # of iterations =  5.0

     negative rho (up, down):  2.569E-04 0.000E+00

     total cpu time spent up to now is    12042.9 secs

     total energy              =   -2245.28500490 Ry
     estimated scf accuracy    <       0.00085087 Ry

     iteration # 29     ecut=    80.00 Ry     beta= 0.70
     Davidson diagonalization with overlap
     ethr =  1.09E-08,  avg # of iterations =  1.0

     negative rho (up, down):  2.504E-04 0.000E+00

     total cpu time spent up to now is    12420.5 secs

     total energy              =   -2245.28491853 Ry
     estimated scf accuracy    <       0.00084955 Ry

     iteration # 30     ecut=    80.00 Ry     beta= 0.70
     Davidson diagonalization with overlap
     ethr =  1.09E-08,  avg # of iterations =  4.0

     negative rho (up, down):  2.443E-04 0.000E+00

     total cpu time spent up to now is    13086.6 secs

     total energy              =   -2245.28484580 Ry
     estimated scf accuracy    <       0.00058208 Ry

     iteration # 31     ecut=    80.00 Ry     beta= 0.70
     Davidson diagonalization with overlap
     ethr =  1.09E-08,  avg # of iterations =  5.0

     negative rho (up, down):  2.429E-04 0.000E+00

     total cpu time spent up to now is    13475.1 secs

     total energy              =   -2245.28469420 Ry
     estimated scf accuracy    <       0.00034123 Ry

     iteration # 32     ecut=    80.00 Ry     beta= 0.70
     Davidson diagonalization with overlap
     ethr =  1.09E-08,  avg # of iterations =  6.0

     negative rho (up, down):  3.053E-04 0.000E+00

     total cpu time spent up to now is    13826.0 secs

     total energy              =   -2245.28472271 Ry
     estimated scf accuracy    <       0.00000201 Ry

     iteration # 33     ecut=    80.00 Ry     beta= 0.70
     Davidson diagonalization with overlap
     ethr =  6.46E-10,  avg # of iterations = 14.0

     negative rho (up, down):  3.495E-04 0.000E+00

     total cpu time spent up to now is    14668.5 secs

     total energy              =   -2245.30398409 Ry
     estimated scf accuracy    <       0.01365973 Ry

     iteration # 34     ecut=    80.00 Ry     beta= 0.70
     Davidson diagonalization with overlap
     ethr =  6.46E-10,  avg # of iterations = 14.0

     negative rho (up, down):  3.115E-04 0.000E+00

     total cpu time spent up to now is    15236.7 secs

     total energy              =   -2245.27708754 Ry
     estimated scf accuracy    <       0.02610686 Ry

     iteration # 35     ecut=    80.00 Ry     beta= 0.70
     Davidson diagonalization with overlap
     ethr =  6.46E-10,  avg # of iterations = 16.0

     negative rho (up, down):  3.932E-04 0.000E+00

     total cpu time spent up to now is    15849.4 secs

     total energy              =   -2245.28697039 Ry
     estimated scf accuracy    <       0.00460394 Ry

     iteration # 36     ecut=    80.00 Ry     beta= 0.70
     Davidson diagonalization with overlap
     ethr =  6.46E-10,  avg # of iterations = 11.0

     negative rho (up, down):  3.014E-04 0.000E+00

     total cpu time spent up to now is    16730.3 secs

     total energy              =   -2245.28621009 Ry
     estimated scf accuracy    <       0.00762388 Ry

     iteration # 37     ecut=    80.00 Ry     beta= 0.70
     Davidson diagonalization with overlap
     ethr =  6.46E-10,  avg # of iterations = 10.0

     negative rho (up, down):  2.611E-04 0.000E+00

     total cpu time spent up to now is    17210.2 secs

     total energy              =   -2245.28620313 Ry
     estimated scf accuracy    <       0.00502296 Ry

     iteration # 38     ecut=    80.00 Ry     beta= 0.70
     Davidson diagonalization with overlap
     ethr =  6.46E-10,  avg # of iterations =  4.0

     negative rho (up, down):  2.870E-04 0.000E+00

     total cpu time spent up to now is    17964.2 secs

     total energy              =   -2245.28569373 Ry
     estimated scf accuracy    <       0.00483452 Ry

     iteration # 39     ecut=    80.00 Ry     beta= 0.70
     Davidson diagonalization with overlap
     ethr =  6.46E-10,  avg # of iterations = 10.0
srun: Job step aborted: Waiting up to 32 seconds for job step to finish.
slurmstepd: error: *** STEP 650816.0 ON cpu104 CANCELLED AT 2023-11-02T15:41:22 ***
