
     Program PWSCF v.7.2 starts on  1Nov2023 at 15:21:20 

     This program is part of the open-source Quantum ESPRESSO suite
     for quantum simulation of materials; please cite
         "P. Giannozzi et al., J. Phys.:Condens. Matter 21 395502 (2009);
         "P. Giannozzi et al., J. Phys.:Condens. Matter 29 465901 (2017);
         "P. Giannozzi et al., J. Chem. Phys. 152 154105 (2020);
          URL http://www.quantum-espresso.org", 
     in publications or presentations arising from this work. More details at
     http://www.quantum-espresso.org/quote

     Parallel version (MPI & OpenMP), running on      48 processor cores
     Number of MPI processes:                48
     Threads/MPI process:                     1

     MPI processes distributed on     1 nodes
     60927 MiB available memory on the printing compute node when the environment starts
 
     Waiting for input...
     Reading input from standard input
Warning: card &CELL ignored
Warning: card CELL_DYNAMICS = 'BFGS', ignored
Warning: card CELL_DOFREE = '2DXY' ignored
Warning: card / ignored

     Current dimensions of program PWSCF are:
     Max number of different atomic species (ntypx) = 10
     Max number of k-points (npk) =  40000
     Max angular momentum in pseudopotentials (lmaxx) =  4
     file O.pbe-n-kjpaw_psl.0.1.UPF: wavefunction(s)  2P renormalized

     IMPORTANT: XC functional enforced from input :
     Exchange-correlation= RVV10
                           (   1   4  13   4  26   0   0)
     Any further DFT definition will be discarded
     Please, verify this is what you really want


     gamma-point specific algorithms are used
     signal trapping enabled: kill the code with -SIGUSR1 to stop cleanly the simulation 
 
     R & G space division:  proc/nbgrp/npool/nimage =      48
     Subspace diagonalization in iterative solution of the eigenvalue problem:
     one sub-group per band group will be used
     scalapack distributed-memory algorithm (size of sub-group:  2*  2 procs)

 
     Parallelization info
     --------------------
     sticks:   dense  smooth     PW     G-vecs:    dense   smooth      PW
     Min         396     194     47               101632    35090    4376
     Max         398     196     50               101674    35128    4410
     Sum       19091    9389   2349              4879585  1685513  210763
 
     Using Slab Decomposition
 


     bravais-lattice index     =            0
     lattice parameter (alat)  =      17.8707  a.u.
     unit-cell volume          =   17436.2743 (a.u.)^3
     number of atoms/cell      =           36
     number of atomic types    =            3
     number of electrons       =       312.00
     number of Kohn-Sham states=          187
     kinetic-energy cutoff     =      80.0000  Ry
     charge density cutoff     =     650.0000  Ry
     scf convergence threshold =      1.0E-06
     mixing beta               =       0.7000
     number of iterations used =            8  local-TF  mixing
     energy convergence thresh.=      1.0E-04
     force convergence thresh. =      1.0E-02
     Exchange-correlation= RVV10
                           (   1   4  13   4  26   0   0)
     nstep                     =          200


     celldm(1)=  17.870686  celldm(2)=   0.000000  celldm(3)=   0.000000
     celldm(4)=   0.000000  celldm(5)=   0.000000  celldm(6)=   0.000000

     crystal axes: (cart. coord. in units of alat)
               a(1) = (   1.000000   0.000000   0.000000 )  
               a(2) = (   0.000000   1.155671   0.000000 )  
               a(3) = (   0.000000   0.000000   2.643601 )  

     reciprocal axes: (cart. coord. in units 2 pi/alat)
               b(1) = (  1.000000  0.000000  0.000000 )  
               b(2) = (  0.000000  0.865298  0.000000 )  
               b(3) = (  0.000000  0.000000  0.378272 )  


     PseudoPot. # 1 for Mo read from file:
     ../pseudo/Mo_ONCV_PBE-1.0.oncvpsp.upf
     MD5 check sum: 1b5d28e075c9ccadda658a603575cd1f
     Pseudo is Norm-conserving, Zval = 14.0
     Generated using ONCVPSP code by D. R. Hamann
     Using radial grid of 1526 points,  6 beta functions with: 
                l(1) =   0
                l(2) =   0
                l(3) =   1
                l(4) =   1
                l(5) =   2
                l(6) =   2

     PseudoPot. # 2 for S  read from file:
     ../pseudo/s_pbe_v1.4.uspp.F.UPF
     MD5 check sum: 88d86576ff6df21479756cfb9bdac1df
     Pseudo is Ultrasoft + core correction, Zval =  6.0
     Generated by new atomic code, or converted to UPF format
     Using radial grid of  907 points,  6 beta functions with: 
                l(1) =   0
                l(2) =   0
                l(3) =   1
                l(4) =   1
                l(5) =   2
                l(6) =   2
     Q(r) pseudized with  8 coefficients,  rinner =    1.300   1.300   1.300
                                                       1.300   1.300

     PseudoPot. # 3 for O  read from file:
     ../pseudo/O.pbe-n-kjpaw_psl.0.1.UPF
     MD5 check sum: 0234752ac141de4415c5fc33072bef88
     Pseudo is Projector augmented-wave + core cor, Zval =  6.0
     Generated using "atomic" code by A. Dal Corso  v.5.0.99 svn rev. 10869
     Shape of augmentation charge: BESSEL
     Using radial grid of 1095 points,  4 beta functions with: 
                l(1) =   0
                l(2) =   0
                l(3) =   1
                l(4) =   1
     Q(r) pseudized with 0 coefficients 


     atomic species   valence    mass     pseudopotential
        Mo            14.00    95.94000     Mo( 1.00)
        S              6.00    32.06500     S ( 1.00)
        O              6.00    15.99940     O ( 1.00)

     No symmetry found



   Cartesian axes

     site n.     atom                  positions (alat units)
         1           Mo  tau(   1) = (   0.6952221   0.1890506   0.2985846  )
         2           S   tau(   2) = (   0.8646417   0.0856217   0.4689279  )
         3           S   tau(   3) = (   0.8663890   0.0857843   0.1351291  )
         4           Mo  tau(   4) = (   0.8560186   0.4753274   0.2873942  )
         5           S   tau(   5) = (   0.6873294   0.3936244   0.4596353  )
         6           S   tau(   6) = (   0.6929804   0.3713468   0.1185692  )
         7           Mo  tau(   7) = (   0.6862796   0.7633098   0.2825370  )
         8           S   tau(   8) = (   0.8545980   0.6708292   0.4486168  )
         9           S   tau(   9) = (   0.8545123   0.6666874   0.1146125  )
        10           Mo  tau(  10) = (   0.8629403   1.0471007   0.3006803  )
        11           S   tau(  11) = (   0.6868280   0.9456650   0.4634891  )
        12           S   tau(  12) = (   0.6998113   0.9568511   0.1205389  )
        13           Mo  tau(  13) = (   0.3618216   0.1847309   0.2935964  )
        14           S   tau(  14) = (   0.5260962   0.0863870   0.4600448  )
        15           S   tau(  15) = (   0.5348379   0.0894875   0.1297123  )
        16           Mo  tau(  16) = (   0.5265817   0.4772436   0.2784130  )
        17           S   tau(  17) = (   0.3624753   0.3882513   0.4525556  )
        18           S   tau(  18) = (   0.3635411   0.3752055   0.1119148  )
        19           Mo  tau(  19) = (   0.3652268   0.7630864   0.2781795  )
        20           S   tau(  20) = (   0.5269494   0.6690381   0.1096838  )
        21           Mo  tau(  21) = (   0.5300192   1.0470394   0.2900995  )
        22           S   tau(  22) = (   0.3670346   0.9457522   0.4574073  )
        23           S   tau(  23) = (   0.3604225   0.9585725   0.1159032  )
        24           Mo  tau(  24) = (   0.0313099   0.1847895   0.3013130  )
        25           S   tau(  25) = (   0.1956761   0.0838230   0.4650863  )
        26           S   tau(  26) = (   0.1967693   0.0903508   0.1278874  )
        27           Mo  tau(  27) = (   0.1967578   0.4753919   0.2813011  )
        28           S   tau(  28) = (   0.0287851   0.3864324   0.4586755  )
        29           S   tau(  29) = (   0.0244514   0.3729871   0.1239344  )
        30           Mo  tau(  30) = (   0.0286728   0.7631204   0.2856894  )
        31           S   tau(  31) = (   0.2011512   0.6675435   0.4465001  )
        32           S   tau(  32) = (   0.1969214   0.6672839   0.1104564  )
        33           Mo  tau(  33) = (   0.1950294   1.0511147   0.2932237  )
        34           S   tau(  34) = (   0.0312912   0.9612169   0.4667423  )
        35           S   tau(  35) = (   0.0292670   0.9563028   0.1216485  )
        36           O   tau(  36) = (   0.4444444   0.3852236   0.5650415  )

     number of k points=     1  Gaussian smearing, width (Ry)=  0.0100
                       cart. coord. in units 2pi/alat
        k(    1) = (   0.0000000   0.0000000   0.0000000), wk =   2.0000000

     Dense  grid:  2439793 G-vectors     FFT dimensions: ( 150, 180, 384)

     Smooth grid:   842757 G-vectors     FFT dimensions: ( 108, 120, 270)

     Estimated max dynamical RAM per process >     269.22 MB

     Estimated total dynamical RAM >      12.62 GB

     Initial potential from superposition of free atoms

     starting charge     311.9873, renormalised to     312.0000

     negative rho (up, down):  2.740E-04 0.000E+00


---------------------------------------------------------------------------------
Carrying out rVV10 run using the following parameters:
Nqs =      20    Nr_points =    1024   r_max =   100.000
b_value =  6.30000    beta =  0.00901
     q_mesh =  0.00010000  0.00030000  0.00058939  0.00100810
               0.00161396  0.00249058  0.00375900  0.00559430
               0.00824984  0.01209221  0.01765183  0.02569619
               0.03733578  0.05417739  0.07854596  0.11380545
               0.16482331  0.23864234  0.34545298  0.50000000

Gradients computed in Reciprocal space

---------------------------------------------------------------------------------


     Starting wfcs are  216 randomized atomic wfcs
     Checking if some PAW data can be deallocated... 

     total cpu time spent up to now is        5.5 secs

     Self-consistent Calculation

     iteration #  1     ecut=    80.00 Ry     beta= 0.70
     Davidson diagonalization with overlap
     ethr =  1.00E-02,  avg # of iterations =  2.0

     Threshold (ethr) on eigenvalues was too large:
     Diagonalizing with lowered threshold

     Davidson diagonalization with overlap
     ethr =  4.52E-04,  avg # of iterations =  4.0

     negative rho (up, down):  4.694E-08 0.000E+00

     total cpu time spent up to now is       22.2 secs

     total energy              =   -2246.21990003 Ry
     estimated scf accuracy    <       1.65613623 Ry

     iteration #  2     ecut=    80.00 Ry     beta= 0.70
     Davidson diagonalization with overlap
     ethr =  5.31E-04,  avg # of iterations =  3.0

     total cpu time spent up to now is       26.8 secs

     total energy              =   -2246.20723122 Ry
     estimated scf accuracy    <       0.56569938 Ry

     iteration #  3     ecut=    80.00 Ry     beta= 0.70
     Davidson diagonalization with overlap
     ethr =  1.81E-04,  avg # of iterations =  2.0

     total cpu time spent up to now is       30.9 secs

     total energy              =   -2246.22375875 Ry
     estimated scf accuracy    <       0.11237997 Ry

     iteration #  4     ecut=    80.00 Ry     beta= 0.70
     Davidson diagonalization with overlap
     ethr =  3.60E-05,  avg # of iterations = 16.0

     total cpu time spent up to now is       35.9 secs

     total energy              =   -2246.24096059 Ry
     estimated scf accuracy    <       0.02324712 Ry

     iteration #  5     ecut=    80.00 Ry     beta= 0.70
     Davidson diagonalization with overlap
     ethr =  7.45E-06,  avg # of iterations =  2.0

     total cpu time spent up to now is       40.0 secs

     total energy              =   -2246.24021327 Ry
     estimated scf accuracy    <       0.01472279 Ry

     iteration #  6     ecut=    80.00 Ry     beta= 0.70
     Davidson diagonalization with overlap
     ethr =  4.72E-06,  avg # of iterations =  2.0

     total cpu time spent up to now is       43.8 secs

     total energy              =   -2246.23916098 Ry
     estimated scf accuracy    <       0.00941132 Ry

     iteration #  7     ecut=    80.00 Ry     beta= 0.70
     Davidson diagonalization with overlap
     ethr =  3.02E-06,  avg # of iterations =  9.0

     negative rho (up, down):  4.677E-06 0.000E+00

     total cpu time spent up to now is       50.8 secs

     total energy              =   -2246.23827191 Ry
     estimated scf accuracy    <       0.00533724 Ry

     iteration #  8     ecut=    80.00 Ry     beta= 0.70
     Davidson diagonalization with overlap
     ethr =  1.71E-06,  avg # of iterations =  2.0

     negative rho (up, down):  1.760E-02 0.000E+00

     total cpu time spent up to now is       56.9 secs

     total energy              =   -2246.23763331 Ry
     estimated scf accuracy    <       0.00308166 Ry

     iteration #  9     ecut=    80.00 Ry     beta= 0.70
     Davidson diagonalization with overlap
     ethr =  9.88E-07,  avg # of iterations =  2.0

     negative rho (up, down):  2.926E-02 0.000E+00

     total cpu time spent up to now is       62.7 secs

     total energy              =   -2246.23755105 Ry
     estimated scf accuracy    <       0.00156581 Ry

     iteration # 10     ecut=    80.00 Ry     beta= 0.70
     Davidson diagonalization with overlap
     ethr =  5.02E-07,  avg # of iterations =  2.0

     negative rho (up, down):  2.057E-02 0.000E+00

     total cpu time spent up to now is       69.3 secs

     total energy              =   -2246.23757129 Ry
     estimated scf accuracy    <       0.00045626 Ry

     iteration # 11     ecut=    80.00 Ry     beta= 0.70
     Davidson diagonalization with overlap
     ethr =  1.46E-07,  avg # of iterations =  5.0

     negative rho (up, down):  9.063E-03 0.000E+00

     total cpu time spent up to now is       77.7 secs

     total energy              =   -2246.23757387 Ry
     estimated scf accuracy    <       0.00005597 Ry

     iteration # 12     ecut=    80.00 Ry     beta= 0.70
     Davidson diagonalization with overlap
     ethr =  1.79E-08,  avg # of iterations =  8.0

     negative rho (up, down):  2.858E-03 0.000E+00

     total cpu time spent up to now is       85.5 secs

     total energy              =   -2246.23761780 Ry
     estimated scf accuracy    <       0.00001608 Ry

     iteration # 13     ecut=    80.00 Ry     beta= 0.70
     Davidson diagonalization with overlap
     ethr =  5.15E-09,  avg # of iterations =  2.0

     negative rho (up, down):  5.062E-04 0.000E+00

     total cpu time spent up to now is       95.4 secs

     total energy              =   -2246.23762085 Ry
     estimated scf accuracy    <       0.00000365 Ry

     iteration # 14     ecut=    80.00 Ry     beta= 0.70
     Davidson diagonalization with overlap
     ethr =  1.17E-09,  avg # of iterations =  2.0

     negative rho (up, down):  2.203E-04 0.000E+00

     total cpu time spent up to now is       99.1 secs

     End of self-consistent calculation

          k = 0.0000 0.0000 0.0000 (105382 PWs)   bands (ev):

   -62.9824 -62.9253 -62.9189 -62.8932 -62.8655 -62.8572 -62.8507 -62.8475
   -62.8331 -62.8145 -62.7620 -62.6395 -37.2826 -37.2355 -37.2119 -37.1966
   -37.1759 -37.1733 -37.1396 -37.1206 -37.1109 -37.1096 -37.0983 -37.0925
   -37.0771 -37.0664 -37.0500 -37.0479 -37.0396 -37.0301 -37.0260 -37.0123
   -36.9972 -36.9884 -36.9826 -36.9674 -36.9606 -36.9478 -36.9440 -36.9292
   -36.9136 -36.8922 -36.8874 -36.8658 -36.8098 -36.7892 -36.7522 -36.6693
   -25.6033 -15.9746 -15.1815 -15.1584 -15.0037 -14.9224 -14.7992 -14.5457
   -14.4853 -14.4581 -14.4282 -14.3993 -14.3737 -14.3429 -14.2575 -14.1840
   -14.1547 -14.1291 -14.0685 -13.9306 -13.8878 -13.8764 -13.8375 -13.4390
    -9.0592  -8.8305  -8.2426  -7.6188  -7.4742  -7.3081  -7.2776  -7.2485
    -7.2168  -7.0675  -7.0511  -6.8384  -6.8014  -6.7341  -6.6728  -6.6097
    -6.5215  -6.4778  -6.4056  -6.3210  -6.2373  -6.1186  -5.9845  -5.9188
    -5.8226  -5.8071  -5.7974  -5.7464  -5.7226  -5.6682  -5.6375  -5.5991
    -5.5681  -5.4777  -5.4275  -5.3204  -5.2491  -5.1864  -5.1389  -5.0791
    -5.0367  -4.9929  -4.9193  -4.8144  -4.7344  -4.5933  -4.5068  -4.3627
    -4.3484  -4.2874  -4.2607  -4.0761  -4.0403  -4.0191  -3.9222  -3.8143
    -3.7848  -3.7477  -3.6633  -3.6264  -3.5859  -3.5472  -3.5095  -3.4937
    -3.4517  -3.4193  -3.3283  -3.2338  -3.1389  -2.9957  -2.9723  -2.8821
    -2.8426  -2.7465  -2.7269  -2.7201  -2.7046  -2.6576  -2.5663  -2.3595
    -2.3134  -2.0082  -1.9450  -1.8938  -0.9062  -0.7415  -0.5071  -0.2004
    -0.1658  -0.1116  -0.0184   0.0023   0.1328   0.1773   0.2348   0.2529
     0.3034   0.3310   0.4084   0.4446   0.5069   0.5318   0.5864   0.6342
     0.6562   0.7025   0.7140   0.7770   0.7875   0.8325   0.8758   0.9230
     1.0117   1.0504   1.2349

     the Fermi energy is    -1.3995 ev

!    total energy              =   -2246.23762137 Ry
     estimated scf accuracy    <       0.00000059 Ry
     smearing contrib. (-TS)   =      -0.00000002 Ry
     internal energy E=F+TS    =   -2246.23762134 Ry

     The total energy is F=E-TS. E is the sum of the following terms:
     one-electron contribution =  -18456.87890546 Ry
     hartree contribution      =    9216.59109605 Ry
     xc contribution           =    -392.39462777 Ry
     ewald contribution        =    7396.28872039 Ry
     one-center paw contrib.   =      -9.84390455 Ry

     convergence has been achieved in  14 iterations

     negative rho (up, down):  2.203E-04 0.000E+00

     Forces acting on atoms (cartesian axes, Ry/au):

     atom    1 type  1   force =     0.01113975   -0.02310925    0.00729722
     atom    2 type  2   force =    -0.01465201    0.01741535    0.00042974
     atom    3 type  2   force =    -0.01052008    0.00934750   -0.00430455
     atom    4 type  1   force =    -0.00128777    0.00199441   -0.00349535
     atom    5 type  2   force =     0.01904631   -0.00025845   -0.02085640
     atom    6 type  2   force =     0.00232074    0.00992282    0.00183587
     atom    7 type  1   force =     0.00590088   -0.01658918   -0.00928196
     atom    8 type  2   force =     0.00072774   -0.00382053    0.01807602
     atom    9 type  2   force =     0.01456810    0.00642117    0.01079323
     atom   10 type  1   force =    -0.01083420    0.00900447   -0.02693283
     atom   11 type  2   force =     0.00447282   -0.00189596   -0.00749608
     atom   12 type  2   force =    -0.00153538    0.00152126    0.00885136
     atom   13 type  1   force =     0.00190022   -0.00110181   -0.00969734
     atom   14 type  2   force =     0.00968027    0.00105804    0.01342447
     atom   15 type  2   force =    -0.01131108    0.00382692   -0.00939614
     atom   16 type  1   force =     0.01042450    0.02079840   -0.04512668
     atom   17 type  2   force =    -0.26806272   -0.03526566   -0.55235608
     atom   18 type  2   force =    -0.00468483   -0.00521680    0.01450011
     atom   19 type  1   force =     0.00893428   -0.00866514   -0.00578322
     atom   20 type  2   force =     0.00259618   -0.00060106    0.00160529
     atom   21 type  1   force =    -0.00580832    0.00739250    0.00034250
     atom   22 type  2   force =    -0.00168003   -0.00350783   -0.00299944
     atom   23 type  2   force =    -0.00196129    0.00220547    0.00956021
     atom   24 type  1   force =    -0.00865284   -0.00601081   -0.02019982
     atom   25 type  2   force =     0.01560537    0.01823327    0.00805301
     atom   26 type  2   force =    -0.01697187   -0.00167972   -0.00449377
     atom   27 type  1   force =    -0.00300778    0.02010277    0.03948550
     atom   28 type  2   force =    -0.00489517   -0.00338692   -0.00642714
     atom   29 type  2   force =     0.00246986   -0.00295616   -0.00492718
     atom   30 type  1   force =    -0.00326122    0.01019546   -0.00462194
     atom   31 type  2   force =    -0.00079636    0.00666997    0.01949366
     atom   32 type  2   force =    -0.00840567    0.00493161    0.00392717
     atom   33 type  1   force =     0.01170468   -0.00405563   -0.01027369
     atom   34 type  2   force =     0.00305600   -0.04350952   -0.01043726
     atom   35 type  2   force =    -0.00754610    0.00671497    0.01647372
     atom   36 type  3   force =     0.26132701    0.00387408    0.58495777
     The non-local contrib.  to forces
     atom    1 type  1   force =     0.00074444    0.03007983   -0.01348476
     atom    2 type  2   force =    -0.00559188    0.00354723   -0.27081005
     atom    3 type  2   force =    -0.01375452   -0.00136828    0.27093304
     atom    4 type  1   force =    -0.00547613    0.00715782    0.01360795
     atom    5 type  2   force =     0.04469301   -0.02562358   -0.25030769
     atom    6 type  2   force =     0.00060836    0.00752722    0.26094808
     atom    7 type  1   force =    -0.02244998    0.00282599   -0.01440078
     atom    8 type  2   force =     0.00328942   -0.00251562   -0.25613223
     atom    9 type  2   force =     0.00761241   -0.00896338    0.27949654
     atom   10 type  1   force =     0.00488229    0.00211974   -0.00188201
     atom   11 type  2   force =     0.01347066    0.00231314   -0.26185372
     atom   12 type  2   force =    -0.01285303   -0.01731407    0.26350715
     atom   13 type  1   force =    -0.01316646    0.04648674    0.00814133
     atom   14 type  2   force =     0.01350998   -0.01637339   -0.26277262
     atom   15 type  2   force =    -0.01373542   -0.00718042    0.25801143
     atom   16 type  1   force =    -0.03760518    0.00975442    0.00396941
     atom   17 type  2   force =    -0.07778578    0.02539796   -0.11047078
     atom   18 type  2   force =    -0.00654860   -0.00468369    0.27588503
     atom   19 type  1   force =     0.01287168   -0.00511801   -0.01343044
     atom   20 type  2   force =    -0.00125900   -0.01885195    0.26499918
     atom   21 type  1   force =     0.00557337    0.02150929    0.00788780
     atom   22 type  2   force =    -0.00716547    0.00362577   -0.25981260
     atom   23 type  2   force =     0.00626266   -0.01562291    0.26915393
     atom   24 type  1   force =     0.00620845    0.01095194   -0.01332887
     atom   25 type  2   force =     0.01608368    0.01293534   -0.26067000
     atom   26 type  2   force =    -0.00649941   -0.01483495    0.26246765
     atom   27 type  1   force =     0.00740700   -0.00828814    0.01529069
     atom   28 type  2   force =     0.00050229   -0.01691848   -0.27299332
     atom   29 type  2   force =     0.00581421    0.00101504    0.25991904
     atom   30 type  1   force =    -0.00327406    0.02062095    0.01151574
     atom   31 type  2   force =    -0.00295455   -0.00956264   -0.25347231
     atom   32 type  2   force =    -0.00598319   -0.01286681    0.27762799
     atom   33 type  1   force =    -0.00673927    0.00641010    0.00402111
     atom   34 type  2   force =    -0.00029522   -0.03979367   -0.27537991
     atom   35 type  2   force =    -0.00255463   -0.01228033    0.27193993
     atom   36 type  3   force =    -1.62483216    0.10978164   -1.75816701
     The ionic contribution  to forces
     atom    1 type  1   force =     1.72842309   -1.03037296    3.43168619
     atom    2 type  2   force =    -0.43025303   -0.02184995   39.04810997
     atom    3 type  2   force =    -0.09999225   -0.14363658  -36.65358485
     atom    4 type  1   force =     0.76028212    0.95078383   -0.99797419
     atom    5 type  2   force =     1.69966852    1.59507347   37.41805794
     atom    6 type  2   force =     0.59276931   -0.51965981  -38.94551179
     atom    7 type  1   force =    -2.09721349   -1.90960504    1.20016261
     atom    8 type  2   force =    -0.71483952    0.46440808   37.09514919
     atom    9 type  2   force =     0.41064320    0.11470289  -38.58499747
     atom   10 type  1   force =    -0.94241317   -0.57969687    4.76257940
     atom   11 type  2   force =    -0.38120300   -1.55126561   38.94495230
     atom   12 type  2   force =     0.50886944    0.69975534  -38.35605440
     atom   13 type  1   force =    -0.40313498   -1.27498408   -0.79208999
     atom   14 type  2   force =     0.52268213   -1.72715244   37.79628316
     atom   15 type  2   force =     0.24278344   -0.36200783  -37.60528007
     atom   16 type  1   force =     1.23638745    5.43380695   -4.71297558
     atom   17 type  2   force =    -5.95204248    1.75104189   28.49666244
     atom   18 type  2   force =    -0.29435638   -0.66497749  -39.74156769
     atom   19 type  1   force =     2.44505179   -1.21947925   -1.04092179
     atom   20 type  2   force =     0.30159715    0.07410004  -39.27563164
     atom   21 type  1   force =     0.21886398   -0.47458114   -0.05501587
     atom   22 type  2   force =     0.36828190   -1.63901929   38.19162978
     atom   23 type  2   force =    -0.12009100    0.67214441  -38.83291045
     atom   24 type  1   force =    -1.08116532    0.46292610    4.41437159
     atom   25 type  2   force =     0.01316594   -0.59487546   38.87189043
     atom   26 type  2   force =    -0.43279577   -0.15709067  -38.01301842
     atom   27 type  1   force =    -1.68808295    1.14657673   -5.13625360
     atom   28 type  2   force =    -0.53982068    1.00998651   37.79348249
     atom   29 type  2   force =    -0.37240322   -0.43907518  -37.96970326
     atom   30 type  1   force =    -0.57723270   -0.35039974   -1.11366804
     atom   31 type  2   force =     0.52035658    0.86555531   36.81666757
     atom   32 type  2   force =    -0.61672353    0.19951972  -39.31761480
     atom   33 type  1   force =     0.45660260   -1.25744602    1.00107962
     atom   34 type  2   force =     0.15021669   -1.43657602   39.19548233
     atom   35 type  2   force =    -0.33373263    0.48393148  -38.28085098
     atom   36 type  3   force =     4.90085079    1.42943866   50.94737788
     The local contribution  to forces
     atom    1 type  1   force =    -1.71828773    0.97745420   -3.41151575
     atom    2 type  2   force =     0.42110406    0.03600796  -38.79811054
     atom    3 type  2   force =     0.10257275    0.15441374   36.39921397
     atom    4 type  1   force =    -0.75611741   -0.95598697    0.98012703
     atom    5 type  2   force =    -1.72271212   -1.57122378  -37.20963326
     atom    6 type  2   force =    -0.59124731    0.52299983   38.70714807
     atom    7 type  1   force =     2.12549039    1.89010135   -1.19588774
     atom    8 type  2   force =     0.71241211   -0.46627233  -36.84197610
     atom    9 type  2   force =    -0.40347957   -0.09988078   38.33735101
     atom   10 type  1   force =     0.92659622    0.58655780   -4.78849485
     atom   11 type  2   force =     0.37276293    1.54748860  -38.71182877
     atom   12 type  2   force =    -0.49875346   -0.68234839   38.12218631
     atom   13 type  1   force =     0.41836429    1.22760615    0.77371151
     atom   14 type  2   force =    -0.52593275    1.74442307  -37.54122111
     atom   15 type  2   force =    -0.24111777    0.37264020   37.35830115
     atom   16 type  1   force =    -1.18844067   -5.42299656    4.66330840
     atom   17 type  2   force =     5.75532730   -1.81050777  -28.95528921
     atom   18 type  2   force =     0.29603790    0.66494492   39.50140299
     atom   19 type  1   force =    -2.44917721    1.21575036    1.04784156
     atom   20 type  2   force =    -0.29801620   -0.05651137   39.03324030
     atom   21 type  1   force =    -0.23035711    0.46058990    0.04673751
     atom   22 type  2   force =    -0.36298041    1.63231751  -37.95594756
     atom   23 type  2   force =     0.11239038   -0.65570903   38.59422022
     atom   24 type  1   force =     1.06640744   -0.47961968   -4.42196699
     atom   25 type  2   force =    -0.01306098    0.60121522  -38.62431061
     atom   26 type  2   force =     0.42231536    0.16952216   37.76683728
     atom   27 type  1   force =     1.67779958   -1.11807467    5.15980925
     atom   28 type  2   force =     0.53464362   -0.99787497  -37.54826672
     atom   29 type  2   force =     0.36962389    0.43575084   37.72523703
     atom   30 type  1   force =     0.57746776    0.33972555    1.09668033
     atom   31 type  2   force =    -0.51822987   -0.85021159  -36.56468622
     atom   32 type  2   force =     0.61432828   -0.18249005   39.06513225
     atom   33 type  1   force =    -0.43794740    1.24691522   -1.01614631
     atom   34 type  2   force =    -0.14715625    1.43150051  -38.95228891
     atom   35 type  2   force =     0.32883477   -0.46605167   38.04644816
     atom   36 type  3   force =    -3.02952989   -1.53422424  -48.61890187
     The core correction contribution to forces
     atom    1 type  1   force =     0.00000000    0.00000000    0.00000000
     atom    2 type  2   force =     0.00000041   -0.00019795    0.02076550
     atom    3 type  2   force =     0.00061352   -0.00001839   -0.02091903
     atom    4 type  1   force =     0.00000000    0.00000000    0.00000000
     atom    5 type  2   force =    -0.00275373    0.00146878    0.02059318
     atom    6 type  2   force =     0.00011728   -0.00089205   -0.02076056
     atom    7 type  1   force =     0.00000000    0.00000000    0.00000000
     atom    8 type  2   force =    -0.00012130    0.00045711    0.02051745
     atom    9 type  2   force =    -0.00018872    0.00051673   -0.02113663
     atom   10 type  1   force =     0.00000000    0.00000000    0.00000000
     atom   11 type  2   force =    -0.00062165   -0.00039449    0.02076190
     atom   12 type  2   force =     0.00116827    0.00139484   -0.02089733
     atom   13 type  1   force =     0.00000000    0.00000000    0.00000000
     atom   14 type  2   force =    -0.00062935    0.00033194    0.02069592
     atom   15 type  2   force =     0.00071939    0.00043335   -0.02042148
     atom   16 type  1   force =     0.00000000    0.00000000    0.00000000
     atom   17 type  2   force =     0.00642921   -0.00119900    0.01637267
     atom   18 type  2   force =     0.00022123   -0.00044917   -0.02123374
     atom   19 type  1   force =     0.00000000    0.00000000    0.00000000
     atom   20 type  2   force =     0.00019892    0.00061028   -0.02112215
     atom   21 type  1   force =     0.00000000    0.00000000    0.00000000
     atom   22 type  2   force =     0.00019785   -0.00046584    0.02061466
     atom   23 type  2   force =    -0.00051237    0.00129165   -0.02095078
     atom   24 type  1   force =     0.00000000    0.00000000    0.00000000
     atom   25 type  2   force =    -0.00045129   -0.00091545    0.02067371
     atom   26 type  2   force =     0.00008267    0.00078402   -0.02081011
     atom   27 type  1   force =     0.00000000    0.00000000    0.00000000
     atom   28 type  2   force =    -0.00014222    0.00144096    0.02083731
     atom   29 type  2   force =    -0.00054191   -0.00057473   -0.02041572
     atom   30 type  1   force =     0.00000000    0.00000000    0.00000000
     atom   31 type  2   force =     0.00013504    0.00079169    0.02041974
     atom   32 type  2   force =     0.00002345    0.00074381   -0.02119813
     atom   33 type  1   force =     0.00000000    0.00000000    0.00000000
     atom   34 type  2   force =     0.00033145    0.00133065    0.02123504
     atom   35 type  2   force =    -0.00007170    0.00102864   -0.02115241
     atom   36 type  3   force =     0.01476259   -0.00116970    0.01409631
     The Hubbard contrib.    to forces
     atom    1 type  1   force =     0.00000000    0.00000000    0.00000000
     atom    2 type  2   force =     0.00000000    0.00000000    0.00000000
     atom    3 type  2   force =     0.00000000    0.00000000    0.00000000
     atom    4 type  1   force =     0.00000000    0.00000000    0.00000000
     atom    5 type  2   force =     0.00000000    0.00000000    0.00000000
     atom    6 type  2   force =     0.00000000    0.00000000    0.00000000
     atom    7 type  1   force =     0.00000000    0.00000000    0.00000000
     atom    8 type  2   force =     0.00000000    0.00000000    0.00000000
     atom    9 type  2   force =     0.00000000    0.00000000    0.00000000
     atom   10 type  1   force =     0.00000000    0.00000000    0.00000000
     atom   11 type  2   force =     0.00000000    0.00000000    0.00000000
     atom   12 type  2   force =     0.00000000    0.00000000    0.00000000
     atom   13 type  1   force =     0.00000000    0.00000000    0.00000000
     atom   14 type  2   force =     0.00000000    0.00000000    0.00000000
     atom   15 type  2   force =     0.00000000    0.00000000    0.00000000
     atom   16 type  1   force =     0.00000000    0.00000000    0.00000000
     atom   17 type  2   force =     0.00000000    0.00000000    0.00000000
     atom   18 type  2   force =     0.00000000    0.00000000    0.00000000
     atom   19 type  1   force =     0.00000000    0.00000000    0.00000000
     atom   20 type  2   force =     0.00000000    0.00000000    0.00000000
     atom   21 type  1   force =     0.00000000    0.00000000    0.00000000
     atom   22 type  2   force =     0.00000000    0.00000000    0.00000000
     atom   23 type  2   force =     0.00000000    0.00000000    0.00000000
     atom   24 type  1   force =     0.00000000    0.00000000    0.00000000
     atom   25 type  2   force =     0.00000000    0.00000000    0.00000000
     atom   26 type  2   force =     0.00000000    0.00000000    0.00000000
     atom   27 type  1   force =     0.00000000    0.00000000    0.00000000
     atom   28 type  2   force =     0.00000000    0.00000000    0.00000000
     atom   29 type  2   force =     0.00000000    0.00000000    0.00000000
     atom   30 type  1   force =     0.00000000    0.00000000    0.00000000
     atom   31 type  2   force =     0.00000000    0.00000000    0.00000000
     atom   32 type  2   force =     0.00000000    0.00000000    0.00000000
     atom   33 type  1   force =     0.00000000    0.00000000    0.00000000
     atom   34 type  2   force =     0.00000000    0.00000000    0.00000000
     atom   35 type  2   force =     0.00000000    0.00000000    0.00000000
     atom   36 type  3   force =     0.00000000    0.00000000    0.00000000
     The SCF correction term to forces
     atom    1 type  1   force =     0.00025843   -0.00026946    0.00059760
     atom    2 type  2   force =     0.00008692   -0.00009107    0.00046092
     atom    3 type  2   force =     0.00003891   -0.00004212    0.00003838
     atom    4 type  1   force =     0.00002214    0.00004060    0.00072993
     atom    5 type  2   force =     0.00014912    0.00004753    0.00041950
     atom    6 type  2   force =     0.00007158   -0.00005149   -0.00000186
     atom    7 type  1   force =     0.00007244    0.00008940    0.00083001
     atom    8 type  2   force =    -0.00001449    0.00010310    0.00050377
     atom    9 type  2   force =    -0.00002074    0.00004659    0.00006584
     atom   10 type  1   force =     0.00009893    0.00002467    0.00085069
     atom   11 type  2   force =     0.00006236   -0.00003672    0.00045828
     atom   12 type  2   force =     0.00003189    0.00003441    0.00009569
     atom   13 type  1   force =    -0.00016415   -0.00020974    0.00052587
     atom   14 type  2   force =     0.00004873   -0.00017026    0.00042518
     atom   15 type  2   force =     0.00003778   -0.00005751   -0.00002111
     atom   16 type  1   force =     0.00008139    0.00023447    0.00055715
     atom   17 type  2   force =     0.00000753    0.00000212    0.00035486
     atom   18 type  2   force =    -0.00004050   -0.00005049   -0.00000041
     atom   19 type  1   force =     0.00018650    0.00018263    0.00071351
     atom   20 type  2   force =     0.00007379    0.00005280    0.00010566
     atom   21 type  1   force =     0.00010992   -0.00012467    0.00071912
     atom   22 type  2   force =    -0.00001541    0.00003490    0.00050235
     atom   23 type  2   force =    -0.00001248    0.00010223    0.00003335
     atom   24 type  1   force =    -0.00010493   -0.00026828    0.00071051
     atom   25 type  2   force =    -0.00013350   -0.00012549    0.00045553
     atom   26 type  2   force =    -0.00007623   -0.00005941    0.00001589
     atom   27 type  1   force =    -0.00013293   -0.00011027    0.00062522
     atom   28 type  2   force =    -0.00007969   -0.00002007    0.00049916
     atom   29 type  2   force =    -0.00002462   -0.00007125    0.00002179
     atom   30 type  1   force =    -0.00022373    0.00024957    0.00083609
     atom   31 type  2   force =    -0.00010508    0.00009806    0.00055095
     atom   32 type  2   force =    -0.00005219    0.00002581   -0.00003408
     atom   33 type  1   force =    -0.00021278    0.00006595    0.00075795
     atom   34 type  2   force =    -0.00004218    0.00002988    0.00050025
     atom   35 type  2   force =    -0.00002343    0.00008773    0.00007507
     atom   36 type  3   force =     0.00007416    0.00004858    0.00053852

     Total force =     0.896645     Total SCF correction =     0.003119

     BFGS Geometry Optimization
     Energy error            =      0.0E+00 Ry
     Gradient error          =      5.8E-01 Ry/Bohr

     number of scf cycles    =   1
     number of bfgs steps    =   0

     energy             new  =   -2246.2376213663 Ry

     new trust radius        =       0.5000000000 bohr
     new conv_thr            =       0.0000010000 Ry


ATOMIC_POSITIONS (angstrom)
Mo            6.5791488458        1.7782626834        2.8266566007
S             8.1706584241        0.8168961297        4.4347158244
S             8.1888885565        0.8151020316        1.2761057526
Mo            8.0946307497        4.4958805857        2.7163749021
S             6.5077749097        3.7223047537        4.3380474747
S             6.5543082076        3.5158354349        1.1220383952
Mo            6.4924186138        7.2115863642        2.6680512663
S             8.0820282654        6.3422932077        4.2499265079
S             8.0869339083        6.3073541002        1.0883203326
Mo            8.1561447928        9.9058990367        2.8323391738
S             6.4970147585        8.9421438301        4.3800098409
S             6.6173131267        9.0493394574        1.1435626958
Mo            3.4224444073        1.7465008292        2.7724664030
S             4.9791631997        0.8173781532        4.3560770655
S             5.0531625613        0.8478425296        1.2227780902
Mo            4.9840617410        4.5217672251        2.6142483553
S             3.3171384359        3.6570358446        4.0516002754
S             3.4359858611        3.5460742884        1.0643398681
Mo            3.4575513748        7.2127460494        2.6282885358
S             4.9843063508        6.3266840627        1.0379166748
Mo            5.0098652279        9.9046529698        2.7435424033
S             3.4702643045        8.9423026220        4.3243526194
S             3.4076192028        9.0659007887        1.1000164290
Mo            0.2925170794        1.7450272176        2.8411026873
S             1.8569068423        0.8002238941        4.4015351322
S             1.8537910749        0.8537322357        1.2075450401
Mo            1.8594491724        4.5039687036        2.6765039095
S             0.2701922649        3.6530001108        4.3349298492
S             0.2322511973        3.5260284063        1.1699830798
Mo            0.2698053491        7.2208565636        2.6997876797
S             1.9019093706        6.3155533674        4.2304945188
S             1.8587668837        6.3123804444        1.0461811082
Mo            1.8491804032        9.9384642792        2.7687034749
S             0.2971749520        9.0720294792        4.4095591387
S             0.2736550477        9.0462988314        1.1572040148
O             4.3109259929        3.6445665659        5.5850347517



     Writing config-only to output data dir ./MoS2-V-O.save/
     NEW-OLD atomic charge density approx. for the potential

     negative rho (up, down):  1.844E-04 0.000E+00

     total cpu time spent up to now is      106.5 secs

     Self-consistent Calculation

     iteration #  1     ecut=    80.00 Ry     beta= 0.70
     Davidson diagonalization with overlap
     c_bands:  1 eigenvalues not converged
     ethr =  1.00E-06,  avg # of iterations = 20.0

     negative rho (up, down):  5.518E-03 0.000E+00

     total cpu time spent up to now is      123.9 secs

     total energy              =   -2246.23391540 Ry
     estimated scf accuracy    <       0.16579454 Ry

     iteration #  2     ecut=    80.00 Ry     beta= 0.70
     Davidson diagonalization with overlap
     ethr =  5.31E-05,  avg # of iterations =  6.0

     negative rho (up, down):  7.922E-03 0.000E+00

     total cpu time spent up to now is      138.1 secs

     total energy              =   -2246.25465373 Ry
     estimated scf accuracy    <       0.13439992 Ry

     iteration #  3     ecut=    80.00 Ry     beta= 0.70
     Davidson diagonalization with overlap
     ethr =  4.31E-05,  avg # of iterations =  3.0

     negative rho (up, down):  1.480E-02 0.000E+00

     total cpu time spent up to now is      148.2 secs

     total energy              =   -2246.25806027 Ry
     estimated scf accuracy    <       0.01746885 Ry

     iteration #  4     ecut=    80.00 Ry     beta= 0.70
     Davidson diagonalization with overlap
     ethr =  5.60E-06,  avg # of iterations =  4.0

     negative rho (up, down):  1.654E-02 0.000E+00

     total cpu time spent up to now is      159.7 secs

     total energy              =   -2246.25999728 Ry
     estimated scf accuracy    <       0.00848628 Ry

     iteration #  5     ecut=    80.00 Ry     beta= 0.70
     Davidson diagonalization with overlap
     ethr =  2.72E-06,  avg # of iterations =  2.0

     negative rho (up, down):  1.709E-02 0.000E+00

     total cpu time spent up to now is      171.2 secs

     total energy              =   -2246.25948417 Ry
     estimated scf accuracy    <       0.00381531 Ry

     iteration #  6     ecut=    80.00 Ry     beta= 0.70
     Davidson diagonalization with overlap
     ethr =  1.22E-06,  avg # of iterations =  5.0

     negative rho (up, down):  1.551E-02 0.000E+00

     total cpu time spent up to now is      183.8 secs

     total energy              =   -2246.25985898 Ry
     estimated scf accuracy    <       0.00038313 Ry

     iteration #  7     ecut=    80.00 Ry     beta= 0.70
     Davidson diagonalization with overlap
     ethr =  1.23E-07,  avg # of iterations =  5.0

     negative rho (up, down):  1.198E-02 0.000E+00

     total cpu time spent up to now is      192.6 secs

     total energy              =   -2246.25978645 Ry
     estimated scf accuracy    <       0.00021272 Ry

     iteration #  8     ecut=    80.00 Ry     beta= 0.70
     Davidson diagonalization with overlap
     ethr =  6.82E-08,  avg # of iterations =  4.0

     negative rho (up, down):  8.629E-03 0.000E+00

     total cpu time spent up to now is      205.2 secs

     total energy              =   -2246.25976459 Ry
     estimated scf accuracy    <       0.00007807 Ry

     iteration #  9     ecut=    80.00 Ry     beta= 0.70
     Davidson diagonalization with overlap
     ethr =  2.50E-08,  avg # of iterations =  2.0

     negative rho (up, down):  4.826E-03 0.000E+00

     total cpu time spent up to now is      213.6 secs

     total energy              =   -2246.25971537 Ry
     estimated scf accuracy    <       0.00003768 Ry

     iteration # 10     ecut=    80.00 Ry     beta= 0.70
     Davidson diagonalization with overlap
     ethr =  1.21E-08,  avg # of iterations =  3.0

     negative rho (up, down):  2.727E-03 0.000E+00

     total cpu time spent up to now is      221.7 secs

     total energy              =   -2246.25969935 Ry
     estimated scf accuracy    <       0.00000819 Ry

     iteration # 11     ecut=    80.00 Ry     beta= 0.70
     Davidson diagonalization with overlap
     ethr =  2.62E-09,  avg # of iterations =  8.0

     negative rho (up, down):  2.364E-03 0.000E+00

     total cpu time spent up to now is      230.9 secs

     total energy              =   -2246.25969736 Ry
     estimated scf accuracy    <       0.00000544 Ry

     iteration # 12     ecut=    80.00 Ry     beta= 0.70
     Davidson diagonalization with overlap
     ethr =  1.74E-09,  avg # of iterations =  1.0

     negative rho (up, down):  6.208E-04 0.000E+00

     total cpu time spent up to now is      242.5 secs

     total energy              =   -2246.25968432 Ry
     estimated scf accuracy    <       0.00000379 Ry

     iteration # 13     ecut=    80.00 Ry     beta= 0.70
     Davidson diagonalization with overlap
     ethr =  1.21E-09,  avg # of iterations =  2.0

     negative rho (up, down):  3.592E-04 0.000E+00

     total cpu time spent up to now is      252.1 secs

     total energy              =   -2246.25968425 Ry
     estimated scf accuracy    <       0.00000104 Ry

     iteration # 14     ecut=    80.00 Ry     beta= 0.70
     Davidson diagonalization with overlap
     ethr =  3.34E-10,  avg # of iterations =  2.0

     negative rho (up, down):  1.850E-04 0.000E+00

     total cpu time spent up to now is      255.5 secs

     End of self-consistent calculation

          k = 0.0000 0.0000 0.0000 (105382 PWs)   bands (ev):

   -63.1225 -63.0617 -63.0476 -63.0213 -63.0100 -63.0015 -62.9970 -62.9922
   -62.9870 -62.9737 -62.9568 -62.9089 -37.5058 -37.4187 -37.3587 -37.3378
   -37.3264 -37.3195 -37.3010 -37.2714 -37.2598 -37.2576 -37.2483 -37.2369
   -37.2292 -37.2027 -37.1995 -37.1941 -37.1922 -37.1892 -37.1809 -37.1677
   -37.1601 -37.1491 -37.1363 -37.1252 -37.1172 -37.1078 -37.0970 -37.0834
   -37.0781 -37.0689 -37.0666 -37.0464 -37.0291 -36.9919 -36.9101 -36.9061
   -19.2568 -16.1492 -15.4273 -15.3089 -15.2142 -15.0937 -14.9320 -14.8094
   -14.6727 -14.6318 -14.5870 -14.5480 -14.5146 -14.4831 -14.4402 -14.3814
   -14.3072 -14.2820 -14.2522 -14.1779 -14.0599 -14.0444 -14.0201 -13.9769
    -7.9333  -7.9062  -7.6926  -7.6335  -7.4943  -7.4627  -7.4034  -7.3703
    -7.2664  -7.1080  -7.0309  -6.9371  -6.9292  -6.8037  -6.7070  -6.6754
    -6.6259  -6.5558  -6.4558  -6.4098  -6.2720  -6.1707  -6.1121  -6.0310
    -5.9740  -5.9412  -5.9292  -5.9048  -5.8805  -5.8072  -5.7456  -5.7369
    -5.6872  -5.6122  -5.5778  -5.3936  -5.3204  -5.3005  -5.2200  -5.1948
    -5.1701  -5.1163  -5.0299  -4.8958  -4.7713  -4.6750  -4.5459  -4.4852
    -4.4193  -4.3892  -4.2380  -4.1610  -4.0974  -4.0517  -3.9913  -3.9332
    -3.8896  -3.8341  -3.8105  -3.7575  -3.7110  -3.7015  -3.6693  -3.6256
    -3.5822  -3.5683  -3.4104  -3.3666  -3.1536  -3.0853  -3.0682  -3.0062
    -2.9365  -2.8981  -2.8612  -2.8600  -2.8322  -2.7843  -2.4910  -2.4482
    -2.3201  -2.1965  -2.0912  -1.8974  -0.9994  -0.8937  -0.8108  -0.3677
    -0.3581  -0.2603  -0.1606  -0.1295  -0.0322   0.0524   0.0871   0.1170
     0.1378   0.1818   0.2597   0.2957   0.3607   0.3773   0.4241   0.4518
     0.4875   0.5301   0.5686   0.6244   0.6395   0.6745   0.7298   0.7889
     0.8654   0.9239   1.0317

     the Fermi energy is    -1.4484 ev

!    total energy              =   -2246.25968434 Ry
     estimated scf accuracy    <       0.00000024 Ry
     smearing contrib. (-TS)   =      -0.00000021 Ry
     internal energy E=F+TS    =   -2246.25968413 Ry

     The total energy is F=E-TS. E is the sum of the following terms:
     one-electron contribution =  -18436.50809961 Ry
     hartree contribution      =    9205.32519231 Ry
     xc contribution           =    -392.00886796 Ry
     ewald contribution        =    7386.80394846 Ry
     one-center paw contrib.   =      -9.87185731 Ry

     convergence has been achieved in  14 iterations

     negative rho (up, down):  1.850E-04 0.000E+00

     Forces acting on atoms (cartesian axes, Ry/au):

     atom    1 type  1   force =     0.00468419   -0.01199753    0.00262822
     atom    2 type  2   force =    -0.01019322    0.01206416    0.00009970
     atom    3 type  2   force =    -0.00959162    0.00722803   -0.00846347
     atom    4 type  1   force =     0.01204105    0.00180423   -0.01061703
     atom    5 type  2   force =    -0.00776039   -0.00423378   -0.01361001
     atom    6 type  2   force =     0.00317777    0.00764247    0.00022300
     atom    7 type  1   force =     0.00243471   -0.00745446   -0.00360397
     atom    8 type  2   force =     0.00053824   -0.00478864    0.01526894
     atom    9 type  2   force =     0.01286913    0.00439261    0.00637935
     atom   10 type  1   force =    -0.00555356    0.00712671   -0.01345251
     atom   11 type  2   force =     0.00367364   -0.00199807   -0.00860943
     atom   12 type  2   force =    -0.00261953    0.00009030    0.00399300
     atom   13 type  1   force =    -0.00001620   -0.03823451   -0.03665409
     atom   14 type  2   force =     0.00621320    0.00442073    0.01076284
     atom   15 type  2   force =    -0.00782927    0.00226383   -0.00841533
     atom   16 type  1   force =     0.01686768    0.01302282   -0.01397129
     atom   17 type  2   force =     0.20985755   -0.04395625    0.23723213
     atom   18 type  2   force =    -0.00512500   -0.00425247   -0.00314233
     atom   19 type  1   force =     0.00821396   -0.00507778   -0.00348379
     atom   20 type  2   force =     0.00446242    0.00145156   -0.00522910
     atom   21 type  1   force =    -0.00351684    0.00378628    0.00128095
     atom   22 type  2   force =    -0.00096626   -0.00289165   -0.00230014
     atom   23 type  2   force =    -0.00015786    0.00062141    0.00614890
     atom   24 type  1   force =    -0.00691039   -0.00400867   -0.01402334
     atom   25 type  2   force =     0.01157319    0.01377902    0.00525223
     atom   26 type  2   force =    -0.01156823   -0.00228557   -0.00560900
     atom   27 type  1   force =    -0.07933242    0.05072060   -0.05379631
     atom   28 type  2   force =    -0.00920208   -0.00550079   -0.00018146
     atom   29 type  2   force =     0.00181727   -0.00178162   -0.00247653
     atom   30 type  1   force =    -0.00076533    0.00537258    0.00030452
     atom   31 type  2   force =     0.00130202    0.00904253    0.01942838
     atom   32 type  2   force =    -0.00667241    0.00752800    0.00251626
     atom   33 type  1   force =     0.00664214   -0.00122222   -0.00233587
     atom   34 type  2   force =     0.00083505   -0.03393596   -0.01274103
     atom   35 type  2   force =    -0.00617005    0.00714061    0.01040708
     atom   36 type  3   force =    -0.13325256    0.01412147   -0.09920944
     The non-local contrib.  to forces
     atom    1 type  1   force =     0.00358884    0.02962972   -0.01136616
     atom    2 type  2   force =    -0.00346482   -0.00009412   -0.27399359
     atom    3 type  2   force =    -0.01147495   -0.00296024    0.26791193
     atom    4 type  1   force =    -0.01423351    0.00112882    0.02066138
     atom    5 type  2   force =     0.00373107   -0.03222669   -0.24987282
     atom    6 type  2   force =    -0.00386019    0.00687891    0.26129550
     atom    7 type  1   force =    -0.02151671   -0.00080173   -0.01570746
     atom    8 type  2   force =     0.00602708   -0.00154085   -0.26052225
     atom    9 type  2   force =     0.00625958   -0.00789094    0.27711611
     atom   10 type  1   force =     0.00243837    0.00323799   -0.00166408
     atom   11 type  2   force =     0.01175791    0.00251662   -0.26610122
     atom   12 type  2   force =    -0.01389385   -0.01796397    0.26284957
     atom   13 type  1   force =    -0.00602657    0.02803200   -0.00218347
     atom   14 type  2   force =     0.01278634   -0.01587202   -0.27110395
     atom   15 type  2   force =    -0.01136711   -0.00549896    0.25665180
     atom   16 type  1   force =    -0.00972214    0.02699724   -0.01248884
     atom   17 type  2   force =     0.24082165    0.02132644    0.40588303
     atom   18 type  2   force =    -0.00531983   -0.00337948    0.27142404
     atom   19 type  1   force =     0.01572485   -0.00131505   -0.01400648
     atom   20 type  2   force =    -0.00088748   -0.02023575    0.26176757
     atom   21 type  1   force =     0.00622545    0.02271727    0.00822896
     atom   22 type  2   force =    -0.00678328    0.00295025   -0.26330222
     atom   23 type  2   force =     0.00646880   -0.01751121    0.26847629
     atom   24 type  1   force =     0.00108955    0.00951592   -0.01201600
     atom   25 type  2   force =     0.01023505    0.00656451   -0.27086000
     atom   26 type  2   force =    -0.00060929   -0.01294537    0.26357028
     atom   27 type  1   force =     0.00965981   -0.00582078    0.01902766
     atom   28 type  2   force =    -0.00162940   -0.01706493   -0.27853849
     atom   29 type  2   force =     0.00539474   -0.00162771    0.26136635
     atom   30 type  1   force =    -0.00421910    0.02378589    0.01153203
     atom   31 type  2   force =    -0.00662166   -0.00470961   -0.25926738
     atom   32 type  2   force =    -0.00159762   -0.00962519    0.27590845
     atom   33 type  1   force =    -0.00601511    0.00462671    0.00424665
     atom   34 type  2   force =    -0.00136839   -0.03074219   -0.28010591
     atom   35 type  2   force =    -0.00124866   -0.01114166    0.26880190
     atom   36 type  3   force =    -0.84776892    0.02142498   -1.17969460
     The ionic contribution  to forces
     atom    1 type  1   force =     1.31904863   -0.69538463    3.77471350
     atom    2 type  2   force =    -0.30299252   -0.12013952   39.11391430
     atom    3 type  2   force =    -0.11434460   -0.12505274  -36.72947006
     atom    4 type  1   force =     0.70559303    0.89429647   -0.95603841
     atom    5 type  2   force =     1.17871735    1.58225448   37.17210270
     atom    6 type  2   force =     0.61446256   -0.64069598  -38.86149657
     atom    7 type  1   force =    -2.14878120   -1.74761961    1.26017162
     atom    8 type  2   force =    -0.74537817    0.47441094   37.20402284
     atom    9 type  2   force =     0.42539144    0.10110168  -38.56527646
     atom   10 type  1   force =    -0.80198414   -0.60116920    4.55143969
     atom   11 type  2   force =    -0.37630328   -1.56728700   38.89458353
     atom   12 type  2   force =     0.43718298    0.66293459  -38.30000326
     atom   13 type  1   force =     0.06425663   -1.91021552   -0.61358262
     atom   14 type  2   force =     0.37048612   -1.48630673   37.88520496
     atom   15 type  2   force =     0.27614026   -0.33355786  -37.60248237
     atom   16 type  1   force =     1.49307782    5.02560847   -4.44485694
     atom   17 type  2   force =    -1.37949380    1.33260266   31.06442421
     atom   18 type  2   force =    -0.33555757   -0.66484743  -39.80529388
     atom   19 type  1   force =     2.45290044   -1.14902092   -0.90130939
     atom   20 type  2   force =     0.28810691    0.18323715  -39.34465612
     atom   21 type  1   force =     0.21960276   -0.51420312    0.13584530
     atom   22 type  2   force =     0.37569251   -1.64521826   38.21068988
     atom   23 type  2   force =    -0.09285204    0.64433775  -38.79153783
     atom   24 type  1   force =    -1.01775564    0.32984597    4.26014723
     atom   25 type  2   force =     0.00190264   -0.60248686   38.95124170
     atom   26 type  2   force =    -0.39961603   -0.18415090  -38.00981565
     atom   27 type  1   force =    -2.62644077    1.85431473   -4.86963519
     atom   28 type  2   force =    -0.57564195    0.92399073   37.89083887
     atom   29 type  2   force =    -0.33514921   -0.37246752  -37.97131023
     atom   30 type  1   force =    -0.54129458   -0.38239049   -1.08319514
     atom   31 type  2   force =     0.64035857    0.90587750   37.06085160
     atom   32 type  2   force =    -0.61725718    0.18238337  -39.30101429
     atom   33 type  1   force =     0.36026733   -1.12807120    1.11650065
     atom   34 type  2   force =     0.11651880   -1.25954002   39.13760468
     atom   35 type  2   force =    -0.29580542    0.48666575  -38.21565484
     atom   36 type  3   force =     1.36694129    1.54596326   46.68233199
     The local contribution  to forces
     atom    1 type  1   force =    -1.31810601    0.65393385   -3.76040386
     atom    2 type  2   force =     0.29630232    0.13246632  -38.86064543
     atom    3 type  2   force =     0.11573993    0.13521800   36.47381188
     atom    4 type  1   force =    -0.67910501   -0.89362202    0.92514377
     atom    5 type  2   force =    -1.18857351   -1.55605140  -36.95659305
     atom    6 type  2   force =    -0.60786663    0.64250876   38.62108486
     atom    7 type  1   force =     2.17267303    1.74088523   -1.24776498
     atom    8 type  2   force =     0.74019546   -0.47818419  -36.94882431
     atom    9 type  2   force =    -0.41864002   -0.08931546   38.31548694
     atom   10 type  1   force =     0.79397674    0.60500066   -4.56290930
     atom   11 type  2   force =     0.36867076    1.56318458  -38.65788360
     atom   12 type  2   force =    -0.42708278   -0.64628530   38.06184230
     atom   13 type  1   force =    -0.05834025    1.84404256    0.57940803
     atom   14 type  2   force =    -0.37636920    1.50591354  -37.62453211
     atom   15 type  2   force =    -0.27334383    0.34100983   37.35769657
     atom   16 type  1   force =    -1.46669210   -5.03963755    4.44354155
     atom   17 type  2   force =     1.36104004   -1.39689735  -31.22051087
     atom   18 type  2   force =     0.33569866    0.66448206   39.55160337
     atom   19 type  1   force =    -2.46059382    1.14510670    0.91220973
     atom   20 type  2   force =    -0.28298902   -0.16242328   39.09864522
     atom   21 type  1   force =    -0.22951807    0.49530526   -0.14242106
     atom   22 type  2   force =    -0.37007239    1.63980074  -37.97039680
     atom   23 type  2   force =     0.08670994   -0.62760348   38.55005885
     atom   24 type  1   force =     1.01000558   -0.34306956   -4.26169506
     atom   25 type  2   force =    -0.00036497    0.61033718  -38.69620727
     atom   26 type  2   force =     0.38893678    0.19419822   37.76145047
     atom   27 type  1   force =     2.53738841   -1.79771671    4.79720898
     atom   28 type  2   force =     0.56822228   -0.91374411  -37.63357025
     atom   29 type  2   force =     0.33208494    0.37275697   37.72786167
     atom   30 type  1   force =     0.54497022    0.36363124    1.07227031
     atom   31 type  2   force =    -0.63280623   -0.89283519  -36.80294973
     atom   32 type  2   force =     0.61239485   -0.16583436   39.04869905
     atom   33 type  1   force =    -0.34741365    1.12225180   -1.12270657
     atom   34 type  2   force =    -0.11457742    1.25532727  -38.89154415
     atom   35 type  2   force =     0.29103510   -0.46940719   37.97815430
     atom   36 type  3   force =    -0.66224157   -1.55298911  -45.61472763
     The core correction contribution to forces
     atom    1 type  1   force =     0.00000000    0.00000000    0.00000000
     atom    2 type  2   force =    -0.00002842   -0.00008984    0.02102714
     atom    3 type  2   force =     0.00047992    0.00007129   -0.02086971
     atom    4 type  1   force =     0.00000000    0.00000000    0.00000000
     atom    5 type  2   force =    -0.00157777    0.00180667    0.02096854
     atom    6 type  2   force =     0.00043985   -0.00104108   -0.02078594
     atom    7 type  1   force =     0.00000000    0.00000000    0.00000000
     atom    8 type  2   force =    -0.00026598    0.00041598    0.02075996
     atom    9 type  2   force =    -0.00009302    0.00044220   -0.02108435
     atom   10 type  1   force =     0.00000000    0.00000000    0.00000000
     atom   11 type  2   force =    -0.00052317   -0.00043136    0.02096577
     atom   12 type  2   force =     0.00114602    0.00138053   -0.02087199
     atom   13 type  1   force =     0.00000000    0.00000000    0.00000000
     atom   14 type  2   force =    -0.00074451    0.00068986    0.02139098
     atom   15 type  2   force =     0.00069259    0.00034522   -0.02038159
     atom   16 type  1   force =     0.00000000    0.00000000    0.00000000
     atom   17 type  2   force =    -0.01266787   -0.00093842   -0.01245642
     atom   18 type  2   force =     0.00000715   -0.00048624   -0.02094745
     atom   19 type  1   force =     0.00000000    0.00000000    0.00000000
     atom   20 type  2   force =     0.00016916    0.00085843   -0.02111353
     atom   21 type  1   force =     0.00000000    0.00000000    0.00000000
     atom   22 type  2   force =     0.00018739   -0.00047072    0.02085052
     atom   23 type  2   force =    -0.00049006    0.00136070   -0.02096270
     atom   24 type  1   force =     0.00000000    0.00000000    0.00000000
     atom   25 type  2   force =    -0.00015523   -0.00056564    0.02126187
     atom   26 type  2   force =    -0.00022673    0.00066310   -0.02089421
     atom   27 type  1   force =     0.00000000    0.00000000    0.00000000
     atom   28 type  2   force =    -0.00007560    0.00138032    0.02124326
     atom   29 type  2   force =    -0.00046132   -0.00035758   -0.02043933
     atom   30 type  1   force =     0.00000000    0.00000000    0.00000000
     atom   31 type  2   force =     0.00040727    0.00061798    0.02092948
     atom   32 type  2   force =    -0.00020484    0.00054772   -0.02113219
     atom   33 type  1   force =     0.00000000    0.00000000    0.00000000
     atom   34 type  2   force =     0.00033173    0.00098552    0.02145865
     atom   35 type  2   force =    -0.00011891    0.00097489   -0.02106434
     atom   36 type  3   force =     0.00985687   -0.00026164    0.01310692
     The Hubbard contrib.    to forces
     atom    1 type  1   force =     0.00000000    0.00000000    0.00000000
     atom    2 type  2   force =     0.00000000    0.00000000    0.00000000
     atom    3 type  2   force =     0.00000000    0.00000000    0.00000000
     atom    4 type  1   force =     0.00000000    0.00000000    0.00000000
     atom    5 type  2   force =     0.00000000    0.00000000    0.00000000
     atom    6 type  2   force =     0.00000000    0.00000000    0.00000000
     atom    7 type  1   force =     0.00000000    0.00000000    0.00000000
     atom    8 type  2   force =     0.00000000    0.00000000    0.00000000
     atom    9 type  2   force =     0.00000000    0.00000000    0.00000000
     atom   10 type  1   force =     0.00000000    0.00000000    0.00000000
     atom   11 type  2   force =     0.00000000    0.00000000    0.00000000
     atom   12 type  2   force =     0.00000000    0.00000000    0.00000000
     atom   13 type  1   force =     0.00000000    0.00000000    0.00000000
     atom   14 type  2   force =     0.00000000    0.00000000    0.00000000
     atom   15 type  2   force =     0.00000000    0.00000000    0.00000000
     atom   16 type  1   force =     0.00000000    0.00000000    0.00000000
     atom   17 type  2   force =     0.00000000    0.00000000    0.00000000
     atom   18 type  2   force =     0.00000000    0.00000000    0.00000000
     atom   19 type  1   force =     0.00000000    0.00000000    0.00000000
     atom   20 type  2   force =     0.00000000    0.00000000    0.00000000
     atom   21 type  1   force =     0.00000000    0.00000000    0.00000000
     atom   22 type  2   force =     0.00000000    0.00000000    0.00000000
     atom   23 type  2   force =     0.00000000    0.00000000    0.00000000
     atom   24 type  1   force =     0.00000000    0.00000000    0.00000000
     atom   25 type  2   force =     0.00000000    0.00000000    0.00000000
     atom   26 type  2   force =     0.00000000    0.00000000    0.00000000
     atom   27 type  1   force =     0.00000000    0.00000000    0.00000000
     atom   28 type  2   force =     0.00000000    0.00000000    0.00000000
     atom   29 type  2   force =     0.00000000    0.00000000    0.00000000
     atom   30 type  1   force =     0.00000000    0.00000000    0.00000000
     atom   31 type  2   force =     0.00000000    0.00000000    0.00000000
     atom   32 type  2   force =     0.00000000    0.00000000    0.00000000
     atom   33 type  1   force =     0.00000000    0.00000000    0.00000000
     atom   34 type  2   force =     0.00000000    0.00000000    0.00000000
     atom   35 type  2   force =     0.00000000    0.00000000    0.00000000
     atom   36 type  3   force =     0.00000000    0.00000000    0.00000000
     The SCF correction term to forces
     atom    1 type  1   force =     0.00015169   -0.00017662   -0.00030828
     atom    2 type  2   force =    -0.00001082   -0.00007882   -0.00019574
     atom    3 type  2   force =     0.00000704   -0.00004844    0.00015948
     atom    4 type  1   force =    -0.00021450    0.00000081   -0.00037678
     atom    5 type  2   force =    -0.00005857   -0.00001698   -0.00020841
     atom    6 type  2   force =     0.00000114   -0.00000829    0.00013214
     atom    7 type  1   force =     0.00005854    0.00008149   -0.00029617
     atom    8 type  2   force =    -0.00004120    0.00010932   -0.00016031
     atom    9 type  2   force =    -0.00004990    0.00005498    0.00014410
     atom   10 type  1   force =     0.00001442    0.00005711   -0.00031183
     atom   11 type  2   force =     0.00007037    0.00001895   -0.00016692
     atom   12 type  2   force =     0.00002705    0.00002429    0.00018336
     atom   13 type  1   force =     0.00009295   -0.00009370   -0.00028905
     atom   14 type  2   force =     0.00005340   -0.00000407   -0.00019006
     atom   15 type  2   force =     0.00004777   -0.00003457    0.00010724
     atom   16 type  1   force =     0.00020305    0.00005450   -0.00016008
     atom   17 type  2   force =     0.00015648   -0.00004973   -0.00010083
     atom   18 type  2   force =     0.00004554   -0.00002153    0.00007857
     atom   19 type  1   force =     0.00018144    0.00015134   -0.00037066
     atom   20 type  2   force =     0.00006181    0.00001487    0.00013474
     atom   21 type  1   force =     0.00017198   -0.00003329   -0.00036526
     atom   22 type  2   force =     0.00000847    0.00004618   -0.00013454
     atom   23 type  2   force =     0.00000444    0.00003749    0.00012128
     atom   24 type  1   force =    -0.00025093   -0.00030116   -0.00045251
     atom   25 type  2   force =    -0.00004535   -0.00007033   -0.00017708
     atom   26 type  2   force =    -0.00005402   -0.00005076    0.00008710
     atom   27 type  1   force =     0.00005908   -0.00005678   -0.00039077
     atom   28 type  2   force =    -0.00007846   -0.00006296   -0.00014787
     atom   29 type  2   force =    -0.00005292   -0.00008593    0.00005198
     atom   30 type  1   force =    -0.00022293    0.00034579   -0.00029570
     atom   31 type  2   force =    -0.00003698    0.00009170   -0.00012861
     atom   32 type  2   force =    -0.00000867    0.00005631    0.00006222
     atom   33 type  1   force =    -0.00019747   -0.00002968   -0.00036962
     atom   34 type  2   force =    -0.00007072    0.00003331   -0.00014732
     atom   35 type  2   force =    -0.00003321    0.00004867    0.00017706
     atom   36 type  3   force =    -0.00004128   -0.00001618   -0.00021913

     Total force =     0.388718     Total SCF correction =     0.001639
     Energy error            =      2.2E-02 Ry
     Gradient error          =      2.4E-01 Ry/Bohr

     number of scf cycles    =   2
     number of bfgs steps    =   1

     energy             old  =   -2246.2376213663 Ry
     energy             new  =   -2246.2596843366 Ry

     CASE: energy            _new < energy            _old

     new trust radius        =       0.1838954559 bohr
     new conv_thr            =       0.0000002372 Ry


ATOMIC_POSITIONS (angstrom)
Mo            6.5815740219        1.7723292531        2.8280710207
S             8.1658728377        0.8225638944        4.4347773210
S             8.1845529860        0.8184420408        1.2725354494
Mo            8.0993301035        4.4966969255        2.7119938020
S             6.5056805024        3.7206159255        4.3315914320
S             6.5556848813        3.5193689730        1.1222208110
Mo            6.4936848310        7.2077853233        2.6661488842
S             8.0822786075        6.3402020887        4.2568964896
S             8.0927742152        6.3094218672        1.0913986178
Mo            8.1533912249        9.9091813564        2.8256338094
S             6.4986980570        8.9412558267        4.3762180814
S             6.6161976650        9.0494532179        1.1455969535
Mo            3.4225354568        1.7313125148        2.7574627059
S             4.9821186439        0.8191819795        4.3610251258
S             5.0494838928        0.8489347468        1.2189656937
Mo            4.9912720050        4.5279879036        2.6064045325
S             3.3864436065        3.6378308482        4.1171581640
S             3.4337172952        3.5441237536        1.0638399470
Mo            3.4612603869        7.2102920271        2.6266131643
S             4.9862055687        6.3272277094        1.0359295227
Mo            5.0081754887        9.9065305920        2.7440669223
S             3.4697957264        8.9409783017        4.3232884703
S             3.4074561351        9.0662598357        1.1029402699
Mo            0.2893384080        1.7431324472        2.8345167406
S             1.8622874667        0.8066122878        4.4040268000
S             1.8483423255        0.8527415419        1.2050947241
Mo            1.8278980727        4.5250730920        2.6572384966
S             0.2662993542        3.6506493909        4.3345283914
S             0.2330970834        3.5251716905        1.1687502507
Mo            0.2693351938        7.2235057465        2.6996711429
S             1.9023838183        6.3194741626        4.2391833629
S             1.8556950708        6.3156126861        1.0473783698
Mo            1.8524094396        9.9377725614        2.7672520948
S             0.2976621741        9.0563673236        4.4039813940
S             0.2708261399        9.0494692249        1.1621676726
O             4.2715927701        3.6503540167        5.5757732411



     Writing config-only to output data dir ./MoS2-V-O.save/
     NEW-OLD atomic charge density approx. for the potential

     negative rho (up, down):  2.133E-04 0.000E+00

     total cpu time spent up to now is      263.1 secs

     Self-consistent Calculation

     iteration #  1     ecut=    80.00 Ry     beta= 0.70
     Davidson diagonalization with overlap
     ethr =  1.00E-06,  avg # of iterations = 14.0

     negative rho (up, down):  8.960E-05 0.000E+00

     total cpu time spent up to now is      281.2 secs

     total energy              =   -2246.32987011 Ry
     estimated scf accuracy    <       0.01031434 Ry

     iteration #  2     ecut=    80.00 Ry     beta= 0.70
     Davidson diagonalization with overlap
     ethr =  3.31E-06,  avg # of iterations =  3.0

     negative rho (up, down):  7.087E-05 0.000E+00

     total cpu time spent up to now is      293.9 secs

     total energy              =   -2246.33048076 Ry
     estimated scf accuracy    <       0.00328693 Ry

     iteration #  3     ecut=    80.00 Ry     beta= 0.70
     Davidson diagonalization with overlap
     ethr =  1.05E-06,  avg # of iterations =  3.0

     negative rho (up, down):  6.506E-05 0.000E+00

     total cpu time spent up to now is      308.7 secs

     total energy              =   -2246.33053700 Ry
     estimated scf accuracy    <       0.00071186 Ry

     iteration #  4     ecut=    80.00 Ry     beta= 0.70
     Davidson diagonalization with overlap
     ethr =  2.28E-07,  avg # of iterations =  5.0

     negative rho (up, down):  6.097E-05 0.000E+00

     total cpu time spent up to now is      319.5 secs

     total energy              =   -2246.33061465 Ry
     estimated scf accuracy    <       0.00010130 Ry

     iteration #  5     ecut=    80.00 Ry     beta= 0.70
     Davidson diagonalization with overlap
     ethr =  3.25E-08,  avg # of iterations =  5.0

     negative rho (up, down):  4.860E-05 0.000E+00

     total cpu time spent up to now is      331.8 secs

     total energy              =   -2246.33062468 Ry
     estimated scf accuracy    <       0.00002823 Ry

     iteration #  6     ecut=    80.00 Ry     beta= 0.70
     Davidson diagonalization with overlap
     ethr =  9.05E-09,  avg # of iterations =  2.0

     negative rho (up, down):  3.646E-05 0.000E+00

     total cpu time spent up to now is      343.3 secs

     total energy              =   -2246.33062780 Ry
     estimated scf accuracy    <       0.00000946 Ry

     iteration #  7     ecut=    80.00 Ry     beta= 0.70
     Davidson diagonalization with overlap
     ethr =  3.03E-09,  avg # of iterations =  5.0

     negative rho (up, down):  2.929E-05 0.000E+00

     total cpu time spent up to now is      354.8 secs

     total energy              =   -2246.33063025 Ry
     estimated scf accuracy    <       0.00000240 Ry

     iteration #  8     ecut=    80.00 Ry     beta= 0.70
     Davidson diagonalization with overlap
     ethr =  7.69E-10,  avg # of iterations =  5.0

     negative rho (up, down):  3.360E-05 0.000E+00

     total cpu time spent up to now is      367.0 secs

     total energy              =   -2246.33063224 Ry
     estimated scf accuracy    <       0.00000086 Ry

     iteration #  9     ecut=    80.00 Ry     beta= 0.70
     Davidson diagonalization with overlap
     ethr =  2.75E-10,  avg # of iterations =  2.0

     negative rho (up, down):  5.659E-05 0.000E+00

     total cpu time spent up to now is      377.2 secs

     total energy              =   -2246.33063287 Ry
     estimated scf accuracy    <       0.00000028 Ry

     iteration # 10     ecut=    80.00 Ry     beta= 0.70
     Davidson diagonalization with overlap
     ethr =  8.90E-11,  avg # of iterations =  3.0

     negative rho (up, down):  1.841E-04 0.000E+00

     total cpu time spent up to now is      380.8 secs

     End of self-consistent calculation

          k = 0.0000 0.0000 0.0000 (105382 PWs)   bands (ev):

   -63.1070 -63.0384 -63.0336 -63.0170 -62.9894 -62.9843 -62.9771 -62.9697
   -62.9633 -62.9556 -62.9417 -62.8842 -37.4264 -37.3807 -37.3419 -37.3219
   -37.3026 -37.2983 -37.2780 -37.2515 -37.2419 -37.2366 -37.2296 -37.2166
   -37.2099 -37.1872 -37.1804 -37.1762 -37.1748 -37.1708 -37.1629 -37.1488
   -37.1441 -37.1242 -37.1150 -37.1082 -37.0962 -37.0898 -37.0800 -37.0710
   -37.0607 -37.0454 -37.0402 -37.0244 -37.0109 -36.9752 -36.8950 -36.8900
   -20.2240 -16.1177 -15.3393 -15.2919 -15.1571 -15.0659 -14.9185 -14.6843
   -14.6378 -14.6043 -14.5690 -14.5409 -14.4968 -14.4736 -14.3778 -14.3510
   -14.2851 -14.2684 -14.2256 -14.1336 -14.0479 -14.0246 -14.0105 -13.9583
    -7.8932  -7.8084  -7.6581  -7.5988  -7.4649  -7.4517  -7.3839  -7.3646
    -7.2826  -7.0833  -7.0132  -6.9247  -6.9146  -6.7872  -6.7290  -6.6397
    -6.6114  -6.5881  -6.4758  -6.3952  -6.2325  -6.1726  -6.1044  -6.0208
    -5.9468  -5.9310  -5.9016  -5.8798  -5.8532  -5.8053  -5.7449  -5.7316
    -5.6767  -5.5843  -5.5484  -5.3440  -5.3002  -5.2814  -5.2142  -5.1917
    -5.1523  -5.1092  -5.0322  -4.8622  -4.7789  -4.6709  -4.5333  -4.4684
    -4.4158  -4.3841  -4.2374  -4.1746  -4.0945  -4.0406  -4.0146  -3.9271
    -3.8852  -3.8327  -3.7991  -3.7343  -3.6982  -3.6844  -3.6542  -3.6095
    -3.5761  -3.5584  -3.4067  -3.3605  -3.1289  -3.1098  -3.0199  -2.9889
    -2.9300  -2.8777  -2.8499  -2.8386  -2.8299  -2.7833  -2.6467  -2.4494
    -2.3794  -2.1721  -2.0911  -1.9746  -1.0009  -0.8734  -0.6342  -0.3567
    -0.3410  -0.2282  -0.1325  -0.0888  -0.0260   0.0740   0.1151   0.1435
     0.1642   0.2082   0.2727   0.3138   0.3825   0.4004   0.4483   0.4804
     0.5097   0.5674   0.5953   0.6345   0.6609   0.6821   0.7491   0.8205
     0.8996   0.9347   1.0632

     the Fermi energy is    -1.4877 ev

!    total energy              =   -2246.33063308 Ry
     estimated scf accuracy    <       0.00000009 Ry
     smearing contrib. (-TS)   =      -0.00000003 Ry
     internal energy E=F+TS    =   -2246.33063305 Ry

     The total energy is F=E-TS. E is the sum of the following terms:
     one-electron contribution =  -18430.05636299 Ry
     hartree contribution      =    9202.25675847 Ry
     xc contribution           =    -392.01536910 Ry
     ewald contribution        =    7383.35268667 Ry
     one-center paw contrib.   =      -9.86834610 Ry

     convergence has been achieved in  10 iterations

     negative rho (up, down):  1.841E-04 0.000E+00

     Forces acting on atoms (cartesian axes, Ry/au):

     atom    1 type  1   force =    -0.00098987   -0.00592771   -0.00193751
     atom    2 type  2   force =    -0.00726222    0.00842707   -0.00133364
     atom    3 type  2   force =    -0.00943670    0.00584815   -0.01027485
     atom    4 type  1   force =     0.00525359    0.00172436   -0.00147731
     atom    5 type  2   force =    -0.00220443   -0.00056646   -0.01541206
     atom    6 type  2   force =     0.00374747    0.00384139   -0.00285937
     atom    7 type  1   force =     0.00383565   -0.00763938   -0.00150694
     atom    8 type  2   force =     0.00052160   -0.00491960    0.01079269
     atom    9 type  2   force =     0.01141047    0.00547195    0.00359504
     atom   10 type  1   force =    -0.00280891    0.00614086   -0.00613975
     atom   11 type  2   force =     0.00343983   -0.00196780   -0.00920566
     atom   12 type  2   force =    -0.00340052    0.00027183    0.00246543
     atom   13 type  1   force =     0.00311107   -0.01842494   -0.01317664
     atom   14 type  2   force =     0.00405981    0.00118430    0.00636098
     atom   15 type  2   force =    -0.00388945   -0.00043198   -0.01004247
     atom   16 type  1   force =     0.01246782    0.00717234   -0.01027465
     atom   17 type  2   force =     0.14598990   -0.01303699    0.15817813
     atom   18 type  2   force =    -0.00857133   -0.00109760    0.00392719
     atom   19 type  1   force =     0.00279808   -0.00541430    0.00198993
     atom   20 type  2   force =     0.00474127    0.00287611   -0.00932652
     atom   21 type  1   force =    -0.00176597    0.00388868    0.00284300
     atom   22 type  2   force =     0.00000611   -0.00273969   -0.00266156
     atom   23 type  2   force =     0.00033526   -0.00003891    0.00371804
     atom   24 type  1   force =    -0.00326284   -0.00049405   -0.00580157
     atom   25 type  2   force =     0.00890598    0.01062159   -0.00080076
     atom   26 type  2   force =    -0.01194960   -0.00487348   -0.00963788
     atom   27 type  1   force =    -0.00663787    0.00612954    0.00907615
     atom   28 type  2   force =    -0.00553680   -0.00236983   -0.00474944
     atom   29 type  2   force =    -0.00175138   -0.00121689   -0.00880775
     atom   30 type  1   force =    -0.00057953    0.00351381    0.00406366
     atom   31 type  2   force =     0.00013484    0.00523369    0.01261545
     atom   32 type  2   force =    -0.00776901    0.01092948   -0.00179209
     atom   33 type  1   force =     0.00163394   -0.00044080    0.00218214
     atom   34 type  2   force =    -0.00055589   -0.02630136   -0.01351727
     atom   35 type  2   force =    -0.00521988    0.00719729    0.00658718
     atom   36 type  3   force =    -0.12880049    0.00742936   -0.08765931
     The non-local contrib.  to forces
     atom    1 type  1   force =     0.00433608    0.02776894   -0.01318876
     atom    2 type  2   force =    -0.00170035   -0.00246951   -0.27288837
     atom    3 type  2   force =    -0.01052760   -0.00473491    0.26569377
     atom    4 type  1   force =    -0.00885803    0.00374275    0.01824502
     atom    5 type  2   force =     0.01523139   -0.02934474   -0.25191586
     atom    6 type  2   force =    -0.00187457    0.00472817    0.26052060
     atom    7 type  1   force =    -0.02186705    0.00115472   -0.01688341
[...]
     atom   28 type  2   force =    -0.00142918   -0.00740634   -0.27893296
     atom   29 type  2   force =    -0.00163548   -0.00762129    0.26542766
     atom   30 type  1   force =    -0.00034723    0.01987414    0.00672453
     atom   31 type  2   force =    -0.00723863    0.00176882   -0.26993554
     atom   32 type  2   force =     0.00661881   -0.01590372    0.26995490
     atom   33 type  1   force =    -0.00754767    0.00480995   -0.00133712
     atom   34 type  2   force =     0.00292094   -0.00882311   -0.27582430
     atom   35 type  2   force =    -0.00063117   -0.01535465    0.26649102
     atom   36 type  3   force =    -0.03976348   -0.04561415   -2.31587407
     The ionic contribution  to forces
     atom    1 type  1   force =     0.49502495    0.04036604    0.85349479
     atom    2 type  2   force =    -0.21051513   -0.20704011   38.56550801
     atom    3 type  2   force =     0.05397483   -0.18180136  -37.87630758
     atom    4 type  1   force =     0.06662258    0.52228193   -1.02953615
     atom    5 type  2   force =     0.28345284    1.07304526   37.62146959
     atom    6 type  2   force =     0.28829020   -0.44918175  -38.95216551
     atom    7 type  1   force =    -2.33122998   -1.13505613    0.46132467
     atom    8 type  2   force =    -1.17801247    0.46627220   37.92414711
     atom    9 type  2   force =     0.40858060    0.10847985  -38.48774249
     atom   10 type  1   force =    -0.46449811   -0.50382761    2.49272355
     atom   11 type  2   force =    -0.37882885   -1.44590560   38.25206275
     atom   12 type  2   force =     0.22777682    0.35867499  -38.38310204
     atom   13 type  1   force =     0.11230175   -0.49573328   -1.58093669
     atom   14 type  2   force =     0.59808951   -1.00478468   37.96955739
     atom   15 type  2   force =     0.11806695   -0.21482712  -38.35587863
     atom   16 type  1   force =     0.58710591    3.83426841   -2.51403167
     atom   17 type  2   force =     0.78084414    0.92330579   28.07449860
     atom   18 type  2   force =    -0.18302138   -0.38237917  -38.59867989
     atom   19 type  1   force =     2.76775543   -0.99154369    1.55025610
     atom   20 type  2   force =    -0.07231574    0.20407224  -39.53869386
     atom   21 type  1   force =     0.26873138   -0.78390555    0.11321689
     atom   22 type  2   force =     0.50780855   -1.35135101   38.31958644
     atom   23 type  2   force =    -0.23965123    0.31720537  -38.18271493
     atom   24 type  1   force =    -0.64781404   -0.06002205    1.16662610
     atom   25 type  2   force =    -0.39022040   -0.82094247   38.43133616
     atom   26 type  2   force =    -0.15717562   -0.17041345  -38.26144309
     atom   27 type  1   force =    -0.90289834    0.87354274   -3.48544613
     atom   28 type  2   force =    -0.98839596    0.42044969   37.41818318
     atom   29 type  2   force =    -0.03606457   -0.16678729  -38.38155624
     atom   30 type  1   force =    -0.32317712   -0.10850416    1.56453976
     atom   31 type  2   force =     0.59916533    1.23132300   37.67536764
     atom   32 type  2   force =    -0.34839752    0.18308121  -38.60997820
     atom   33 type  1   force =     0.27345842   -0.94277221    2.73485202
     atom   34 type  2   force =    -0.18786147   -0.45066295   38.87001487
     atom   35 type  2   force =    -0.04402332    0.15284728  -37.77031262
     atom   36 type  3   force =     0.64705107    1.15822564   49.94976008
     The local contribution  to forces
     atom    1 type  1   force =    -0.49294820   -0.06477410   -0.84669284
     atom    2 type  2   force =     0.20952220    0.21667436  -38.31676370
     atom    3 type  2   force =    -0.05033358    0.19004065   37.62855962
     atom    4 type  1   force =    -0.06884634   -0.53155539    1.01660127
     atom    5 type  2   force =    -0.28353518   -1.05801440  -37.38241754
     atom    6 type  2   force =    -0.28911956    0.45099141   38.71134966
     atom    7 type  1   force =     2.34848168    1.12300227   -0.44220346
     atom    8 type  2   force =     1.16861090   -0.46677770  -37.67470976
     atom    9 type  2   force =    -0.40055585   -0.09245112   38.23899814
     atom   10 type  1   force =     0.46370134    0.49782800   -2.49450545
     atom   11 type  2   force =     0.37401035    1.44617788  -38.01127739
     atom   12 type  2   force =    -0.21978625   -0.34393439   38.14100559
     atom   13 type  1   force =    -0.11061219    0.46579166    1.57370081
     atom   14 type  2   force =    -0.59702599    1.01418098  -37.71764022
     atom   15 type  2   force =    -0.11725848    0.22419562   38.11557043
     atom   16 type  1   force =    -0.57821238   -3.85572004    2.53342541
     atom   17 type  2   force =    -0.77060944   -0.92782536  -28.36253499
     atom   18 type  2   force =     0.18234277    0.38612986   38.34222172
     atom   19 type  1   force =    -2.77832238    0.99031318   -1.52595527
     atom   20 type  2   force =     0.07099656   -0.19153815   39.29726686
     atom   21 type  1   force =    -0.26916474    0.75887409   -0.11659539
     atom   22 type  2   force =    -0.50160909    1.35161374  -38.07936439
     atom   23 type  2   force =     0.22969124   -0.30374109   37.93727325
     atom   24 type  1   force =     0.64517882    0.04542424   -1.16508396
     atom   25 type  2   force =     0.38943287    0.83032178  -38.18190210
     atom   26 type  2   force =     0.15367493    0.17945015   38.01625216
     atom   27 type  1   force =     0.89186645   -0.87033258    3.46092842
     atom   28 type  2   force =     0.98842883   -0.41444976  -37.16014990
     atom   29 type  2   force =     0.03731910    0.17475005   38.13691973
     atom   30 type  1   force =     0.32323473    0.08869168   -1.57168551
     atom   31 type  2   force =    -0.59255829   -1.23202075  -37.42666192
     atom   32 type  2   force =     0.34236437   -0.16912660   38.36063412
     atom   33 type  1   force =    -0.26559159    0.93787028   -2.73428877
     atom   34 type  2   force =     0.18591162    0.45935901  -38.61578056
     atom   35 type  2   force =     0.04463067   -0.13908175   37.52438324
     atom   36 type  3   force =    -0.60962489   -1.11359129  -47.66105847
     The core correction contribution to forces
     atom    1 type  1   force =     0.00000000    0.00000000    0.00000000
     atom    2 type  2   force =    -0.00013474    0.00042664    0.02095085
     atom    3 type  2   force =     0.00025665    0.00030585   -0.02093937
     atom    4 type  1   force =     0.00000000    0.00000000    0.00000000
     atom    5 type  2   force =    -0.00014651    0.00063390    0.02089858
     atom    6 type  2   force =     0.00013030   -0.00043668   -0.02077201
     atom    7 type  1   force =     0.00000000    0.00000000    0.00000000
     atom    8 type  2   force =    -0.00056585    0.00024121    0.02111938
     atom    9 type  2   force =     0.00096006    0.00085168   -0.02098900
     atom   10 type  1   force =     0.00000000    0.00000000    0.00000000
     atom   11 type  2   force =    -0.00017667   -0.00034869    0.02074298
     atom   12 type  2   force =     0.00061337    0.00111675   -0.02081121
     atom   13 type  1   force =     0.00000000    0.00000000    0.00000000
     atom   14 type  2   force =     0.00011717    0.00020677    0.02131963
     atom   15 type  2   force =     0.00009603    0.00044253   -0.02069883
     atom   16 type  1   force =     0.00000000    0.00000000    0.00000000
     atom   17 type  2   force =     0.00062381   -0.00028271   -0.01005330
     atom   18 type  2   force =    -0.00017375   -0.00028235   -0.02125801
     atom   19 type  1   force =     0.00000000    0.00000000    0.00000000
     atom   20 type  2   force =    -0.00023316    0.00071677   -0.02118002
     atom   21 type  1   force =     0.00000000    0.00000000    0.00000000
     atom   22 type  2   force =     0.00015364   -0.00016852    0.02071452
     atom   23 type  2   force =    -0.00087638    0.00097213   -0.02087693
     atom   24 type  1   force =     0.00000000    0.00000000    0.00000000
     atom   25 type  2   force =    -0.00000591    0.00051018    0.02125748
     atom   26 type  2   force =    -0.00031828    0.00030033   -0.02091040
     atom   27 type  1   force =     0.00000000    0.00000000    0.00000000
     atom   28 type  2   force =     0.00008538    0.00057381    0.02152264
     atom   29 type  2   force =     0.00011548    0.00012025   -0.02068881
     atom   30 type  1   force =     0.00000000    0.00000000    0.00000000
     atom   31 type  2   force =     0.00041713    0.00015861    0.02122864
     atom   32 type  2   force =    -0.00057385    0.00088455   -0.02102862
     atom   33 type  1   force =     0.00000000    0.00000000    0.00000000
     atom   34 type  2   force =    -0.00020676    0.00033097    0.02134361
     atom   35 type  2   force =     0.00002806    0.00087387   -0.02095499
     atom   36 type  3   force =     0.00044209    0.00046317    0.02458760
     The Hubbard contrib.    to forces
     atom    1 type  1   force =     0.00000000    0.00000000    0.00000000
     atom    2 type  2   force =     0.00000000    0.00000000    0.00000000
     atom    3 type  2   force =     0.00000000    0.00000000    0.00000000
     atom    4 type  1   force =     0.00000000    0.00000000    0.00000000
     atom    5 type  2   force =     0.00000000    0.00000000    0.00000000
     atom    6 type  2   force =     0.00000000    0.00000000    0.00000000
     atom    7 type  1   force =     0.00000000    0.00000000    0.00000000
     atom    8 type  2   force =     0.00000000    0.00000000    0.00000000
     atom    9 type  2   force =     0.00000000    0.00000000    0.00000000
     atom   10 type  1   force =     0.00000000    0.00000000    0.00000000
     atom   11 type  2   force =     0.00000000    0.00000000    0.00000000
     atom   12 type  2   force =     0.00000000    0.00000000    0.00000000
     atom   13 type  1   force =     0.00000000    0.00000000    0.00000000
     atom   14 type  2   force =     0.00000000    0.00000000    0.00000000
     atom   15 type  2   force =     0.00000000    0.00000000    0.00000000
     atom   16 type  1   force =     0.00000000    0.00000000    0.00000000
     atom   17 type  2   force =     0.00000000    0.00000000    0.00000000
     atom   18 type  2   force =     0.00000000    0.00000000    0.00000000
     atom   19 type  1   force =     0.00000000    0.00000000    0.00000000
     atom   20 type  2   force =     0.00000000    0.00000000    0.00000000
     atom   21 type  1   force =     0.00000000    0.00000000    0.00000000
     atom   22 type  2   force =     0.00000000    0.00000000    0.00000000
     atom   23 type  2   force =     0.00000000    0.00000000    0.00000000
     atom   24 type  1   force =     0.00000000    0.00000000    0.00000000
     atom   25 type  2   force =     0.00000000    0.00000000    0.00000000
     atom   26 type  2   force =     0.00000000    0.00000000    0.00000000
     atom   27 type  1   force =     0.00000000    0.00000000    0.00000000
     atom   28 type  2   force =     0.00000000    0.00000000    0.00000000
     atom   29 type  2   force =     0.00000000    0.00000000    0.00000000
     atom   30 type  1   force =     0.00000000    0.00000000    0.00000000
     atom   31 type  2   force =     0.00000000    0.00000000    0.00000000
     atom   32 type  2   force =     0.00000000    0.00000000    0.00000000
     atom   33 type  1   force =     0.00000000    0.00000000    0.00000000
     atom   34 type  2   force =     0.00000000    0.00000000    0.00000000
     atom   35 type  2   force =     0.00000000    0.00000000    0.00000000
     atom   36 type  3   force =     0.00000000    0.00000000    0.00000000
     The SCF correction term to forces
     atom    1 type  1   force =    -0.00002180    0.00002580   -0.00000436
     atom    2 type  2   force =    -0.00001206    0.00000039   -0.00001289
     atom    3 type  2   force =    -0.00000175    0.00000292   -0.00000352
     atom    4 type  1   force =    -0.00005514    0.00001999   -0.00002060
     atom    5 type  2   force =    -0.00003007    0.00001432   -0.00000119
     atom    6 type  2   force =    -0.00000660    0.00001584    0.00000242
     atom    7 type  1   force =    -0.00001489   -0.00003148   -0.00002360
     atom    8 type  2   force =    -0.00001643   -0.00000196   -0.00002024
     atom    9 type  2   force =    -0.00000710   -0.00000409   -0.00000126
     atom   10 type  1   force =    -0.00000845   -0.00000972   -0.00002301
     atom   11 type  2   force =    -0.00001133   -0.00000871   -0.00001231
     atom   12 type  2   force =    -0.00000629   -0.00000948   -0.00000170
     atom   13 type  1   force =     0.00004436    0.00002546   -0.00002370
     atom   14 type  2   force =     0.00000019    0.00001398   -0.00000825
     atom   15 type  2   force =    -0.00000744    0.00000388   -0.00000109
     atom   16 type  1   force =     0.00000727    0.00001684    0.00001252
     atom   17 type  2   force =     0.00006317    0.00001107    0.00000632
     atom   18 type  2   force =     0.00001451    0.00000662    0.00000194
     atom   19 type  1   force =     0.00003754   -0.00002339   -0.00002239
     atom   20 type  2   force =     0.00000234   -0.00000968    0.00000507
     atom   21 type  1   force =     0.00000741   -0.00000642   -0.00002210
     atom   22 type  2   force =     0.00000749   -0.00000835   -0.00001391
     atom   23 type  2   force =     0.00000234   -0.00000892   -0.00000201
     atom   24 type  1   force =    -0.00000359   -0.00000059   -0.00003270
     atom   25 type  2   force =     0.00000484   -0.00000814   -0.00002752
     atom   26 type  2   force =     0.00000567    0.00000271   -0.00000358
     atom   27 type  1   force =     0.00002833    0.00000914   -0.00003894
     atom   28 type  2   force =    -0.00001691    0.00000522   -0.00002867
     atom   29 type  2   force =    -0.00000503    0.00000419   -0.00000721
     atom   30 type  1   force =    -0.00001117   -0.00000967   -0.00002641
     atom   31 type  2   force =     0.00001354    0.00001029   -0.00001817
     atom   32 type  2   force =     0.00000640    0.00000400   -0.00000639
     atom   33 type  1   force =     0.00001076   -0.00001545   -0.00002864
     atom   34 type  2   force =    -0.00000333   -0.00000687   -0.00001416
     atom   35 type  2   force =     0.00000108   -0.00000881   -0.00000632
     atom   36 type  3   force =     0.00015921    0.00001585   -0.00004250

     Total force =     0.007951     Total SCF correction =     0.000242
     Energy error            =      9.3E-05 Ry
     Gradient error          =      3.6E-03 Ry/Bohr

     bfgs converged in  21 scf cycles and  20 bfgs steps
     (criteria: energy <  1.0E-04 Ry, force <  1.0E-02 Ry/Bohr)

     End of BFGS Geometry Optimization

     Final energy             =   -2246.4441598872 Ry

     File ./MoS2-V-O.bfgs deleted, as requested
Begin final coordinates

ATOMIC_POSITIONS (angstrom)
Mo            6.5750066806        1.7654038447        2.7546380188
S             8.1425024076        0.8557705684        4.3684111388
S             8.1606268844        0.8401668566        1.1801713912
Mo            8.1407136213        4.4898911097        2.7074831638
S             6.5354714980        3.6834673168        4.3109678378
S             6.5827230101        3.5594313109        1.0953212293
Mo            6.5548078127        7.1813398602        2.6492736007
S             8.1052085721        6.3010445130        4.3002993627
S             8.1896614354        6.3291277492        1.1086872801
Mo            8.1518412149        9.9361310427        2.7755467100
S             6.5366987371        8.9352664134        4.3172384092
S             6.6113699374        9.0398570956        1.1243272643
Mo            3.4387281623        1.7167093501        2.7439466142
S             5.0143862328        0.8173583498        4.3443834597
S             5.0197577658        0.8318568613        1.1531477466
Mo            5.0464537491        4.5623114014        2.6354544949
S             3.4894576494        3.6471297621        4.2094883063
S             3.4502292354        3.5595235142        1.1254268741
Mo            3.5021962017        7.1855409436        2.6771158669
S             5.0184634185        6.3373478766        1.0249606984
Mo            5.0170547974        9.9112397569        2.7309403640
S             3.4914728707        8.9520303213        4.3326810664
S             3.4114555630        9.0350481996        1.1412058296
Mo            0.2857036741        1.7424547960        2.7714711884
S             1.8722638783        0.8486240052        4.3805288862
S             1.8427321111        0.8190830266        1.1699694879
Mo            1.8695559899        4.5132905331        2.7010134207
S             0.2919340682        3.6169837706        4.3117230482
S             0.2819688721        3.5488864227        1.1385338157
Mo            0.2981531911        7.2176196304        2.7485791084
S             1.9405509191        6.2991283018        4.3180083339
S             1.8785339166        6.3496998124        1.1109165132
Mo            1.8613122004        9.9363846171        2.7849624066
S             0.2751436689        9.0238653234        4.3768130089
S             0.2826522881        9.0528808512        1.1871114165
O             3.5085592204        3.6820179685        5.7095925096
End final coordinates



     Writing all to output data dir ./MoS2-V-O.save/
 
     init_run     :      4.76s CPU      5.30s WALL (       1 calls)
     electrons    :   1895.37s CPU   2149.41s WALL (      21 calls)
     update_pot   :     61.86s CPU     65.99s WALL (      20 calls)
     forces       :     59.08s CPU     67.32s WALL (      21 calls)

     Called by init_run:
     wfcinit      :      0.50s CPU      0.56s WALL (       1 calls)
     potinit      :      2.41s CPU      2.67s WALL (       1 calls)
     hinit0       :      0.47s CPU      0.50s WALL (       1 calls)

     Called by electrons:
     c_bands      :    288.94s CPU    296.04s WALL (     195 calls)
     sum_band     :    117.45s CPU    149.70s WALL (     195 calls)
     v_of_rho     :    185.74s CPU    226.83s WALL (     207 calls)
     newd         :     68.03s CPU     99.44s WALL (     207 calls)
     PAW_pot      :      8.22s CPU      8.25s WALL (     227 calls)
     mix_rho      :   1248.84s CPU   1393.24s WALL (     195 calls)

     Called by c_bands:
     init_us_2    :      4.52s CPU      4.85s WALL (     411 calls)
     init_us_2:cp :      4.51s CPU      4.85s WALL (     411 calls)
     regterg      :    273.86s CPU    280.62s WALL (     195 calls)

     Called by *egterg:
     rdiaghg      :     18.06s CPU     18.25s WALL (     986 calls)
     h_psi        :    175.02s CPU    176.58s WALL (    1016 calls)
     s_psi        :     18.13s CPU     18.24s WALL (    1016 calls)
     g_psi        :      0.88s CPU      0.89s WALL (     820 calls)

     Called by h_psi:
     h_psi:calbec :     19.77s CPU     19.87s WALL (    1016 calls)
     vloc_psi     :    134.81s CPU    136.12s WALL (    1016 calls)
     add_vuspsi   :     18.23s CPU     18.36s WALL (    1016 calls)

     General routines
     calbec       :     29.22s CPU     29.37s WALL (    1315 calls)
     fft          :    124.52s CPU    144.61s WALL (   13853 calls)
     ffts         :    560.79s CPU    700.51s WALL (  299547 calls)
     fftw         :     86.13s CPU     86.87s WALL (  118154 calls)
     interpolate  :      2.66s CPU      3.03s WALL (     207 calls)
 
     Parallel routines
 
     PWSCF        :  33m50.56s CPU  38m22.19s WALL

 
   This run was terminated on:  15:59:43   1Nov2023            

=------------------------------------------------------------------------------=
   JOB DONE.
=------------------------------------------------------------------------------=
