
     Program PWSCF v.7.2 starts on  1Nov2023 at 20:24: 8 

     This program is part of the open-source Quantum ESPRESSO suite
     for quantum simulation of materials; please cite
         "P. Giannozzi et al., J. Phys.:Condens. Matter 21 395502 (2009);
         "P. Giannozzi et al., J. Phys.:Condens. Matter 29 465901 (2017);
         "P. Giannozzi et al., J. Chem. Phys. 152 154105 (2020);
          URL http://www.quantum-espresso.org", 
     in publications or presentations arising from this work. More details at
     http://www.quantum-espresso.org/quote

     Parallel version (MPI & OpenMP), running on      48 processor cores
     Number of MPI processes:                48
     Threads/MPI process:                     1

     MPI processes distributed on     1 nodes
     44436 MiB available memory on the printing compute node when the environment starts
 
     Waiting for input...
     Reading input from standard input
Warning: card &CELL ignored
Warning: card CELL_DYNAMICS = 'BFGS', ignored
Warning: card CELL_DOFREE = '2DXY' ignored
Warning: card / ignored

     Current dimensions of program PWSCF are:
     Max number of different atomic species (ntypx) = 10
     Max number of k-points (npk) =  40000
     Max angular momentum in pseudopotentials (lmaxx) =  4
     file O.pbe-n-kjpaw_psl.0.1.UPF: wavefunction(s)  2P renormalized

     IMPORTANT: XC functional enforced from input :
     Exchange-correlation= RVV10
                           (   1   4  13   4  26   0   0)
     Any further DFT definition will be discarded
     Please, verify this is what you really want


     gamma-point specific algorithms are used
     signal trapping enabled: kill the code with -SIGUSR1 to stop cleanly the simulation 
 
     R & G space division:  proc/nbgrp/npool/nimage =      48
     Subspace diagonalization in iterative solution of the eigenvalue problem:
     one sub-group per band group will be used
     scalapack distributed-memory algorithm (size of sub-group:  2*  2 procs)

 
     Parallelization info
     --------------------
     sticks:   dense  smooth     PW     G-vecs:    dense   smooth      PW
     Min         396     194     47               101632    35090    4376
     Max         398     196     50               101674    35128    4410
     Sum       19091    9389   2349              4879585  1685513  210763
 
     Using Slab Decomposition
 


     bravais-lattice index     =            0
     lattice parameter (alat)  =      17.8707  a.u.
     unit-cell volume          =   17436.2743 (a.u.)^3
     number of atoms/cell      =           36
     number of atomic types    =            3
     number of electrons       =       312.00
     number of Kohn-Sham states=          187
     kinetic-energy cutoff     =      80.0000  Ry
     charge density cutoff     =     650.0000  Ry
     scf convergence threshold =      1.0E-06
     mixing beta               =       0.7000
     number of iterations used =            8  local-TF  mixing
     energy convergence thresh.=      1.0E-04
     force convergence thresh. =      1.0E-02
     Exchange-correlation= RVV10
                           (   1   4  13   4  26   0   0)
     nstep                     =          200


     celldm(1)=  17.870686  celldm(2)=   0.000000  celldm(3)=   0.000000
     celldm(4)=   0.000000  celldm(5)=   0.000000  celldm(6)=   0.000000

     crystal axes: (cart. coord. in units of alat)
               a(1) = (   1.000000   0.000000   0.000000 )  
               a(2) = (   0.000000   1.155671   0.000000 )  
               a(3) = (   0.000000   0.000000   2.643601 )  

     reciprocal axes: (cart. coord. in units 2 pi/alat)
               b(1) = (  1.000000  0.000000  0.000000 )  
               b(2) = (  0.000000  0.865298  0.000000 )  
               b(3) = (  0.000000  0.000000  0.378272 )  


     PseudoPot. # 1 for Mo read from file:
     ../pseudo/Mo_ONCV_PBE-1.0.oncvpsp.upf
     MD5 check sum: 1b5d28e075c9ccadda658a603575cd1f
     Pseudo is Norm-conserving, Zval = 14.0
     Generated using ONCVPSP code by D. R. Hamann
     Using radial grid of 1526 points,  6 beta functions with: 
                l(1) =   0
                l(2) =   0
                l(3) =   1
                l(4) =   1
                l(5) =   2
                l(6) =   2

     PseudoPot. # 2 for S  read from file:
     ../pseudo/s_pbe_v1.4.uspp.F.UPF
     MD5 check sum: 88d86576ff6df21479756cfb9bdac1df
     Pseudo is Ultrasoft + core correction, Zval =  6.0
     Generated by new atomic code, or converted to UPF format
     Using radial grid of  907 points,  6 beta functions with: 
                l(1) =   0
                l(2) =   0
                l(3) =   1
                l(4) =   1
                l(5) =   2
                l(6) =   2
     Q(r) pseudized with  8 coefficients,  rinner =    1.300   1.300   1.300
                                                       1.300   1.300

     PseudoPot. # 3 for O  read from file:
     ../pseudo/O.pbe-n-kjpaw_psl.0.1.UPF
     MD5 check sum: 0234752ac141de4415c5fc33072bef88
     Pseudo is Projector augmented-wave + core cor, Zval =  6.0
     Generated using "atomic" code by A. Dal Corso  v.5.0.99 svn rev. 10869
     Shape of augmentation charge: BESSEL
     Using radial grid of 1095 points,  4 beta functions with: 
                l(1) =   0
                l(2) =   0
                l(3) =   1
                l(4) =   1
     Q(r) pseudized with 0 coefficients 


     atomic species   valence    mass     pseudopotential
        Mo            14.00    95.94000     Mo( 1.00)
        S              6.00    32.06500     S ( 1.00)
        O              6.00    15.99940     O ( 1.00)

     No symmetry found



   Cartesian axes

     site n.     atom                  positions (alat units)
         1           Mo  tau(   1) = (   0.6952221   0.1890506   0.2985846  )
         2           S   tau(   2) = (   0.8646417   0.0856217   0.4689279  )
         3           S   tau(   3) = (   0.8663890   0.0857843   0.1351291  )
         4           Mo  tau(   4) = (   0.8560186   0.4753274   0.2873942  )
         5           S   tau(   5) = (   0.6873294   0.3936244   0.4596353  )
         6           S   tau(   6) = (   0.6929804   0.3713468   0.1185692  )
         7           Mo  tau(   7) = (   0.6862796   0.7633098   0.2825370  )
         8           S   tau(   8) = (   0.8545980   0.6708292   0.4486168  )
         9           S   tau(   9) = (   0.8545123   0.6666874   0.1146125  )
        10           Mo  tau(  10) = (   0.8629403   1.0471007   0.3006803  )
        11           S   tau(  11) = (   0.6868280   0.9456650   0.4634891  )
        12           S   tau(  12) = (   0.6998113   0.9568511   0.1205389  )
        13           Mo  tau(  13) = (   0.3618216   0.1847309   0.2935964  )
        14           S   tau(  14) = (   0.5260962   0.0863870   0.4600448  )
        15           S   tau(  15) = (   0.5348379   0.0894875   0.1297123  )
        16           Mo  tau(  16) = (   0.5265817   0.4772436   0.2784130  )
        17           S   tau(  17) = (   0.3624753   0.3882513   0.4525556  )
        18           S   tau(  18) = (   0.3635411   0.3752055   0.1119148  )
        19           Mo  tau(  19) = (   0.3652268   0.7630864   0.2781795  )
        20           S   tau(  20) = (   0.5269494   0.6690381   0.1096838  )
        21           Mo  tau(  21) = (   0.5300192   1.0470394   0.2900995  )
        22           S   tau(  22) = (   0.3670346   0.9457522   0.4574073  )
        23           S   tau(  23) = (   0.3604225   0.9585725   0.1159032  )
        24           Mo  tau(  24) = (   0.0313099   0.1847895   0.3013130  )
        25           S   tau(  25) = (   0.1956761   0.0838230   0.4650863  )
        26           S   tau(  26) = (   0.1967693   0.0903508   0.1278874  )
        27           Mo  tau(  27) = (   0.1967578   0.4753919   0.2813011  )
        28           S   tau(  28) = (   0.0287851   0.3864324   0.4586755  )
        29           S   tau(  29) = (   0.0244514   0.3729871   0.1239344  )
        30           Mo  tau(  30) = (   0.0286728   0.7631204   0.2856894  )
        31           S   tau(  31) = (   0.2011512   0.6675435   0.4465001  )
        32           S   tau(  32) = (   0.1969214   0.6672839   0.1104564  )
        33           Mo  tau(  33) = (   0.1950294   1.0511147   0.2932237  )
        34           S   tau(  34) = (   0.0312912   0.9612169   0.4667423  )
        35           S   tau(  35) = (   0.0292670   0.9563028   0.1216485  )
        36           O   tau(  36) = (   0.2222222   0.8988550   0.5792558  )

     number of k points=     1  Gaussian smearing, width (Ry)=  0.0100
                       cart. coord. in units 2pi/alat
        k(    1) = (   0.0000000   0.0000000   0.0000000), wk =   2.0000000

     Dense  grid:  2439793 G-vectors     FFT dimensions: ( 150, 180, 384)

     Smooth grid:   842757 G-vectors     FFT dimensions: ( 108, 120, 270)

     Estimated max dynamical RAM per process >     269.22 MB

     Estimated total dynamical RAM >      12.62 GB

     Initial potential from superposition of free atoms

     starting charge     311.9873, renormalised to     312.0000

     negative rho (up, down):  2.759E-04 0.000E+00


---------------------------------------------------------------------------------
Carrying out rVV10 run using the following parameters:
Nqs =      20    Nr_points =    1024   r_max =   100.000
b_value =  6.30000    beta =  0.00901
     q_mesh =  0.00010000  0.00030000  0.00058939  0.00100810
               0.00161396  0.00249058  0.00375900  0.00559430
               0.00824984  0.01209221  0.01765183  0.02569619
               0.03733578  0.05417739  0.07854596  0.11380545
               0.16482331  0.23864234  0.34545298  0.50000000

Gradients computed in Reciprocal space

---------------------------------------------------------------------------------


     Starting wfcs are  216 randomized atomic wfcs
     Checking if some PAW data can be deallocated... 

     total cpu time spent up to now is        5.3 secs

     Self-consistent Calculation

     iteration #  1     ecut=    80.00 Ry     beta= 0.70
     Davidson diagonalization with overlap
     ethr =  1.00E-02,  avg # of iterations =  2.0

     Threshold (ethr) on eigenvalues was too large:
     Diagonalizing with lowered threshold

     Davidson diagonalization with overlap
     ethr =  4.47E-04,  avg # of iterations =  4.0

     negative rho (up, down):  4.359E-08 0.000E+00

     total cpu time spent up to now is       20.2 secs

     total energy              =   -2246.17514802 Ry
     estimated scf accuracy    <       1.64016283 Ry

     iteration #  2     ecut=    80.00 Ry     beta= 0.70
     Davidson diagonalization with overlap
     ethr =  5.26E-04,  avg # of iterations =  4.0

     total cpu time spent up to now is       25.7 secs

     total energy              =   -2246.18185981 Ry
     estimated scf accuracy    <       0.87282800 Ry

     iteration #  3     ecut=    80.00 Ry     beta= 0.70
     Davidson diagonalization with overlap
     ethr =  2.80E-04,  avg # of iterations =  4.0

     total cpu time spent up to now is       30.1 secs

     total energy              =   -2246.16550312 Ry
     estimated scf accuracy    <       0.28994400 Ry

     iteration #  4     ecut=    80.00 Ry     beta= 0.70
     Davidson diagonalization with overlap
     ethr =  9.29E-05,  avg # of iterations =  8.0

     total cpu time spent up to now is       34.7 secs

     total energy              =   -2246.21582106 Ry
     estimated scf accuracy    <       0.04447975 Ry

     iteration #  5     ecut=    80.00 Ry     beta= 0.70
     Davidson diagonalization with overlap
     c_bands:  1 eigenvalues not converged
     ethr =  1.43E-05,  avg # of iterations = 20.0

     total cpu time spent up to now is       39.7 secs

     total energy              =   -2246.21696076 Ry
     estimated scf accuracy    <       0.01877602 Ry

     iteration #  6     ecut=    80.00 Ry     beta= 0.70
     Davidson diagonalization with overlap
     ethr =  6.02E-06,  avg # of iterations = 10.0

     total cpu time spent up to now is       44.1 secs

     total energy              =   -2246.21655245 Ry
     estimated scf accuracy    <       0.01304077 Ry

     iteration #  7     ecut=    80.00 Ry     beta= 0.70
     Davidson diagonalization with overlap
     ethr =  4.18E-06,  avg # of iterations =  2.0

     total cpu time spent up to now is       48.3 secs

     total energy              =   -2246.21589883 Ry
     estimated scf accuracy    <       0.00815247 Ry

     iteration #  8     ecut=    80.00 Ry     beta= 0.70
     Davidson diagonalization with overlap
     ethr =  2.61E-06,  avg # of iterations =  8.0

     negative rho (up, down):  6.085E-04 0.000E+00

     total cpu time spent up to now is       55.9 secs

     total energy              =   -2246.21457851 Ry
     estimated scf accuracy    <       0.00507893 Ry

     iteration #  9     ecut=    80.00 Ry     beta= 0.70
     Davidson diagonalization with overlap
     ethr =  1.63E-06,  avg # of iterations =  2.0

     negative rho (up, down):  1.360E-02 0.000E+00

     total cpu time spent up to now is       62.7 secs

     total energy              =   -2246.21446964 Ry
     estimated scf accuracy    <       0.00247594 Ry

     iteration # 10     ecut=    80.00 Ry     beta= 0.70
     Davidson diagonalization with overlap
     ethr =  7.94E-07,  avg # of iterations =  2.0

     negative rho (up, down):  1.838E-02 0.000E+00

     total cpu time spent up to now is       69.3 secs

     total energy              =   -2246.21428380 Ry
     estimated scf accuracy    <       0.00142105 Ry

     iteration # 11     ecut=    80.00 Ry     beta= 0.70
     Davidson diagonalization with overlap
     ethr =  4.55E-07,  avg # of iterations =  2.0

     negative rho (up, down):  1.907E-02 0.000E+00

     total cpu time spent up to now is       76.7 secs

     total energy              =   -2246.21440627 Ry
     estimated scf accuracy    <       0.00053298 Ry

     iteration # 12     ecut=    80.00 Ry     beta= 0.70
     Davidson diagonalization with overlap
     ethr =  1.71E-07,  avg # of iterations =  5.0

     negative rho (up, down):  4.658E-03 0.000E+00

     total cpu time spent up to now is       85.4 secs

     total energy              =   -2246.21441020 Ry
     estimated scf accuracy    <       0.00008448 Ry

     iteration # 13     ecut=    80.00 Ry     beta= 0.70
     Davidson diagonalization with overlap
     ethr =  2.71E-08,  avg # of iterations =  8.0

     negative rho (up, down):  2.154E-03 0.000E+00

     total cpu time spent up to now is       95.0 secs

     total energy              =   -2246.21445955 Ry
     estimated scf accuracy    <       0.00001983 Ry

     iteration # 14     ecut=    80.00 Ry     beta= 0.70
     Davidson diagonalization with overlap
     ethr =  6.36E-09,  avg # of iterations =  5.0

     negative rho (up, down):  8.989E-04 0.000E+00

     total cpu time spent up to now is      105.4 secs

     total energy              =   -2246.21446845 Ry
     estimated scf accuracy    <       0.00000607 Ry

     iteration # 15     ecut=    80.00 Ry     beta= 0.70
     Davidson diagonalization with overlap
     ethr =  1.94E-09,  avg # of iterations =  5.0

     negative rho (up, down):  5.066E-04 0.000E+00

     total cpu time spent up to now is      114.4 secs

     total energy              =   -2246.21447399 Ry
     estimated scf accuracy    <       0.00000357 Ry

     iteration # 16     ecut=    80.00 Ry     beta= 0.70
     Davidson diagonalization with overlap
     ethr =  1.14E-09,  avg # of iterations =  2.0

     negative rho (up, down):  3.612E-04 0.000E+00

     total cpu time spent up to now is      122.6 secs

     total energy              =   -2246.21447668 Ry
     estimated scf accuracy    <       0.00000107 Ry

     iteration # 17     ecut=    80.00 Ry     beta= 0.70
     Davidson diagonalization with overlap
     ethr =  3.44E-10,  avg # of iterations =  5.0

     negative rho (up, down):  2.022E-04 0.000E+00

     total cpu time spent up to now is      126.9 secs

     End of self-consistent calculation

          k = 0.0000 0.0000 0.0000 (105382 PWs)   bands (ev):

   -63.1065 -62.9892 -62.9664 -62.9631 -62.9538 -62.9485 -62.9290 -62.9018
   -62.8997 -62.8804 -62.8751 -62.8667 -37.4032 -37.3728 -37.2876 -37.2704
   -37.2559 -37.2476 -37.2267 -37.2020 -37.1872 -37.1768 -37.1731 -37.1531
   -37.1471 -37.1359 -37.1283 -37.1200 -37.1158 -37.1121 -37.1017 -37.0990
   -37.0795 -37.0706 -37.0653 -37.0545 -37.0500 -37.0328 -37.0205 -37.0178
   -37.0104 -36.9950 -36.9678 -36.9647 -36.9345 -36.9263 -36.8868 -36.8485
   -19.7965 -16.0416 -15.2938 -15.2294 -15.1100 -15.0346 -14.8717 -14.7472
   -14.6001 -14.5551 -14.5240 -14.5056 -14.4528 -14.4303 -14.3488 -14.2966
   -14.2317 -14.1992 -14.1663 -14.1075 -13.9712 -13.9675 -13.9238 -13.9132
    -7.8207  -7.7034  -7.5745  -7.4268  -7.4004  -7.3838  -7.3401  -7.3228
    -7.2267  -7.0129  -6.9898  -6.9134  -6.8692  -6.8111  -6.6758  -6.5997
    -6.5521  -6.5226  -6.3881  -6.3825  -6.1696  -6.1100  -6.0349  -5.9535
    -5.9072  -5.8781  -5.8455  -5.8142  -5.7788  -5.7457  -5.6684  -5.6488
    -5.6316  -5.5655  -5.4866  -5.3776  -5.2983  -5.2288  -5.1500  -5.1308
    -5.0995  -5.0080  -4.9754  -4.8052  -4.7431  -4.5991  -4.4289  -4.3913
    -4.3798  -4.3456  -4.1893  -4.0996  -4.0018  -3.9508  -3.9369  -3.8977
    -3.8718  -3.7771  -3.7219  -3.6814  -3.6688  -3.6143  -3.5852  -3.5720
    -3.4947  -3.4788  -3.3390  -3.3135  -3.1181  -3.0361  -2.9658  -2.9191
    -2.8566  -2.8383  -2.8010  -2.7819  -2.7479  -2.6992  -2.5401  -2.3763
    -2.1758  -2.0995  -2.0142  -1.8533  -1.5844  -0.9386  -0.7333  -0.3131
    -0.2217  -0.1959  -0.1491  -0.0482   0.0440   0.0744   0.1149   0.1412
     0.1853   0.2357   0.3175   0.3772   0.4078   0.4461   0.4888   0.4987
     0.5844   0.5974   0.6237   0.6796   0.7245   0.7459   0.8131   0.8177
     0.8666   0.9581   1.1317

     the Fermi energy is    -1.7185 ev

!    total energy              =   -2246.21447545 Ry
     estimated scf accuracy    <       0.00000020 Ry
     smearing contrib. (-TS)   =      -0.00430434 Ry
     internal energy E=F+TS    =   -2246.21017111 Ry

     The total energy is F=E-TS. E is the sum of the following terms:
     one-electron contribution =  -18431.30415186 Ry
     hartree contribution      =    9203.46089746 Ry
     xc contribution           =    -391.89859643 Ry
     ewald contribution        =    7383.40461945 Ry
     one-center paw contrib.   =      -9.87293972 Ry

     convergence has been achieved in  17 iterations

     negative rho (up, down):  2.022E-04 0.000E+00

     Forces acting on atoms (cartesian axes, Ry/au):

     atom    1 type  1   force =     0.01433785   -0.02280936    0.00522214
     atom    2 type  2   force =    -0.01332981    0.01619474    0.00414940
     atom    3 type  2   force =    -0.01361032    0.00909798   -0.00491554
     atom    4 type  1   force =     0.00420162    0.00454089   -0.00034347
     atom    5 type  2   force =    -0.00212196   -0.00469012   -0.00698298
     atom    6 type  2   force =     0.00067741    0.01089332    0.00011002
     atom    7 type  1   force =     0.00382618   -0.01800992   -0.00636629
     atom    8 type  2   force =     0.00258133   -0.00354077    0.01750142
     atom    9 type  2   force =     0.00883637    0.00501455    0.00889404
     atom   10 type  1   force =    -0.01974935    0.01288428   -0.04426253
     atom   11 type  2   force =     0.01352937   -0.00301087   -0.00753724
     atom   12 type  2   force =     0.00058007    0.00097476    0.00382164
     atom   13 type  1   force =     0.00356439   -0.00132220   -0.00702882
     atom   14 type  2   force =     0.01258034    0.00352605    0.01182802
     atom   15 type  2   force =    -0.00808259    0.00017640   -0.01245344
     atom   16 type  1   force =     0.00000419    0.01114317    0.00494745
     atom   17 type  2   force =     0.00445182    0.00003185    0.00307940
     atom   18 type  2   force =    -0.00187056   -0.00551776    0.01171844
     atom   19 type  1   force =     0.00121792   -0.01994085   -0.01486723
     atom   20 type  2   force =     0.00663682   -0.00562123   -0.00095500
     atom   21 type  1   force =    -0.00342103    0.03446671    0.00092045
     atom   22 type  2   force =    -0.11985281   -0.07843337    0.06685950
     atom   23 type  2   force =     0.00105790    0.00324366    0.01052226
     atom   24 type  1   force =    -0.00883110   -0.00517550   -0.02018491
     atom   25 type  2   force =     0.01625848    0.01702819    0.01001205
     atom   26 type  2   force =    -0.01204465   -0.00008994   -0.00313416
     atom   27 type  1   force =     0.00144645   -0.00307347    0.00187499
     atom   28 type  2   force =     0.00156694    0.00010104   -0.00458092
     atom   29 type  2   force =     0.00238052    0.00069792   -0.00274788
     atom   30 type  1   force =    -0.00339029    0.01194468   -0.00395957
     atom   31 type  2   force =     0.00205196   -0.00217871    0.00975095
     atom   32 type  2   force =    -0.00773629    0.00676992    0.00876165
     atom   33 type  1   force =     0.00294765    0.01539640   -0.03879710
     atom   34 type  2   force =    -0.00184443   -0.04486083   -0.01724877
     atom   35 type  2   force =    -0.00929658    0.00741647    0.01598875
     atom   36 type  3   force =     0.12044618    0.04673193    0.00040326
     The non-local contrib.  to forces
     atom    1 type  1   force =     0.00311424    0.03612287   -0.01230935
     atom    2 type  2   force =    -0.01022457    0.00568237   -0.27106231
     atom    3 type  2   force =    -0.01550571   -0.00130509    0.27049269
     atom    4 type  1   force =     0.00213832    0.00496481    0.00590035
     atom    5 type  2   force =     0.00602270   -0.03035226   -0.25329986
     atom    6 type  2   force =    -0.00258881    0.01110926    0.26213634
     atom    7 type  1   force =    -0.00873105   -0.00089791   -0.01610274
     atom    8 type  2   force =     0.00004820   -0.00236470   -0.25796406
     atom    9 type  2   force =     0.00522292   -0.00638223    0.27891290
     atom   10 type  1   force =     0.02113387   -0.00880000    0.00885740
     atom   11 type  2   force =     0.02370030    0.00285813   -0.25838723
     atom   12 type  2   force =    -0.01531479   -0.01719579    0.26356622
     atom   13 type  1   force =    -0.00602859    0.02176141   -0.00495484
     atom   14 type  2   force =     0.01284166   -0.00815724   -0.26139739
     atom   15 type  2   force =    -0.00955862   -0.01473954    0.26483300
     atom   16 type  1   force =     0.00053598    0.02609822   -0.03238179
     atom   17 type  2   force =     0.00542566   -0.03073544   -0.25002313
     atom   18 type  2   force =    -0.00259829   -0.00485152    0.27359800
     atom   19 type  1   force =     0.01832206   -0.00034162   -0.00451485
     atom   20 type  2   force =     0.00230512   -0.02299148    0.26616413
     atom   21 type  1   force =     0.01269146    0.01620059    0.00594649
     atom   22 type  2   force =    -0.35197675   -0.06842898    0.14284757
     atom   23 type  2   force =     0.00747691   -0.01444695    0.26941689
     atom   24 type  1   force =     0.00528968    0.01341829   -0.00615509
     atom   25 type  2   force =     0.00976907    0.00231746   -0.26473116
     atom   26 type  2   force =    -0.00298433   -0.01364844    0.26421687
     atom   27 type  1   force =    -0.00808984    0.01795906    0.01215582
     atom   28 type  2   force =    -0.00327394   -0.02322029   -0.27607630
     atom   29 type  2   force =     0.00702231    0.00227157    0.26381685
     atom   30 type  1   force =    -0.00096676    0.01750540    0.01451121
     atom   31 type  2   force =    -0.00957846    0.01199072   -0.25501381
     atom   32 type  2   force =     0.00002573   -0.00957786    0.27290203
     atom   33 type  1   force =    -0.01031377    0.00753018    0.02048138
     atom   34 type  2   force =     0.08373063   -0.07005058   -0.23317387
     atom   35 type  2   force =    -0.00328548   -0.01099747    0.26935130
     atom   36 type  3   force =     0.76959415    0.29009632   -0.81805288
     The ionic contribution  to forces
     atom    1 type  1   force =     0.44686629    0.58856284    4.72809286
     atom    2 type  2   force =    -0.97908832    0.86736224   39.00726139
     atom    3 type  2   force =    -0.25112153    0.17150510  -36.65042568
     atom    4 type  1   force =    -0.18884555    0.10813158   -0.41428166
     atom    5 type  2   force =    -0.92733032    1.37149833   38.54876512
     atom    6 type  2   force =     0.35685602   -0.53470406  -38.49330237
     atom    7 type  1   force =    -2.38934836   -3.20411354    1.05061470
     atom    8 type  2   force =    -1.49208438   -0.48171173   36.96652819
     atom    9 type  2   force =     0.23888153   -0.18200581  -38.63420931
     atom   10 type  1   force =    -2.02251076    0.33570381    3.89071416
     atom   11 type  2   force =    -0.33465853   -1.48754531   38.74859089
     atom   12 type  2   force =     0.46931642    0.73869929  -38.51795737
     atom   13 type  1   force =     0.79283571    1.74195550    1.51536437
     atom   14 type  2   force =     0.46237096    0.55586854   38.18478377
     atom   15 type  2   force =     0.25796098    0.10049164  -37.38745750
     atom   16 type  1   force =     0.33494924    3.40597750   -0.69412280
     atom   17 type  2   force =     0.96949063    1.24060859   37.64549240
     atom   18 type  2   force =    -0.11150456   -0.70285974  -39.10495760
     atom   19 type  1   force =     4.05756653   -3.81992583   -3.01725464
     atom   20 type  2   force =     0.36176158   -0.35977462  -39.15281021
     atom   21 type  1   force =     1.19466396    0.82168259   -0.91030380
     atom   22 type  2   force =     4.70989483   -0.31224872   34.67529666
     atom   23 type  2   force =     0.09359014    0.75972918  -39.33218573
     atom   24 type  1   force =    -0.93008094    1.83808664    4.58312535
     atom   25 type  2   force =     0.54701032    1.67141690   38.66008935
     atom   26 type  2   force =    -0.30775724    0.31672977  -38.05142961
     atom   27 type  1   force =    -0.04510174   -0.52215063   -3.76919474
     atom   28 type  2   force =    -0.13644710    0.78150617   37.94778064
     atom   29 type  2   force =    -0.32848692   -0.48131671  -37.79179554
     atom   30 type  1   force =    -1.85884675   -2.09059610   -3.20965499
     atom   31 type  2   force =     0.99607896   -2.62684998   35.70856860
     atom   32 type  2   force =    -0.50655123   -0.26595911  -39.51661984
     atom   33 type  1   force =     0.42815750    1.28496582   -2.54568193
     atom   34 type  2   force =    -3.08225750   -0.31699487   37.22463955
     atom   35 type  2   force =    -0.52110078    0.56159249  -38.79071498
     atom   36 type  3   force =    -0.30512909   -1.87331773   46.89865228
     The local contribution  to forces
     atom    1 type  1   force =    -0.43559056   -0.64750508   -4.71092967
     atom    2 type  2   force =     0.97568718   -0.85651628  -38.75308635
     atom    3 type  2   force =     0.25229472   -0.16106453   36.39575609
     atom    4 type  1   force =     0.19091547   -0.10856269    0.40768589
     atom    5 type  2   force =     0.91973862   -1.34755143  -38.32310753
     atom    6 type  2   force =    -0.35395792    0.53556571   38.25198014
     atom    7 type  1   force =     2.40179028    3.18690298   -1.04124801
     atom    8 type  2   force =     1.49447890    0.48005614  -36.71190865
     atom    9 type  2   force =    -0.23526000    0.19301560   38.38514398
     atom   10 type  1   force =     1.98149839   -0.31395248   -3.94434636
     atom   11 type  2   force =     0.32542328    1.48210455  -38.51859443
     atom   12 type  2   force =    -0.45477948   -0.72188758   38.27894162
     atom   13 type  1   force =    -0.78323945   -1.76494030   -1.51784239
     atom   14 type  2   force =    -0.46199019   -0.54427445  -37.93241220
     atom   15 type  2   force =    -0.25703695   -0.08643916   37.13073854
     atom   16 type  1   force =    -0.33550330   -3.42079216    0.73106665
     atom   17 type  2   force =    -0.97026582   -1.21149540  -37.41292861
     atom   18 type  2   force =     0.11229580    0.70260524   38.86398520
     atom   19 type  1   force =    -4.07449318    3.80016272    3.00635710
     atom   20 type  2   force =    -0.35743864    0.37620591   38.90679854
     atom   21 type  1   force =    -1.21069052   -0.80340180    0.90482123
     atom   22 type  2   force =    -4.49688986    0.29845455  -34.75085788
     atom   23 type  2   force =    -0.09938260   -0.74323373   39.09413220
     atom   24 type  1   force =     0.91593656   -1.85664874   -4.59756370
     atom   25 type  2   force =    -0.54032522   -1.65628138  -38.40660228
     atom   26 type  2   force =     0.29885263   -0.30386736   37.80480857
     atom   27 type  1   force =     0.05466215    0.50109313    3.75855418
     atom   28 type  2   force =     0.14105695   -0.75994983  -37.69759585
     atom   29 type  2   force =     0.32441427    0.48035724   37.54566979
     atom   30 type  1   force =     1.85638208    2.08493252    3.19070937
     atom   31 type  2   force =    -0.98507950    2.61229561  -35.46522994
     atom   32 type  2   force =     0.49907353    0.28173307   39.27330937
     atom   33 type  1   force =    -0.41491565   -1.27694970    2.48576236
     atom   34 type  2   force =     2.99944692    0.33959112  -37.02862214
     atom   35 type  2   force =     0.51510555   -0.54409429   38.55821230
     atom   36 type  3   force =    -0.33496765    1.63313350  -46.08921169
     The core correction contribution to forces
     atom    1 type  1   force =     0.00000000    0.00000000    0.00000000
     atom    2 type  2   force =     0.00027179   -0.00031746    0.02079723
     atom    3 type  2   force =     0.00072314   -0.00005549   -0.02088640
     atom    4 type  1   force =     0.00000000    0.00000000    0.00000000
     atom    5 type  2   force =    -0.00057754    0.00172765    0.02042921
     atom    6 type  2   force =     0.00034526   -0.00107549   -0.02084400
     atom    7 type  1   force =     0.00000000    0.00000000    0.00000000
     atom    8 type  2   force =     0.00011465    0.00046492    0.02063656
     atom    9 type  2   force =    -0.00000186    0.00038218   -0.02110251
     atom   10 type  1   force =     0.00000000    0.00000000    0.00000000
     atom   11 type  2   force =    -0.00093114   -0.00041615    0.02064128
     atom   12 type  2   force =     0.00134249    0.00139801   -0.02088604
     atom   13 type  1   force =     0.00000000    0.00000000    0.00000000
     atom   14 type  2   force =    -0.00061706    0.00008931    0.02063203
     atom   15 type  2   force =     0.00055137    0.00083451   -0.02074845
     atom   16 type  1   force =     0.00000000    0.00000000    0.00000000
     atom   17 type  2   force =    -0.00018685    0.00165384    0.02030371
     atom   18 type  2   force =    -0.00005197   -0.00040598   -0.02103030
     atom   19 type  1   force =     0.00000000    0.00000000    0.00000000
     atom   20 type  2   force =     0.00000119    0.00091099   -0.02121409
     atom   21 type  1   force =     0.00000000    0.00000000    0.00000000
     atom   22 type  2   force =     0.01922336    0.00381276   -0.00066533
     atom   23 type  2   force =    -0.00060753    0.00121775   -0.02102512
     atom   24 type  1   force =     0.00000000    0.00000000    0.00000000
     atom   25 type  2   force =    -0.00019852   -0.00035239    0.02101950
     atom   26 type  2   force =    -0.00016280    0.00068502   -0.02090057
     atom   27 type  1   force =     0.00000000    0.00000000    0.00000000
     atom   28 type  2   force =     0.00024579    0.00175987    0.02107749
     atom   29 type  2   force =    -0.00056284   -0.00063106   -0.02057985
     atom   30 type  1   force =     0.00000000    0.00000000    0.00000000
     atom   31 type  2   force =     0.00062498    0.00029664    0.02118344
     atom   32 type  2   force =    -0.00028243    0.00057074   -0.02097747
     atom   33 type  1   force =     0.00000000    0.00000000    0.00000000
     atom   34 type  2   force =    -0.00283283    0.00259311    0.01967813
     atom   35 type  2   force =    -0.00002315    0.00094212   -0.02103223
     atom   36 type  3   force =    -0.00896103   -0.00318216    0.00869666
     The Hubbard contrib.    to forces
     atom    1 type  1   force =     0.00000000    0.00000000    0.00000000
     atom    2 type  2   force =     0.00000000    0.00000000    0.00000000
     atom    3 type  2   force =     0.00000000    0.00000000    0.00000000
     atom    4 type  1   force =     0.00000000    0.00000000    0.00000000
     atom    5 type  2   force =     0.00000000    0.00000000    0.00000000
     atom    6 type  2   force =     0.00000000    0.00000000    0.00000000
     atom    7 type  1   force =     0.00000000    0.00000000    0.00000000
     atom    8 type  2   force =     0.00000000    0.00000000    0.00000000
     atom    9 type  2   force =     0.00000000    0.00000000    0.00000000
     atom   10 type  1   force =     0.00000000    0.00000000    0.00000000
     atom   11 type  2   force =     0.00000000    0.00000000    0.00000000
     atom   12 type  2   force =     0.00000000    0.00000000    0.00000000
     atom   13 type  1   force =     0.00000000    0.00000000    0.00000000
     atom   14 type  2   force =     0.00000000    0.00000000    0.00000000
     atom   15 type  2   force =     0.00000000    0.00000000    0.00000000
     atom   16 type  1   force =     0.00000000    0.00000000    0.00000000
     atom   17 type  2   force =     0.00000000    0.00000000    0.00000000
     atom   18 type  2   force =     0.00000000    0.00000000    0.00000000
     atom   19 type  1   force =     0.00000000    0.00000000    0.00000000
     atom   20 type  2   force =     0.00000000    0.00000000    0.00000000
     atom   21 type  1   force =     0.00000000    0.00000000    0.00000000
     atom   22 type  2   force =     0.00000000    0.00000000    0.00000000
     atom   23 type  2   force =     0.00000000    0.00000000    0.00000000
     atom   24 type  1   force =     0.00000000    0.00000000    0.00000000
     atom   25 type  2   force =     0.00000000    0.00000000    0.00000000
     atom   26 type  2   force =     0.00000000    0.00000000    0.00000000
     atom   27 type  1   force =     0.00000000    0.00000000    0.00000000
     atom   28 type  2   force =     0.00000000    0.00000000    0.00000000
     atom   29 type  2   force =     0.00000000    0.00000000    0.00000000
     atom   30 type  1   force =     0.00000000    0.00000000    0.00000000
     atom   31 type  2   force =     0.00000000    0.00000000    0.00000000
     atom   32 type  2   force =     0.00000000    0.00000000    0.00000000
     atom   33 type  1   force =     0.00000000    0.00000000    0.00000000
     atom   34 type  2   force =     0.00000000    0.00000000    0.00000000
     atom   35 type  2   force =     0.00000000    0.00000000    0.00000000
     atom   36 type  3   force =     0.00000000    0.00000000    0.00000000
     The SCF correction term to forces
     atom    1 type  1   force =    -0.00005198    0.00000986    0.00034362
     atom    2 type  2   force =     0.00002425   -0.00001628    0.00021476
     atom    3 type  2   force =    -0.00000081    0.00001783    0.00012306
     atom    4 type  1   force =    -0.00000649    0.00000703    0.00032726
     atom    5 type  2   force =     0.00002471   -0.00001258    0.00020539
     atom    6 type  2   force =     0.00002299   -0.00000225    0.00011522
     atom    7 type  1   force =     0.00011544    0.00009839    0.00034508
     atom    8 type  2   force =     0.00002410    0.00001444    0.00018469
     atom    9 type  2   force =    -0.00000608    0.00000467    0.00012429
     atom   10 type  1   force =     0.00012927   -0.00006722    0.00048757
     atom   11 type  2   force =    -0.00000441   -0.00001225    0.00018756
     atom   12 type  2   force =     0.00001556   -0.00003932    0.00013252
     atom   13 type  1   force =    -0.00000315   -0.00009897    0.00037935
     atom   14 type  2   force =    -0.00002490   -0.00000027    0.00019712
     atom   15 type  2   force =     0.00000077    0.00002879    0.00015628
     atom   16 type  1   force =     0.00002240   -0.00014054    0.00036070
     atom   17 type  2   force =    -0.00001167    0.00000011    0.00021034
     atom   18 type  2   force =    -0.00001141   -0.00000591    0.00009845
     atom   19 type  1   force =    -0.00017736    0.00016373    0.00052047
     atom   20 type  2   force =     0.00000770    0.00002783    0.00008194
     atom   21 type  1   force =    -0.00008580   -0.00001483    0.00043184
     atom   22 type  2   force =    -0.00010425   -0.00002313    0.00021380
     atom   23 type  2   force =    -0.00001888   -0.00002275    0.00015933
     atom   24 type  1   force =     0.00002373   -0.00003183    0.00038384
     atom   25 type  2   force =     0.00000296   -0.00007254    0.00021196
     atom   26 type  2   force =     0.00000722    0.00001092    0.00014589
     atom   27 type  1   force =    -0.00002399    0.00002483    0.00033503
     atom   28 type  2   force =    -0.00001462    0.00000496    0.00020841
     atom   29 type  2   force =    -0.00000617    0.00001673    0.00011619
     atom   30 type  1   force =     0.00004128    0.00010269    0.00045015
     atom   31 type  2   force =     0.00000611    0.00008814    0.00021798
     atom   32 type  2   force =    -0.00000176    0.00000292    0.00012287
     atom   33 type  1   force =     0.00001971   -0.00015006    0.00061640
     atom   34 type  2   force =     0.00006848    0.00000025    0.00020487
     atom   35 type  2   force =     0.00000741   -0.00002652    0.00014768
     atom   36 type  3   force =    -0.00009007    0.00000185    0.00029418

     Total force =     0.237352     Total SCF correction =     0.001770

     BFGS Geometry Optimization
     Energy error            =      0.0E+00 Ry
     Gradient error          =      1.2E-01 Ry/Bohr

     number of scf cycles    =   1
     number of bfgs steps    =   0

     energy             new  =   -2246.2144754525 Ry

     new trust radius        =       0.1580717655 bohr
     new conv_thr            =       0.0000010000 Ry


ATOMIC_POSITIONS (angstrom)
Mo            6.5821356736        1.7757360361        2.8264064684
S             8.1696555081        0.8182739097        4.4367341221
S             8.1860308145        0.8160561859        1.2752822338
Mo            8.0973859667        4.4974598784        2.7176366382
S             6.4987863635        3.7199295829        4.3429654137
S             6.5537082668        3.5175020508        1.1213384493
Mo            6.4920064233        7.2089068423        2.6685155915
S             8.0830937092        6.3419972952        4.2517229141
S             8.0855936542        6.3073559032        1.0885695202
Mo            8.1501681412        9.9089984797        2.8200390380
S             6.5023270324        8.9413335306        4.3791169988
S             6.6182541580        9.0492270329        1.1419296291
Mo            3.4235458575        1.7462561727        2.7727516702
S             4.9818227205        0.8188071130        4.3567922134
S             5.0535566332        0.8463554535        1.2200683838
Mo            4.9797588959        4.5190747145        2.6355026261
S             3.4301974648        3.6716165389        4.2813391269
S             3.4369307248        3.5453088234        1.0645528142
Mo            3.4545062353        7.2057722970        2.6228094629
S             4.9867462464        6.3239576613        1.0367483670
Mo            5.0104535891        9.9198390478        2.7438880418
S             3.4075347399        8.9022461191        4.3609718384
S             3.4089889846        9.0667064552        1.1016364395
Mo            0.2914172700        1.7447707761        2.8387633158
S             1.8590658316        0.8017049383        4.4035075898
S             1.8544262806        0.8543783247        1.2077423293
Mo            1.8614567359        4.4940403533        2.6611895813
S             0.2730430397        3.6544522943        4.3351599812
S             0.2324909256        3.5276185506        1.1705637707
Mo            0.2693580858        7.2229669452        2.6996011151
S             1.9033240988        6.3116459128        4.2276041036
S             1.8581443471        6.3139262984        1.0491957467
Mo            1.8459064902        9.9482865758        2.7524157093
S             0.2949368684        9.0662585004        4.4047418098
S             0.2718518600        9.0474503425        1.1588616629
O             2.1652395972        8.5249850294        5.4780968200



     Writing config-only to output data dir ./MoS2-V-O.save/
     NEW-OLD atomic charge density approx. for the potential

     negative rho (up, down):  2.197E-04 0.000E+00

     total cpu time spent up to now is      134.9 secs

     Self-consistent Calculation

     iteration #  1     ecut=    80.00 Ry     beta= 0.70
     Davidson diagonalization with overlap
     ethr =  1.00E-06,  avg # of iterations = 16.0

     negative rho (up, down):  1.081E-04 0.000E+00

     total cpu time spent up to now is      149.4 secs

     total energy              =   -2246.26334203 Ry
     estimated scf accuracy    <       0.01960985 Ry

     iteration #  2     ecut=    80.00 Ry     beta= 0.70
     Davidson diagonalization with overlap
     ethr =  6.29E-06,  avg # of iterations =  6.0

     negative rho (up, down):  1.019E-04 0.000E+00

     total cpu time spent up to now is      166.6 secs

     total energy              =   -2246.26635884 Ry
     estimated scf accuracy    <       0.00953450 Ry

     iteration #  3     ecut=    80.00 Ry     beta= 0.70
     Davidson diagonalization with overlap
     ethr =  3.06E-06,  avg # of iterations =  4.0

     negative rho (up, down):  7.562E-05 0.000E+00

     total cpu time spent up to now is      182.1 secs

     total energy              =   -2246.26723310 Ry
     estimated scf accuracy    <       0.00052343 Ry

     iteration #  4     ecut=    80.00 Ry     beta= 0.70
     Davidson diagonalization with overlap
     ethr =  1.68E-07,  avg # of iterations =  6.0

     negative rho (up, down):  7.318E-05 0.000E+00

     total cpu time spent up to now is      197.3 secs

     total energy              =   -2246.26731483 Ry
     estimated scf accuracy    <       0.00003778 Ry

     iteration #  5     ecut=    80.00 Ry     beta= 0.70
     Davidson diagonalization with overlap
     ethr =  1.21E-08,  avg # of iterations =  5.0

     negative rho (up, down):  7.250E-05 0.000E+00

     total cpu time spent up to now is      213.8 secs

     total energy              =   -2246.26732376 Ry
     estimated scf accuracy    <       0.00000818 Ry

     iteration #  6     ecut=    80.00 Ry     beta= 0.70
     Davidson diagonalization with overlap
     ethr =  2.62E-09,  avg # of iterations =  7.0

     negative rho (up, down):  7.416E-05 0.000E+00

     total cpu time spent up to now is      225.9 secs

     total energy              =   -2246.26732495 Ry
     estimated scf accuracy    <       0.00000323 Ry

     iteration #  7     ecut=    80.00 Ry     beta= 0.70
     Davidson diagonalization with overlap
     ethr =  1.03E-09,  avg # of iterations =  2.0

     negative rho (up, down):  7.948E-05 0.000E+00

     total cpu time spent up to now is      236.4 secs

     total energy              =   -2246.26732532 Ry
     estimated scf accuracy    <       0.00000133 Ry

     iteration #  8     ecut=    80.00 Ry     beta= 0.70
     Davidson diagonalization with overlap
     ethr =  4.28E-10,  avg # of iterations =  2.0

     negative rho (up, down):  2.025E-04 0.000E+00

     total cpu time spent up to now is      240.4 secs

     End of self-consistent calculation

          k = 0.0000 0.0000 0.0000 (105382 PWs)   bands (ev):

   -63.1377 -62.9855 -62.9690 -62.9586 -62.9472 -62.9366 -62.9307 -62.8993
   -62.8780 -62.8678 -62.8570 -62.8513 -37.4161 -37.3871 -37.2914 -37.2692
   -37.2462 -37.2418 -37.2255 -37.1953 -37.1855 -37.1705 -37.1664 -37.1456
   -37.1411 -37.1298 -37.1181 -37.1158 -37.1116 -37.1050 -37.1029 -37.0956
   -37.0691 -37.0633 -37.0546 -37.0459 -37.0316 -37.0221 -37.0153 -37.0078
   -36.9974 -36.9892 -36.9519 -36.9473 -36.9279 -36.9159 -36.8805 -36.8467
   -20.5998 -16.0328 -15.2660 -15.2302 -15.0434 -15.0284 -14.8505 -14.6453
   -14.5893 -14.5450 -14.5221 -14.5034 -14.4496 -14.4259 -14.3259 -14.2782
   -14.2264 -14.1930 -14.1663 -14.0731 -13.9737 -13.9597 -13.9274 -13.8134
    -7.8665  -7.8176  -7.5648  -7.4492  -7.4022  -7.3680  -7.3310  -7.3207
    -7.2401  -7.0631  -6.9677  -6.9150  -6.8728  -6.8019  -6.6781  -6.6095
    -6.5587  -6.4919  -6.4001  -6.3747  -6.1672  -6.1325  -6.0078  -5.9416
    -5.8918  -5.8760  -5.8446  -5.7983  -5.7785  -5.7378  -5.6807  -5.6565
    -5.6148  -5.5524  -5.4627  -5.3624  -5.3030  -5.2011  -5.1347  -5.1036
    -5.0880  -5.0087  -4.9804  -4.8168  -4.7534  -4.6039  -4.4354  -4.3943
    -4.3636  -4.3325  -4.2098  -4.1181  -4.0173  -3.9751  -3.9188  -3.8889
    -3.8647  -3.7817  -3.7153  -3.6849  -3.6384  -3.6065  -3.5685  -3.5592
    -3.4856  -3.4754  -3.3363  -3.3118  -3.0886  -3.0828  -2.9772  -2.9198
    -2.8771  -2.8263  -2.8010  -2.7828  -2.7489  -2.6958  -2.5885  -2.3738
    -2.2117  -2.1029  -2.0425  -1.8721  -1.4241  -0.9186  -0.7012  -0.3014
    -0.2221  -0.1856  -0.1216  -0.0141   0.0484   0.0979   0.1318   0.1430
     0.2064   0.2624   0.3324   0.3928   0.4245   0.4553   0.5070   0.5168
     0.5991   0.6010   0.6498   0.6970   0.7285   0.7442   0.8017   0.8418
     0.8917   0.9635   1.1512

     the Fermi energy is    -1.6481 ev

!    total energy              =   -2246.26732526 Ry
     estimated scf accuracy    <       0.00000060 Ry
     smearing contrib. (-TS)   =      -0.00075136 Ry
     internal energy E=F+TS    =   -2246.26657390 Ry

     The total energy is F=E-TS. E is the sum of the following terms:
     one-electron contribution =  -18429.23328166 Ry
     hartree contribution      =    9202.46227230 Ry
     xc contribution           =    -391.94849049 Ry
     ewald contribution        =    7382.32143283 Ry
     one-center paw contrib.   =      -9.86850689 Ry

     convergence has been achieved in   8 iterations

     negative rho (up, down):  2.025E-04 0.000E+00

     Forces acting on atoms (cartesian axes, Ry/au):

     atom    1 type  1   force =     0.00437019   -0.01131691    0.00010074
     atom    2 type  2   force =    -0.00788170    0.00955230    0.00002604
     atom    3 type  2   force =    -0.01149973    0.01023920   -0.01243076
     atom    4 type  1   force =     0.00474352    0.00307338    0.00104346
     atom    5 type  2   force =    -0.00067872   -0.00470328   -0.00671675
     atom    6 type  2   force =     0.00050857    0.00767392    0.00306300
     atom    7 type  1   force =     0.00169848   -0.01074596    0.00063460
     atom    8 type  2   force =     0.00259591   -0.00317114    0.01223155
     atom    9 type  2   force =     0.00853595    0.00466067    0.00505233
     atom   10 type  1   force =    -0.00837098    0.00658542   -0.01266467
     atom   11 type  2   force =     0.00905126    0.00007456   -0.01464804
     atom   12 type  2   force =    -0.00467631   -0.00130989   -0.00094022
     atom   13 type  1   force =     0.00476835   -0.00155606   -0.00152823
     atom   14 type  2   force =     0.00888621    0.00360002    0.00972312
     atom   15 type  2   force =    -0.00407008    0.00065409   -0.01174375
     atom   16 type  1   force =     0.00029019    0.00684658    0.00391629
     atom   17 type  2   force =     0.00396923   -0.00024550    0.00232247
     atom   18 type  2   force =    -0.00049699   -0.00366789    0.00928880
     atom   19 type  1   force =    -0.00187436   -0.01621040   -0.00559226
     atom   20 type  2   force =     0.00696823   -0.00595199   -0.00594541
     atom   21 type  1   force =    -0.01546147    0.01568806    0.02371510
     atom   22 type  2   force =    -0.10668196   -0.05925617    0.04223840
     atom   23 type  2   force =     0.00330048    0.00312739    0.00710983
     atom   24 type  1   force =    -0.00479455   -0.00120696   -0.00862217
     atom   25 type  2   force =     0.01119003    0.01216664    0.00111143
     atom   26 type  2   force =    -0.00915001    0.00447638   -0.00895674
     atom   27 type  1   force =     0.00024769   -0.00095604    0.00486921
     atom   28 type  2   force =     0.00073298   -0.00178200   -0.00557563
     atom   29 type  2   force =     0.00187404    0.00176143   -0.00331833
     atom   30 type  1   force =    -0.00136729    0.00467583    0.00423259
     atom   31 type  2   force =     0.00020146   -0.00486285    0.00516570
     atom   32 type  2   force =    -0.00757800    0.00482585    0.00417254
     atom   33 type  1   force =    -0.00093516    0.00558857   -0.01852194
     atom   34 type  2   force =    -0.01721449   -0.02362797   -0.03677759
     atom   35 type  2   force =    -0.00814506    0.00763077    0.00450742
     atom   36 type  3   force =     0.13694407    0.03766994    0.00945788
     The non-local contrib.  to forces
     atom    1 type  1   force =     0.00513342    0.03321387   -0.01283413
     atom    2 type  2   force =    -0.00649541    0.00177493   -0.27148559
     atom    3 type  2   force =    -0.01194021   -0.00219197    0.26413281
     atom    4 type  1   force =     0.00283944    0.00651211    0.00494586
     atom    5 type  2   force =     0.00738721   -0.03078904   -0.25385595
     atom    6 type  2   force =    -0.00253287    0.00796550    0.26464818
     atom    7 type  1   force =    -0.00647708   -0.00226968   -0.01725310
     atom    8 type  2   force =    -0.00031618   -0.00225719   -0.26096940
     atom    9 type  2   force =     0.00420488   -0.00610008    0.27709996
     atom   10 type  1   force =     0.02110217   -0.00634860    0.00603488
     atom   11 type  2   force =     0.01772782    0.00280530   -0.26301377
     atom   12 type  2   force =    -0.01972215   -0.01693801    0.26336784
     atom   13 type  1   force =    -0.00614641    0.02167633   -0.00521608
     atom   14 type  2   force =     0.00936130   -0.00773264   -0.26130472
     atom   15 type  2   force =    -0.00610691   -0.01446401    0.26526389
     atom   16 type  1   force =     0.00027668    0.02617872   -0.03454774
     atom   17 type  2   force =     0.00528254   -0.03046042   -0.25126611
     atom   18 type  2   force =    -0.00134161   -0.00348942    0.27256424
     atom   19 type  1   force =     0.01937226    0.00280210   -0.00385514
     atom   20 type  2   force =     0.00280021   -0.02271429    0.26286700
     atom   21 type  1   force =     0.01862792    0.01443445   -0.00157774
     atom   22 type  2   force =    -0.36536531   -0.05576463    0.18902358
     atom   23 type  2   force =     0.00899888   -0.01479769    0.26973728
     atom   24 type  1   force =     0.00338170    0.01242181   -0.00508738
     atom   25 type  2   force =     0.00640256    0.00030033   -0.26889706
     atom   26 type  2   force =    -0.00026662   -0.00909423    0.25965774
     atom   27 type  1   force =    -0.00990434    0.01523061    0.00951777
     atom   28 type  2   force =    -0.00283275   -0.02320888   -0.27754016
     atom   29 type  2   force =     0.00619623    0.00217734    0.26417843
     atom   30 type  1   force =    -0.00171235    0.01850159    0.01141537
     atom   31 type  2   force =    -0.01052989    0.00657855   -0.25981380
     atom   32 type  2   force =     0.00199049   -0.01121197    0.27150491
     atom   33 type  1   force =    -0.00504631    0.00701602    0.02419848
     atom   34 type  2   force =     0.03793195   -0.04202242   -0.26197610
     atom   35 type  2   force =    -0.00341631   -0.00970575    0.26387731
     atom   36 type  3   force =     1.11009860    0.36136367   -1.06772038
     The ionic contribution  to forces
     atom    1 type  1   force =     0.20417103    0.97724297    4.88114920
     atom    2 type  2   force =    -0.77924058    0.68697880   39.12563461
     atom    3 type  2   force =    -0.23142170    0.25372546  -36.79385337
     atom    4 type  1   force =    -0.19454885    0.05405248   -0.31813268
     atom    5 type  2   force =    -0.91612503    1.34997502   38.47826422
     atom    6 type  2   force =     0.31247728   -0.57484953  -38.39703272
     atom    7 type  1   force =    -2.54384555   -2.82229402    1.11171815
     atom    8 type  2   force =    -1.47294718   -0.42986364   37.10461954
     atom    9 type  2   force =     0.25129847   -0.20331738  -38.60950318
     atom   10 type  1   force =    -1.76360609    0.17630402    3.29980130
     atom   11 type  2   force =    -0.41125409   -1.49767847   38.62093486
     atom   12 type  2   force =     0.27473806    0.60060681  -38.44950928
     atom   13 type  1   force =     0.79490937    1.76597292    1.50819993
     atom   14 type  2   force =     0.36106910    0.52686677   38.32142694
     atom   15 type  2   force =     0.26163596    0.18696782  -37.49285876
     atom   16 type  1   force =     0.38412975    3.18887389   -0.48454814
     atom   17 type  2   force =     0.95971072    1.19329760   37.66751617
     atom   18 type  2   force =    -0.07555731   -0.67115396  -39.03078769
     atom   19 type  1   force =     4.20660976   -3.36512066   -3.33986900
     atom   20 type  2   force =     0.35875529   -0.31228410  -39.21290488
     atom   21 type  1   force =     0.81703996    0.11450721   -0.30178451
     atom   22 type  2   force =     5.65312803   -0.01646264   33.99669433
     atom   23 type  2   force =     0.21912530    0.66169777  -39.17354206
     atom   24 type  1   force =    -0.76738508    1.80607774    4.40769449
     atom   25 type  2   force =     0.43542006    1.57166400   38.67174537
     atom   26 type  2   force =    -0.24790959    0.41287977  -38.09169271
     atom   27 type  1   force =    -0.10336852   -0.50991830   -3.62309696
     atom   28 type  2   force =    -0.12871154    0.71938150   37.92954137
     atom   29 type  2   force =    -0.32093554   -0.41623000  -37.79597310
     atom   30 type  1   force =    -1.80266795   -2.15992339   -3.08697028
     atom   31 type  2   force =     0.89927500   -2.59865895   35.77349221
     atom   32 type  2   force =    -0.53008282   -0.29362704  -39.47763814
     atom   33 type  1   force =     0.46343099    1.21818281   -3.06801253
     atom   34 type  2   force =    -3.05817977   -0.19663946   37.14550290
     atom   35 type  2   force =    -0.48387460    0.48235996  -38.72750475
     atom   36 type  3   force =    -1.02526233   -1.87959376   47.43127916
     The local contribution  to forces
     atom    1 type  1   force =    -0.20502919   -1.02168531   -4.86898359
     atom    2 type  2   force =     0.77759743   -0.67886022  -38.87536854
     atom    3 type  2   force =     0.23126978   -0.24133695   36.53784326
     atom    4 type  1   force =     0.19640970   -0.05767681    0.31350946
     atom    5 type  2   force =     0.90868577   -1.32564575  -38.25195435
     atom    6 type  2   force =    -0.30976461    0.57550140   38.15620634
     atom    7 type  1   force =     2.55195221    2.81392417   -1.09459531
     atom    8 type  2   force =     1.47566617    0.42840453  -36.85261660
     atom    9 type  2   force =    -0.24705287    0.21372111   38.35838683
     atom   10 type  1   force =     1.73396670   -0.16321169   -3.31929278
     atom   11 type  2   force =     0.40313004    1.49546100  -38.39387753
     atom   12 type  2   force =    -0.26115536   -0.58621822   38.20597595
     atom   13 type  1   force =    -0.78391996   -1.78916742   -1.50522447
     atom   14 type  2   force =    -0.36101820   -0.51567217  -38.07155430
     atom   15 type  2   force =    -0.26001847   -0.17282180   37.23656891
     atom   16 type  1   force =    -0.38408412   -3.20843249    0.52231818
     atom   17 type  2   force =    -0.96082512   -1.16474042  -37.43470824
     atom   18 type  2   force =     0.07650005    0.67139630   38.78842045
     atom   19 type  1   force =    -4.22772269    3.34617846    3.33724851
     atom   20 type  2   force =    -0.35457863    0.32814342   38.96508760
     atom   21 type  1   force =    -0.85122753   -0.11328138    0.32634240
     atom   22 type  2   force =    -5.41525347    0.00959728  -34.13967073
     atom   23 type  2   force =    -0.22417229   -0.64487179   38.93186279
     atom   24 type  1   force =     0.75921952   -1.81962293   -4.41192080
     atom   25 type  2   force =    -0.43051258   -1.55940093  -38.42329501
     atom   26 type  2   force =     0.23930064   -0.39986003   37.84367229
     atom   27 type  1   force =     0.11354714    0.49354399    3.61770727
     atom   28 type  2   force =     0.13204064   -0.69970355  -37.67912701
     atom   29 type  2   force =     0.31713714    0.41637984   37.54894034
     atom   30 type  1   force =     1.80295541    2.14598564    3.07891408
     atom   31 type  2   force =    -0.88916465    2.58659532  -35.53033972
     atom   32 type  2   force =     0.52096103    0.30902630   39.23109573
     atom   33 type  1   force =    -0.45920232   -1.21941986    3.02447443
     atom   34 type  2   force =     3.00352093    0.21373290  -36.94184900
     atom   35 type  2   force =     0.47914621   -0.46581746   38.48877602
     atom   36 type  3   force =     0.06503823    1.56003295  -46.36621680
     The core correction contribution to forces
     atom    1 type  1   force =     0.00000000    0.00000000    0.00000000
     atom    2 type  2   force =     0.00023404   -0.00026810    0.02084617
     atom    3 type  2   force =     0.00057011    0.00007156   -0.02074386
     atom    4 type  1   force =     0.00000000    0.00000000    0.00000000
     atom    5 type  2   force =    -0.00063577    0.00170491    0.02040869
     atom    6 type  2   force =     0.00031497   -0.00097861   -0.02087194
     atom    7 type  1   force =     0.00000000    0.00000000    0.00000000
     atom    8 type  2   force =     0.00015837    0.00047920    0.02074278
     atom    9 type  2   force =     0.00007737    0.00034028   -0.02109563
     atom   10 type  1   force =     0.00000000    0.00000000    0.00000000
     atom   11 type  2   force =    -0.00060426   -0.00043787    0.02078856
     atom   12 type  2   force =     0.00139307    0.00128972   -0.02089221
     atom   13 type  1   force =     0.00000000    0.00000000    0.00000000
     atom   14 type  2   force =    -0.00051173    0.00014736    0.02068165
     atom   15 type  2   force =     0.00041926    0.00093728   -0.02083186
     atom   16 type  1   force =     0.00000000    0.00000000    0.00000000
     atom   17 type  2   force =    -0.00018099    0.00159483    0.02033701
     atom   18 type  2   force =    -0.00008472   -0.00045111   -0.02101482
     atom   19 type  1   force =     0.00000000    0.00000000    0.00000000
     atom   20 type  2   force =    -0.00000822    0.00090169   -0.02114098
     atom   21 type  1   force =     0.00000000    0.00000000    0.00000000
     atom   22 type  2   force =     0.02097908    0.00352755   -0.00447342
     atom   23 type  2   force =    -0.00057271    0.00116391   -0.02106688
     atom   24 type  1   force =     0.00000000    0.00000000    0.00000000
     atom   25 type  2   force =    -0.00010430   -0.00030292    0.02110544
     atom   26 type  2   force =    -0.00025694    0.00056941   -0.02076716
     atom   27 type  1   force =     0.00000000    0.00000000    0.00000000
     atom   28 type  2   force =     0.00022867    0.00168195    0.02113240
     atom   29 type  2   force =    -0.00052083   -0.00059307   -0.02060249
     atom   30 type  1   force =     0.00000000    0.00000000    0.00000000
     atom   31 type  2   force =     0.00062454    0.00047329    0.02128009
     atom   32 type  2   force =    -0.00043915    0.00061007   -0.02094981
     atom   33 type  1   force =     0.00000000    0.00000000    0.00000000
     atom   34 type  2   force =    -0.00058951    0.00139525    0.02103784
     atom   35 type  2   force =     0.00000463    0.00083116   -0.02085809
     atom   36 type  3   force =    -0.01273205   -0.00400144    0.01145720
     The Hubbard contrib.    to forces
     atom    1 type  1   force =     0.00000000    0.00000000    0.00000000
     atom    2 type  2   force =     0.00000000    0.00000000    0.00000000
     atom    3 type  2   force =     0.00000000    0.00000000    0.00000000
     atom    4 type  1   force =     0.00000000    0.00000000    0.00000000
     atom    5 type  2   force =     0.00000000    0.00000000    0.00000000
     atom    6 type  2   force =     0.00000000    0.00000000    0.00000000
     atom    7 type  1   force =     0.00000000    0.00000000    0.00000000
     atom    8 type  2   force =     0.00000000    0.00000000    0.00000000
     atom    9 type  2   force =     0.00000000    0.00000000    0.00000000
     atom   10 type  1   force =     0.00000000    0.00000000    0.00000000
     atom   11 type  2   force =     0.00000000    0.00000000    0.00000000
     atom   12 type  2   force =     0.00000000    0.00000000    0.00000000
     atom   13 type  1   force =     0.00000000    0.00000000    0.00000000
     atom   14 type  2   force =     0.00000000    0.00000000    0.00000000
     atom   15 type  2   force =     0.00000000    0.00000000    0.00000000
     atom   16 type  1   force =     0.00000000    0.00000000    0.00000000
     atom   17 type  2   force =     0.00000000    0.00000000    0.00000000
     atom   18 type  2   force =     0.00000000    0.00000000    0.00000000
     atom   19 type  1   force =     0.00000000    0.00000000    0.00000000
     atom   20 type  2   force =     0.00000000    0.00000000    0.00000000
     atom   21 type  1   force =     0.00000000    0.00000000    0.00000000
     atom   22 type  2   force =     0.00000000    0.00000000    0.00000000
     atom   23 type  2   force =     0.00000000    0.00000000    0.00000000
     atom   24 type  1   force =     0.00000000    0.00000000    0.00000000
     atom   25 type  2   force =     0.00000000    0.00000000    0.00000000
     atom   26 type  2   force =     0.00000000    0.00000000    0.00000000
     atom   27 type  1   force =     0.00000000    0.00000000    0.00000000
     atom   28 type  2   force =     0.00000000    0.00000000    0.00000000
     atom   29 type  2   force =     0.00000000    0.00000000    0.00000000
     atom   30 type  1   force =     0.00000000    0.00000000    0.00000000
     atom   31 type  2   force =     0.00000000    0.00000000    0.00000000
     atom   32 type  2   force =     0.00000000    0.00000000    0.00000000
     atom   33 type  1   force =     0.00000000    0.00000000    0.00000000
     atom   34 type  2   force =     0.00000000    0.00000000    0.00000000
     atom   35 type  2   force =     0.00000000    0.00000000    0.00000000
     atom   36 type  3   force =     0.00000000    0.00000000    0.00000000
     The SCF correction term to forces
     atom    1 type  1   force =     0.00009657   -0.00008693    0.00074386
     atom    2 type  2   force =     0.00002446   -0.00007160    0.00037400
     atom    3 type  2   force =     0.00002393   -0.00002738    0.00016500
     atom    4 type  1   force =     0.00004487    0.00018711    0.00069544
     atom    5 type  2   force =     0.00001074    0.00005309    0.00039524
     atom    6 type  2   force =     0.00001544    0.00003667    0.00008775
     atom    7 type  1   force =     0.00007054   -0.00010493    0.00073946
     atom    8 type  2   force =     0.00003636    0.00006747    0.00042984
     atom    9 type  2   force =     0.00000973    0.00001823    0.00013897
     atom   10 type  1   force =     0.00016787   -0.00015680    0.00076655
     atom   11 type  2   force =     0.00005338   -0.00007390    0.00049445
     atom   12 type  2   force =     0.00007171   -0.00004869    0.00009208
     atom   13 type  1   force =    -0.00007302   -0.00003638    0.00068701
     atom   14 type  2   force =    -0.00001262   -0.00000779    0.00044815
     atom   15 type  2   force =     0.00000171    0.00003629    0.00008867
     atom   16 type  1   force =    -0.00003048    0.00022796    0.00066860
     atom   17 type  2   force =    -0.00001628    0.00006442    0.00041826
     atom   18 type  2   force =    -0.00001177    0.00003180    0.00008123
     atom   19 type  1   force =    -0.00013206   -0.00006880    0.00085798
     atom   20 type  2   force =     0.00000121    0.00000278    0.00012047
     atom   21 type  1   force =     0.00009982    0.00002929    0.00070956
     atom   22 type  2   force =    -0.00016865   -0.00015222    0.00063925
     atom   23 type  2   force =    -0.00007705   -0.00006331    0.00009331
     atom   24 type  1   force =    -0.00000905   -0.00008207    0.00066613
     atom   25 type  2   force =    -0.00001409   -0.00009233    0.00042729
     atom   26 type  2   force =    -0.00001586   -0.00001703    0.00014771
     atom   27 type  1   force =    -0.00002495    0.00018917    0.00071574
     atom   28 type  2   force =     0.00000960    0.00006848    0.00039238
     atom   29 type  2   force =    -0.00000133    0.00002882    0.00011310
     atom   30 type  1   force =     0.00005925    0.00011349    0.00084802
     atom   31 type  2   force =    -0.00000190    0.00015044    0.00052152
     atom   32 type  2   force =    -0.00000592    0.00002999    0.00013445
     atom   33 type  1   force =    -0.00011589   -0.00018890    0.00079229
     atom   34 type  2   force =     0.00010354   -0.00009275    0.00048138
     atom   35 type  2   force =    -0.00000335   -0.00003563    0.00019153
     atom   36 type  3   force =    -0.00019673   -0.00012999    0.00063331

     Total force =     0.210808     Total SCF correction =     0.003180
     Energy error            =      5.3E-02 Ry
     Gradient error          =      1.4E-01 Ry/Bohr

     number of scf cycles    =   2
     number of bfgs steps    =   1

     energy             old  =   -2246.2144754525 Ry
     energy             new  =   -2246.2673252600 Ry

     CASE: energy            _new < energy            _old


     WARNING: bfgs curvature condition failed, Theta= 0.961
     new trust radius        =       0.1738789420 bohr
     new conv_thr            =       0.0000001369 Ry


ATOMIC_POSITIONS (angstrom)
Mo            6.5874430621        1.7654775160        2.8277194238
S             8.1631330178        0.8261885306        4.4377549076
S             8.1779352840        0.8225291586        1.2689157694
Mo            8.1003814913        4.4998433585        2.7179870211
S             6.4979876013        3.7168318970        4.3384722319
S             6.5540846628        3.5233450916        1.1226391496
Mo            6.4936441161        7.2000539565        2.6672299887
S             8.0848016524        6.3398165808        4.2610698964
S             8.0912945613        6.3105148357        1.0928356031
Mo            8.1418796531        9.9148734018        2.8039983268
S             6.5093845242        8.9406317027        4.3711902411
S             6.6164504377        9.0489194949        1.1424687638
Mo            3.4263966074        1.7452871772        2.7704052726
S             4.9885805752        0.8211626143        4.3637150317
S             5.0498965777        0.8466704294        1.2121529457
Mo            4.9798806080        4.5246344698        2.6383356329
S             3.4329318549        3.6715221862        4.2830545759
S             3.4362687358        3.5424403151        1.0712683238
Mo            3.4540231144        7.1941767352        2.6168649579
S             4.9912597619        6.3201139965        1.0340431874
Mo            5.0031903965        9.9347529266        2.7539753343
S             3.3339931498        8.8585106108        4.3948124995
S             3.4106191685        9.0687966547        1.1071545541
Mo            0.2872737181        1.7430090915        2.8302643428
S             1.8676771098        0.8109097435        4.4064067505
S             1.8476890954        0.8562181877        1.2032543182
Mo            1.8619118148        4.4928946555        2.6636710853
S             0.2737292827        3.6537357431        4.3317260583
S             0.2338497635        3.5285210131        1.1685148301
Mo            0.2679642330        7.2278189598        2.7003977258
S             1.9039073312        6.3090931308        4.2321259094
S             1.8531096169        6.3175811825        1.0530636951
Mo            1.8462350027        9.9543583450        2.7352691971
S             0.2873283255        9.0455124592        4.3852474692
S             0.2662015138        9.0524291774        1.1646279508
O             2.2515118127        8.5520266364        5.4821285651



     Writing config-only to output data dir ./MoS2-V-O.save/
     NEW-OLD atomic charge density approx. for the potential

     negative rho (up, down):  2.053E-04 0.000E+00

     total cpu time spent up to now is      248.3 secs

     Self-consistent Calculation

     iteration #  1     ecut=    80.00 Ry     beta= 0.70
     Davidson diagonalization with overlap
     ethr =  1.00E-06,  avg # of iterations = 12.0

     negative rho (up, down):  6.566E-05 0.000E+00

     total cpu time spent up to now is      265.6 secs

     total energy              =   -2246.30654271 Ry
     estimated scf accuracy    <       0.02100259 Ry

     iteration #  2     ecut=    80.00 Ry     beta= 0.70
     Davidson diagonalization with overlap
     ethr =  6.73E-06,  avg # of iterations =  5.0

     negative rho (up, down):  5.054E-05 0.000E+00

     total cpu time spent up to now is      276.3 secs

     total energy              =   -2246.31087937 Ry
     estimated scf accuracy    <       0.00983001 Ry

     iteration #  3     ecut=    80.00 Ry     beta= 0.70
     Davidson diagonalization with overlap
     ethr =  3.15E-06,  avg # of iterations =  3.0

     negative rho (up, down):  2.690E-05 0.000E+00

     total cpu time spent up to now is      287.9 secs

     total energy              =   -2246.31156941 Ry
     estimated scf accuracy    <       0.00081673 Ry

     iteration #  4     ecut=    80.00 Ry     beta= 0.70
     Davidson diagonalization with overlap
     ethr =  2.62E-07,  avg # of iterations =  5.0

     negative rho (up, down):  2.262E-05 0.000E+00

     total cpu time spent up to now is      300.4 secs

     total energy              =   -2246.31165389 Ry
     estimated scf accuracy    <       0.00009198 Ry

     iteration #  5     ecut=    80.00 Ry     beta= 0.70
     Davidson diagonalization with overlap
     ethr =  2.95E-08,  avg # of iterations =  2.0

     negative rho (up, down):  2.002E-05 0.000E+00

     total cpu time spent up to now is      312.7 secs

     total energy              =   -2246.31166161 Ry
     estimated scf accuracy    <       0.00002182 Ry

     iteration #  6     ecut=    80.00 Ry     beta= 0.70
     Davidson diagonalization with overlap
     ethr =  6.99E-09,  avg # of iterations =  5.0

     negative rho (up, down):  1.987E-05 0.000E+00

     total cpu time spent up to now is      324.7 secs

     total energy              =   -2246.31166530 Ry
     estimated scf accuracy    <       0.00000914 Ry

     iteration #  7     ecut=    80.00 Ry     beta= 0.70
     Davidson diagonalization with overlap
     ethr =  2.93E-09,  avg # of iterations =  2.0

     negative rho (up, down):  2.330E-05 0.000E+00

     total cpu time spent up to now is      337.2 secs

     total energy              =   -2246.31166685 Ry
     estimated scf accuracy    <       0.00000322 Ry

     iteration #  8     ecut=    80.00 Ry     beta= 0.70
     Davidson diagonalization with overlap
     ethr =  1.03E-09,  avg # of iterations =  5.0

     negative rho (up, down):  4.019E-05 0.000E+00

     total cpu time spent up to now is      348.9 secs

     total energy              =   -2246.31166858 Ry
     estimated scf accuracy    <       0.00000076 Ry

     iteration #  9     ecut=    80.00 Ry     beta= 0.70
     Davidson diagonalization with overlap
     ethr =  2.44E-10,  avg # of iterations =  5.0

     negative rho (up, down):  7.542E-05 0.000E+00

     total cpu time spent up to now is      359.9 secs

     total energy              =   -2246.31166922 Ry
     estimated scf accuracy    <       0.00000021 Ry

     iteration # 10     ecut=    80.00 Ry     beta= 0.70
     Davidson diagonalization with overlap
     ethr =  6.80E-11,  avg # of iterations =  5.0

     negative rho (up, down):  2.021E-04 0.000E+00

     total cpu time spent up to now is      364.1 secs

     End of self-consistent calculation

          k = 0.0000 0.0000 0.0000 (105382 PWs)   bands (ev):

   -63.0991 -62.9731 -62.9571 -62.9407 -62.9328 -62.9220 -62.9182 -62.8830
   -62.8714 -62.8556 -62.8383 -62.7956 -37.3775 -37.3358 -37.2643 -37.2494
   -37.2279 -37.2222 -37.2088 -37.1756 -37.1705 -37.1564 -37.1479 -37.1288
   -37.1256 -37.1160 -37.1055 -37.0989 -37.0964 -37.0916 -37.0873 -37.0756
   -37.0593 -37.0503 -37.0467 -37.0209 -37.0172 -37.0060 -36.9918 -36.9827
   -36.9775 -36.9658 -36.9254 -36.9206 -36.9139 -36.8942 -36.8616 -36.8243
   -21.9806 -16.0169 -15.2399 -15.2195 -15.0114 -14.9912 -14.8333 -14.5753
   -14.5396 -14.5223 -14.5071 -14.4828 -14.4248 -14.4066 -14.3036 -14.2288
   -14.2092 -14.1820 -14.1489 -14.0086 -13.9587 -13.9459 -13.9192 -13.6299
    -8.0520  -7.8954  -7.5458  -7.5002  -7.4598  -7.3753  -7.3072  -7.2961
    -7.2387  -7.1449  -6.9791  -6.9031  -6.8627  -6.7767  -6.6752  -6.6305
    -6.5545  -6.4691  -6.4098  -6.3494  -6.1689  -6.1505  -5.9739  -5.9245
    -5.8704  -5.8591  -5.8301  -5.7739  -5.7572  -5.7228  -5.6882  -5.6566
    -5.5878  -5.5328  -5.4459  -5.3458  -5.3032  -5.1654  -5.1101  -5.0819
    -5.0554  -5.0030  -4.9710  -4.8335  -4.7539  -4.6086  -4.4405  -4.4037
    -4.3376  -4.3149  -4.2131  -4.1772  -4.0347  -3.9802  -3.9014  -3.8794
    -3.8458  -3.7665  -3.7110  -3.6738  -3.6068  -3.5808  -3.5500  -3.5356
    -3.4698  -3.4530  -3.3300  -3.3115  -3.1685  -3.0521  -2.9679  -2.9051
    -2.8881  -2.8127  -2.7953  -2.7611  -2.7361  -2.6811  -2.6039  -2.3667
    -2.2987  -2.0897  -2.0500  -1.9085  -1.2652  -0.8806  -0.6389  -0.2865
    -0.2086  -0.1619  -0.0902   0.0206   0.0587   0.1186   0.1424   0.1944
     0.2359   0.2851   0.3542   0.4126   0.4547   0.4745   0.5340   0.5458
     0.6129   0.6207   0.6820   0.7170   0.7507   0.7657   0.8100   0.8837
     0.9261   0.9854   1.1736

     the Fermi energy is    -1.5868 ev

!    total energy              =   -2246.31166935 Ry
     estimated scf accuracy    <       0.00000007 Ry
     smearing contrib. (-TS)   =      -0.00004230 Ry
     internal energy E=F+TS    =   -2246.31162706 Ry

     The total energy is F=E-TS. E is the sum of the following terms:
     one-electron contribution =  -18428.29533317 Ry
     hartree contribution      =    9202.07082597 Ry
     xc contribution           =    -392.04942653 Ry
     ewald contribution        =    7381.82361829 Ry
     one-center paw contrib.   =      -9.86131161 Ry

     convergence has been achieved in  10 iterations

     negative rho (up, down):  2.021E-04 0.000E+00

     Forces acting on atoms (cartesian axes, Ry/au):

     atom    1 type  1   force =    -0.00361836   -0.00173365   -0.00461519
     atom    2 type  2   force =    -0.00333438    0.00450497   -0.00266668
     atom    3 type  2   force =    -0.00898625    0.00942252   -0.01554495
     atom    4 type  1   force =     0.00462813    0.00135620    0.00131511
     atom    5 type  2   force =     0.00067989   -0.00454880   -0.00577884
     atom    6 type  2   force =     0.00048468    0.00503231    0.00486234
     atom    7 type  1   force =     0.00117515   -0.00293276    0.00267466
     atom    8 type  2   force =     0.00208163   -0.00316882    0.00837715
     atom    9 type  2   force =     0.00814838    0.00431817    0.00301985
     atom   10 type  1   force =     0.00062407    0.00301231    0.00586705
     atom   11 type  2   force =     0.00280010    0.00177238   -0.01570006
     atom   12 type  2   force =    -0.00999132   -0.00238129   -0.00079634
     atom   13 type  1   force =     0.00515851   -0.00015020    0.00121284
     atom   14 type  2   force =     0.00425850    0.00371952    0.00944471
     atom   15 type  2   force =    -0.00235203   -0.00001047   -0.00760738
     atom   16 type  1   force =    -0.00014686    0.00322416    0.00282196
     atom   17 type  2   force =     0.00382026   -0.00017420    0.00188579
     atom   18 type  2   force =     0.00071941   -0.00197771    0.00716091
     atom   19 type  1   force =    -0.00519547   -0.01087499    0.00366520
     atom   20 type  2   force =     0.00694334   -0.00522035   -0.00862576
     atom   21 type  1   force =    -0.01811540   -0.00236919    0.02915353
     atom   22 type  2   force =    -0.03794817   -0.02230436   -0.03024338
     atom   23 type  2   force =     0.00521170    0.00223198    0.00607165
     atom   24 type  1   force =    -0.00267410    0.00117017   -0.00197968
     atom   25 type  2   force =     0.00663339    0.00736444   -0.00501866
     atom   26 type  2   force =    -0.00509883    0.00827158   -0.01163334
     atom   27 type  1   force =    -0.00074045    0.00099690    0.00600599
     atom   28 type  2   force =     0.00008276   -0.00334174   -0.00505996
     atom   29 type  2   force =     0.00150075    0.00280672   -0.00312406
     atom   30 type  1   force =    -0.00135980   -0.00263084    0.00572482
     atom   31 type  2   force =    -0.00177076   -0.00996391    0.00220412
     atom   32 type  2   force =    -0.00715861    0.00277076    0.00070247
     atom   33 type  1   force =    -0.00422353   -0.00347370   -0.00246716
     atom   34 type  2   force =    -0.02525849   -0.00729327   -0.03919835
     atom   35 type  2   force =    -0.00704936    0.00643311   -0.00442304
     atom   36 type  3   force =     0.09007154    0.01614207    0.06231267
     The non-local contrib.  to forces
     atom    1 type  1   force =     0.00551581    0.03054563   -0.01279426
     atom    2 type  2   force =    -0.00300043   -0.00218329   -0.27117343
     atom    3 type  2   force =    -0.00826241   -0.00456331    0.26068418
     atom    4 type  1   force =     0.00363202    0.00739299    0.00405413
     atom    5 type  2   force =     0.00863011   -0.03093688   -0.25396307
     atom    6 type  2   force =    -0.00213215    0.00537831    0.26642936
     atom    7 type  1   force =    -0.00688356   -0.00287888   -0.01834316
     atom    8 type  2   force =    -0.00004207   -0.00197842   -0.26298357
     atom    9 type  2   force =     0.00293322   -0.00596076    0.27572464
     atom   10 type  1   force =     0.01578660   -0.00261980    0.00352000
     atom   11 type  2   force =     0.01040292    0.00275161   -0.26447693
     atom   12 type  2   force =    -0.02266369   -0.01735739    0.26482898
     atom   13 type  1   force =    -0.00455697    0.02031885   -0.00519057
     atom   14 type  2   force =     0.00586101   -0.00755683   -0.25967997
     atom   15 type  2   force =    -0.00423258   -0.01298508    0.26623816
     atom   16 type  1   force =    -0.00017408    0.02674425   -0.03620438
     atom   17 type  2   force =     0.00480977   -0.02983635   -0.25234541
     atom   18 type  2   force =    -0.00050367   -0.00189905    0.27167948
     atom   19 type  1   force =     0.02081437    0.00968029   -0.00019225
     atom   20 type  2   force =     0.00286820   -0.02198827    0.26062915
     atom   21 type  1   force =     0.01557332    0.00975625   -0.00257358
[...]
     atom   28 type  2   force =     0.00114756   -0.01329175   -0.27669743
     atom   29 type  2   force =     0.00029347   -0.00703820    0.26858203
     atom   30 type  1   force =    -0.00097920    0.02073217    0.00428606
     atom   31 type  2   force =    -0.00296118    0.00616410   -0.27079124
     atom   32 type  2   force =     0.00853455   -0.01507562    0.26911445
     atom   33 type  1   force =     0.00837923    0.00502609    0.01842280
     atom   34 type  2   force =    -0.00193665   -0.00495875   -0.27903588
     atom   35 type  2   force =     0.00015453   -0.01400259    0.26225389
     atom   36 type  3   force =    -0.03981511    0.01604288   -2.31642365
     The ionic contribution  to forces
     atom    1 type  1   force =     0.31357401    1.19937532    1.53642215
     atom    2 type  2   force =    -0.17356980    0.39803471   38.56868091
     atom    3 type  2   force =     0.06584353    0.03493270  -37.88480282
     atom    4 type  1   force =    -0.16514730    0.12604572   -0.28404090
     atom    5 type  2   force =    -0.66440488    1.14972750   38.11359639
     atom    6 type  2   force =     0.29188492   -0.35254772  -38.43204242
     atom    7 type  1   force =    -2.07924485   -2.43686454    1.02323747
     atom    8 type  2   force =    -1.14051797   -0.18116801   37.92462708
     atom    9 type  2   force =     0.33862061   -0.08592113  -38.35217659
     atom   10 type  1   force =    -0.47400268   -0.04614928    1.96643508
     atom   11 type  2   force =     0.60876100   -1.48469905   37.75382179
     atom   12 type  2   force =     0.25750236    0.29328525  -38.60341901
     atom   13 type  1   force =     0.12266045    1.52110098    1.34502019
     atom   14 type  2   force =     0.54163523    1.01581766   38.01692223
     atom   15 type  2   force =     0.04252838    0.05648397  -38.29341025
     atom   16 type  1   force =     0.41519227    2.91102055    0.73712442
     atom   17 type  2   force =     0.82329854    1.07493511   38.09202231
     atom   18 type  2   force =    -0.23237250   -0.39943366  -38.51501814
     atom   19 type  1   force =     2.80618894   -2.75657179   -1.70828602
     atom   20 type  2   force =     0.15705940   -0.08431530  -39.44758640
     atom   21 type  1   force =     1.06302656    0.30668066   -2.88154595
     atom   22 type  2   force =     0.37994074   -1.47914365   28.43178699
     atom   23 type  2   force =    -0.20856036    0.29809872  -38.57836751
     atom   24 type  1   force =    -0.46518988    0.97075461    1.35291105
     atom   25 type  2   force =    -0.32724235    1.10240357   38.30346170
     atom   26 type  2   force =    -0.10199175    0.10049582  -38.25812127
     atom   27 type  1   force =    -0.25597090   -0.24676112   -0.49819658
     atom   28 type  2   force =    -0.13521997    0.49745868   37.96731927
     atom   29 type  2   force =    -0.05766983   -0.11880471  -38.04275254
     atom   30 type  1   force =    -0.67472799   -1.26062992    0.76574986
     atom   31 type  2   force =     0.51720212   -0.93672309   37.61861292
     atom   32 type  2   force =    -0.49163327   -0.08591216  -38.78420811
     atom   33 type  1   force =    -0.59904491    0.31105911   -1.06901445
     atom   34 type  2   force =    -1.02942718   -0.48641430   38.24766156
     atom   35 type  2   force =    -0.09337748    0.12650135  -38.23239419
     atom   36 type  3   force =     0.62439677   -1.05215256   50.09996976
     The local contribution  to forces
     atom    1 type  1   force =    -0.31073506   -1.22398699   -1.53054288
     atom    2 type  2   force =     0.17408657   -0.38629467  -38.31921819
     atom    3 type  2   force =    -0.06351177   -0.02281289   37.63635270
     atom    4 type  1   force =     0.15939186   -0.13143823    0.28233621
     atom    5 type  2   force =     0.66072920   -1.12835811  -37.87736501
     atom    6 type  2   force =    -0.29220591    0.35434310   38.18727026
     atom    7 type  1   force =     2.09457362    2.43201721   -1.00042111
     atom    8 type  2   force =     1.13294449    0.17746714  -37.67729115
     atom    9 type  2   force =    -0.33307323    0.09731715   38.10299094
     atom   10 type  1   force =     0.47040669    0.03910198   -1.97511757
     atom   11 type  2   force =    -0.61355047    1.47824703  -37.50961312
     atom   12 type  2   force =    -0.24986816   -0.27751071   38.35960462
     atom   13 type  1   force =    -0.12645393   -1.54177127   -1.33782829
     atom   14 type  2   force =    -0.54141644   -1.00906154  -37.76512639
     atom   15 type  2   force =    -0.04165933   -0.04751907   38.05193114
     atom   16 type  1   force =    -0.41971559   -2.93809648   -0.70381776
     atom   17 type  2   force =    -0.81865341   -1.05166939  -37.85609390
     atom   18 type  2   force =     0.23286259    0.40261756   38.26886521
     atom   19 type  1   force =    -2.82205523    2.74000975    1.71628427
     atom   20 type  2   force =    -0.15498020    0.09735868   39.20511714
     atom   21 type  1   force =    -1.05410901   -0.31908785    2.85805267
     atom   22 type  2   force =    -0.39543898    1.46938942  -28.72137134
     atom   23 type  2   force =     0.20100382   -0.28402970   38.32473305
     atom   24 type  1   force =     0.46662258   -0.98756699   -1.35573679
     atom   25 type  2   force =     0.32548917   -1.09177819  -38.05236775
     atom   26 type  2   force =     0.10026758   -0.09118914   38.01478655
     atom   27 type  1   force =     0.26373995    0.24260669    0.49646284
     atom   28 type  2   force =     0.13414369   -0.48455296  -37.71147733
     atom   29 type  2   force =     0.05738426    0.12615202   37.79566531
     atom   30 type  1   force =     0.67587941    1.23961871   -0.76987486
     atom   31 type  2   force =    -0.51541900    0.92998795  -37.36817944
     atom   32 type  2   force =     0.48441693    0.09978867   38.53706552
     atom   33 type  1   force =     0.59087095   -0.31596911    1.05020988
     atom   34 type  2   force =     1.03074429    0.49166683  -37.99058773
     atom   35 type  2   force =     0.09330485   -0.11296555   37.99048580
     atom   36 type  3   force =    -0.58579198    1.03667544  -47.80790882
     The core correction contribution to forces
     atom    1 type  1   force =     0.00000000    0.00000000    0.00000000
     atom    2 type  2   force =    -0.00000788    0.00051563    0.02101738
     atom    3 type  2   force =     0.00014761    0.00050616   -0.02094614
     atom    4 type  1   force =     0.00000000    0.00000000    0.00000000
     atom    5 type  2   force =    -0.00033083    0.00102000    0.02052003
     atom    6 type  2   force =     0.00013893   -0.00034083   -0.02084660
     atom    7 type  1   force =     0.00000000    0.00000000    0.00000000
     atom    8 type  2   force =    -0.00043987    0.00008575    0.02099830
     atom    9 type  2   force =     0.00068263    0.00071897   -0.02102006
     atom   10 type  1   force =     0.00000000    0.00000000    0.00000000
     atom   11 type  2   force =    -0.00010722   -0.00061383    0.02106946
     atom   12 type  2   force =     0.00063033    0.00108481   -0.02080644
     atom   13 type  1   force =     0.00000000    0.00000000    0.00000000
     atom   14 type  2   force =    -0.00000918    0.00006539    0.02128994
     atom   15 type  2   force =    -0.00003104    0.00046091   -0.02066821
     atom   16 type  1   force =     0.00000000    0.00000000    0.00000000
     atom   17 type  2   force =     0.00038691    0.00112309    0.02053405
     atom   18 type  2   force =    -0.00017198   -0.00032054   -0.02091415
     atom   19 type  1   force =     0.00000000    0.00000000    0.00000000
     atom   20 type  2   force =     0.00018188    0.00056830   -0.02119033
     atom   21 type  1   force =     0.00000000    0.00000000    0.00000000
     atom   22 type  2   force =    -0.00102234   -0.00079571   -0.00989465
     atom   23 type  2   force =    -0.00068413    0.00097886   -0.02126085
     atom   24 type  1   force =     0.00000000    0.00000000    0.00000000
     atom   25 type  2   force =    -0.00004842    0.00047200    0.02125942
     atom   26 type  2   force =    -0.00004316    0.00047914   -0.02078657
     atom   27 type  1   force =     0.00000000    0.00000000    0.00000000
     atom   28 type  2   force =    -0.00003436    0.00085818    0.02128827
     atom   29 type  2   force =     0.00001390    0.00015962   -0.02086174
     atom   30 type  1   force =     0.00000000    0.00000000    0.00000000
     atom   31 type  2   force =     0.00016335   -0.00001247    0.02128313
     atom   32 type  2   force =    -0.00081309    0.00080007   -0.02100905
     atom   33 type  1   force =     0.00000000    0.00000000    0.00000000
     atom   34 type  2   force =     0.00013016    0.00014449    0.02164834
     atom   35 type  2   force =    -0.00004606    0.00074681   -0.02077766
     atom   36 type  3   force =     0.00041648   -0.00020298    0.02455792
     The Hubbard contrib.    to forces
     atom    1 type  1   force =     0.00000000    0.00000000    0.00000000
     atom    2 type  2   force =     0.00000000    0.00000000    0.00000000
     atom    3 type  2   force =     0.00000000    0.00000000    0.00000000
     atom    4 type  1   force =     0.00000000    0.00000000    0.00000000
     atom    5 type  2   force =     0.00000000    0.00000000    0.00000000
     atom    6 type  2   force =     0.00000000    0.00000000    0.00000000
     atom    7 type  1   force =     0.00000000    0.00000000    0.00000000
     atom    8 type  2   force =     0.00000000    0.00000000    0.00000000
     atom    9 type  2   force =     0.00000000    0.00000000    0.00000000
     atom   10 type  1   force =     0.00000000    0.00000000    0.00000000
     atom   11 type  2   force =     0.00000000    0.00000000    0.00000000
     atom   12 type  2   force =     0.00000000    0.00000000    0.00000000
     atom   13 type  1   force =     0.00000000    0.00000000    0.00000000
     atom   14 type  2   force =     0.00000000    0.00000000    0.00000000
     atom   15 type  2   force =     0.00000000    0.00000000    0.00000000
     atom   16 type  1   force =     0.00000000    0.00000000    0.00000000
     atom   17 type  2   force =     0.00000000    0.00000000    0.00000000
     atom   18 type  2   force =     0.00000000    0.00000000    0.00000000
     atom   19 type  1   force =     0.00000000    0.00000000    0.00000000
     atom   20 type  2   force =     0.00000000    0.00000000    0.00000000
     atom   21 type  1   force =     0.00000000    0.00000000    0.00000000
     atom   22 type  2   force =     0.00000000    0.00000000    0.00000000
     atom   23 type  2   force =     0.00000000    0.00000000    0.00000000
     atom   24 type  1   force =     0.00000000    0.00000000    0.00000000
     atom   25 type  2   force =     0.00000000    0.00000000    0.00000000
     atom   26 type  2   force =     0.00000000    0.00000000    0.00000000
     atom   27 type  1   force =     0.00000000    0.00000000    0.00000000
     atom   28 type  2   force =     0.00000000    0.00000000    0.00000000
     atom   29 type  2   force =     0.00000000    0.00000000    0.00000000
     atom   30 type  1   force =     0.00000000    0.00000000    0.00000000
     atom   31 type  2   force =     0.00000000    0.00000000    0.00000000
     atom   32 type  2   force =     0.00000000    0.00000000    0.00000000
     atom   33 type  1   force =     0.00000000    0.00000000    0.00000000
     atom   34 type  2   force =     0.00000000    0.00000000    0.00000000
     atom   35 type  2   force =     0.00000000    0.00000000    0.00000000
     atom   36 type  3   force =     0.00000000    0.00000000    0.00000000
     The SCF correction term to forces
     atom    1 type  1   force =     0.00002136    0.00001026    0.00000978
     atom    2 type  2   force =     0.00000675   -0.00002222    0.00000489
     atom    3 type  2   force =     0.00001576    0.00001609   -0.00001334
     atom    4 type  1   force =     0.00004623    0.00001107   -0.00006264
     atom    5 type  2   force =     0.00000574    0.00000112   -0.00000641
     atom    6 type  2   force =     0.00000252   -0.00001560   -0.00000207
     atom    7 type  1   force =     0.00001571    0.00007723    0.00004443
     atom    8 type  2   force =    -0.00001166    0.00002313   -0.00001253
     atom    9 type  2   force =     0.00002358    0.00001677    0.00000699
     atom   10 type  1   force =    -0.00003420   -0.00007462    0.00006882
     atom   11 type  2   force =    -0.00000028   -0.00001515   -0.00000537
     atom   12 type  2   force =    -0.00000168   -0.00002293    0.00001710
     atom   13 type  1   force =    -0.00002845   -0.00001890    0.00001600
     atom   14 type  2   force =     0.00000540   -0.00001143    0.00000814
     atom   15 type  2   force =    -0.00000184    0.00000903   -0.00001782
     atom   16 type  1   force =     0.00001630   -0.00003327    0.00002660
     atom   17 type  2   force =    -0.00000625    0.00001067   -0.00000061
     atom   18 type  2   force =     0.00000315   -0.00000137   -0.00000917
     atom   19 type  1   force =    -0.00001899    0.00005119    0.00004391
     atom   20 type  2   force =     0.00000046    0.00001592   -0.00000360
     atom   21 type  1   force =     0.00002299   -0.00004012    0.00002428
     atom   22 type  2   force =     0.00001915    0.00000169   -0.00000879
     atom   23 type  2   force =     0.00000358    0.00000952    0.00001463
     atom   24 type  1   force =    -0.00005549   -0.00001263   -0.00006307
     atom   25 type  2   force =    -0.00000170   -0.00000952   -0.00000361
     atom   26 type  2   force =     0.00000042    0.00000415   -0.00001667
     atom   27 type  1   force =    -0.00000859    0.00006938   -0.00003991
     atom   28 type  2   force =    -0.00000274   -0.00000148   -0.00001711
     atom   29 type  2   force =    -0.00000715    0.00000249   -0.00000852
     atom   30 type  1   force =    -0.00003397    0.00000896   -0.00005510
     atom   31 type  2   force =     0.00001458    0.00000303   -0.00001017
     atom   32 type  2   force =    -0.00003026   -0.00001399    0.00000061
     atom   33 type  1   force =     0.00001681   -0.00001913    0.00004419
     atom   34 type  2   force =    -0.00001302    0.00001475   -0.00000827
     atom   35 type  2   force =    -0.00000122   -0.00001211   -0.00000737
     atom   36 type  3   force =     0.00008466   -0.00006625   -0.00002441

     Total force =     0.005108     Total SCF correction =     0.000282
     Energy error            =      6.7E-05 Ry
     Gradient error          =      1.5E-03 Ry/Bohr

     bfgs converged in  23 scf cycles and  22 bfgs steps
     (criteria: energy <  1.0E-04 Ry, force <  1.0E-02 Ry/Bohr)

     End of BFGS Geometry Optimization

     Final energy             =   -2246.4458299082 Ry

     File ./MoS2-V-O.bfgs deleted, as requested
Begin final coordinates

ATOMIC_POSITIONS (angstrom)
Mo            6.5222802613        1.7441427663        2.7622106035
S             8.0941489972        0.8375817266        4.3738623939
S             8.1029450324        0.8257177295        1.1842860237
Mo            8.0873023211        4.4847310837        2.7151738798
S             6.4863711840        3.6529452435        4.3104151157
S             6.5212486365        3.5481999465        1.1159575835
Mo            6.4799441608        7.1672839361        2.6707444053
S             8.0473940809        6.2947612682        4.3048706336
S             8.1098441932        6.3159537394        1.1175905889
Mo            8.0978338043        9.9151927960        2.7779834360
S             6.4734159867        8.9306323541        4.3290752003
S             6.5644653066        9.0104530749        1.1283505154
Mo            3.3886493344        1.7448269599        2.7659932075
S             4.9580205987        0.8031316689        4.3550452575
S             4.9566381389        0.8427758844        1.1625209247
Mo            4.9566653523        4.5200629412        2.6578572616
S             3.4297900677        3.6548316810        4.3128786597
S             3.3988342254        3.5514236117        1.1138990151
Mo            3.4375772113        7.1406787447        2.6515584218
S             4.9720742374        6.2874863962        1.0347899057
Mo            4.9728343168        9.9127611354        2.7216004020
S             3.4102048910        8.9435302806        4.2401839890
S             3.3601659306        9.0245586358        1.1404068476
Mo            0.2279118495        1.7378350077        2.7707995157
S             1.8105418917        0.8429502177        4.3756698022
S             1.8088411781        0.8518230222        1.1720016881
Mo            1.8312369800        4.4901323700        2.7152867413
S             0.2302411766        3.6015550732        4.3198333557
S             0.2290013904        3.5500852520        1.1510659263
Mo            0.2382364787        7.2054318930        2.7457826281
S             1.8909989225        6.2969950613        4.3132078645
S             1.8023074347        6.3091370386        1.1018238483
Mo            1.7891762098        9.9458933238        2.7614335352
S             0.2340740225        9.0144286409        4.3688905135
S             0.2167554903        9.0349533705        1.1730709698
O             3.4358779398        8.9463180905        5.7386408765
End final coordinates



     Writing all to output data dir ./MoS2-V-O.save/
 
     init_run     :      4.66s CPU      5.13s WALL (       1 calls)
     electrons    :   2225.16s CPU   2540.24s WALL (      23 calls)
     update_pot   :     69.95s CPU     75.09s WALL (      22 calls)
     forces       :     67.73s CPU     78.73s WALL (      23 calls)

     Called by init_run:
     wfcinit      :      0.50s CPU      0.54s WALL (       1 calls)
     potinit      :      2.39s CPU      2.63s WALL (       1 calls)
     hinit0       :      0.43s CPU      0.46s WALL (       1 calls)

     Called by electrons:
     c_bands      :    320.61s CPU    328.77s WALL (     218 calls)
     sum_band     :    133.70s CPU    186.49s WALL (     218 calls)
     v_of_rho     :    260.44s CPU    317.00s WALL (     232 calls)
     newd         :     83.03s CPU    125.11s WALL (     232 calls)
     PAW_pot      :      9.20s CPU      9.25s WALL (     254 calls)
     mix_rho      :   1445.03s CPU   1604.13s WALL (     218 calls)

     Called by c_bands:
     init_us_2    :      4.99s CPU      5.39s WALL (     459 calls)
     init_us_2:cp :      4.99s CPU      5.39s WALL (     459 calls)
     regterg      :    304.29s CPU    312.04s WALL (     218 calls)

     Called by *egterg:
     rdiaghg      :     20.67s CPU     20.90s WALL (    1177 calls)
     h_psi        :    196.99s CPU    198.67s WALL (    1209 calls)
     s_psi        :     18.42s CPU     18.48s WALL (    1209 calls)
     g_psi        :      1.02s CPU      1.03s WALL (     990 calls)

     Called by h_psi:
     h_psi:calbec :     21.29s CPU     21.40s WALL (    1209 calls)
     vloc_psi     :    154.79s CPU    156.22s WALL (    1209 calls)
     add_vuspsi   :     18.41s CPU     18.53s WALL (    1209 calls)

     General routines
     calbec       :     30.87s CPU     31.04s WALL (    1541 calls)
     fft          :    182.25s CPU    204.67s WALL (   15494 calls)
     ffts         :    645.72s CPU    799.29s WALL (  354740 calls)
     fftw         :     99.39s CPU    100.23s WALL (  133812 calls)
     interpolate  :      2.88s CPU      3.32s WALL (     232 calls)
 
     Parallel routines
 
     PWSCF        :  39m38.69s CPU  45m15.79s WALL

 
   This run was terminated on:  21: 9:24   1Nov2023            

=------------------------------------------------------------------------------=
   JOB DONE.
=------------------------------------------------------------------------------=
