
     Program PWSCF v.7.2 starts on  1Nov2023 at 14:58:11 

     This program is part of the open-source Quantum ESPRESSO suite
     for quantum simulation of materials; please cite
         "P. Giannozzi et al., J. Phys.:Condens. Matter 21 395502 (2009);
         "P. Giannozzi et al., J. Phys.:Condens. Matter 29 465901 (2017);
         "P. Giannozzi et al., J. Chem. Phys. 152 154105 (2020);
          URL http://www.quantum-espresso.org", 
     in publications or presentations arising from this work. More details at
     http://www.quantum-espresso.org/quote

     Parallel version (MPI & OpenMP), running on      48 processor cores
     Number of MPI processes:                48
     Threads/MPI process:                     1

     MPI processes distributed on     1 nodes
     153869 MiB available memory on the printing compute node when the environment starts
 
     Waiting for input...
     Reading input from standard input
Warning: card &CELL ignored
Warning: card CELL_DYNAMICS = 'BFGS', ignored
Warning: card CELL_DOFREE = '2DXY' ignored
Warning: card / ignored

     Current dimensions of program PWSCF are:
     Max number of different atomic species (ntypx) = 10
     Max number of k-points (npk) =  40000
     Max angular momentum in pseudopotentials (lmaxx) =  4
     file O.pbe-n-kjpaw_psl.0.1.UPF: wavefunction(s)  2P renormalized

     IMPORTANT: XC functional enforced from input :
     Exchange-correlation= RVV10
                           (   1   4  13   4  26   0   0)
     Any further DFT definition will be discarded
     Please, verify this is what you really want


     gamma-point specific algorithms are used
     signal trapping enabled: kill the code with -SIGUSR1 to stop cleanly the simulation 
 
     R & G space division:  proc/nbgrp/npool/nimage =      48
     Subspace diagonalization in iterative solution of the eigenvalue problem:
     one sub-group per band group will be used
     scalapack distributed-memory algorithm (size of sub-group:  2*  2 procs)

 
     Parallelization info
     --------------------
     sticks:   dense  smooth     PW     G-vecs:    dense   smooth      PW
     Min         396     194     47               101632    35090    4376
     Max         398     196     50               101674    35128    4410
     Sum       19091    9389   2349              4879585  1685513  210763
 
     Using Slab Decomposition
 


     bravais-lattice index     =            0
     lattice parameter (alat)  =      17.8707  a.u.
     unit-cell volume          =   17436.2743 (a.u.)^3
     number of atoms/cell      =           36
     number of atomic types    =            3
     number of electrons       =       312.00
     number of Kohn-Sham states=          187
     kinetic-energy cutoff     =      80.0000  Ry
     charge density cutoff     =     650.0000  Ry
     scf convergence threshold =      1.0E-06
     mixing beta               =       0.7000
     number of iterations used =            8  local-TF  mixing
     energy convergence thresh.=      1.0E-04
     force convergence thresh. =      1.0E-02
     Exchange-correlation= RVV10
                           (   1   4  13   4  26   0   0)
     nstep                     =          200


     celldm(1)=  17.870686  celldm(2)=   0.000000  celldm(3)=   0.000000
     celldm(4)=   0.000000  celldm(5)=   0.000000  celldm(6)=   0.000000

     crystal axes: (cart. coord. in units of alat)
               a(1) = (   1.000000   0.000000   0.000000 )  
               a(2) = (   0.000000   1.155671   0.000000 )  
               a(3) = (   0.000000   0.000000   2.643601 )  

     reciprocal axes: (cart. coord. in units 2 pi/alat)
               b(1) = (  1.000000  0.000000  0.000000 )  
               b(2) = (  0.000000  0.865298  0.000000 )  
               b(3) = (  0.000000  0.000000  0.378272 )  


     PseudoPot. # 1 for Mo read from file:
     ../pseudo/Mo_ONCV_PBE-1.0.oncvpsp.upf
     MD5 check sum: 1b5d28e075c9ccadda658a603575cd1f
     Pseudo is Norm-conserving, Zval = 14.0
     Generated using ONCVPSP code by D. R. Hamann
     Using radial grid of 1526 points,  6 beta functions with: 
                l(1) =   0
                l(2) =   0
                l(3) =   1
                l(4) =   1
                l(5) =   2
                l(6) =   2

     PseudoPot. # 2 for S  read from file:
     ../pseudo/s_pbe_v1.4.uspp.F.UPF
     MD5 check sum: 88d86576ff6df21479756cfb9bdac1df
     Pseudo is Ultrasoft + core correction, Zval =  6.0
     Generated by new atomic code, or converted to UPF format
     Using radial grid of  907 points,  6 beta functions with: 
                l(1) =   0
                l(2) =   0
                l(3) =   1
                l(4) =   1
                l(5) =   2
                l(6) =   2
     Q(r) pseudized with  8 coefficients,  rinner =    1.300   1.300   1.300
                                                       1.300   1.300

     PseudoPot. # 3 for O  read from file:
     ../pseudo/O.pbe-n-kjpaw_psl.0.1.UPF
     MD5 check sum: 0234752ac141de4415c5fc33072bef88
     Pseudo is Projector augmented-wave + core cor, Zval =  6.0
     Generated using "atomic" code by A. Dal Corso  v.5.0.99 svn rev. 10869
     Shape of augmentation charge: BESSEL
     Using radial grid of 1095 points,  4 beta functions with: 
                l(1) =   0
                l(2) =   0
                l(3) =   1
                l(4) =   1
     Q(r) pseudized with 0 coefficients 


     atomic species   valence    mass     pseudopotential
        Mo            14.00    95.94000     Mo( 1.00)
        S              6.00    32.06500     S ( 1.00)
        O              6.00    15.99940     O ( 1.00)

     No symmetry found



   Cartesian axes

     site n.     atom                  positions (alat units)
         1           Mo  tau(   1) = (   0.6952221   0.1890506   0.2985846  )
         2           S   tau(   2) = (   0.8646417   0.0856217   0.4689279  )
         3           S   tau(   3) = (   0.8663890   0.0857843   0.1351291  )
         4           Mo  tau(   4) = (   0.8560186   0.4753274   0.2873942  )
         5           S   tau(   5) = (   0.6873294   0.3936244   0.4596353  )
         6           S   tau(   6) = (   0.6929804   0.3713468   0.1185692  )
         7           Mo  tau(   7) = (   0.6862796   0.7633098   0.2825370  )
         8           S   tau(   8) = (   0.8545980   0.6708292   0.4486168  )
         9           S   tau(   9) = (   0.8545123   0.6666874   0.1146125  )
        10           Mo  tau(  10) = (   0.8629403   1.0471007   0.3006803  )
        11           S   tau(  11) = (   0.6868280   0.9456650   0.4634891  )
        12           S   tau(  12) = (   0.6998113   0.9568511   0.1205389  )
        13           Mo  tau(  13) = (   0.3618216   0.1847309   0.2935964  )
        14           S   tau(  14) = (   0.5260962   0.0863870   0.4600448  )
        15           S   tau(  15) = (   0.5348379   0.0894875   0.1297123  )
        16           Mo  tau(  16) = (   0.5265817   0.4772436   0.2784130  )
        17           S   tau(  17) = (   0.3624753   0.3882513   0.4525556  )
        18           S   tau(  18) = (   0.3635411   0.3752055   0.1119148  )
        19           Mo  tau(  19) = (   0.3652268   0.7630864   0.2781795  )
        20           S   tau(  20) = (   0.5269494   0.6690381   0.1096838  )
        21           Mo  tau(  21) = (   0.5300192   1.0470394   0.2900995  )
        22           S   tau(  22) = (   0.3670346   0.9457522   0.4574073  )
        23           S   tau(  23) = (   0.3604225   0.9585725   0.1159032  )
        24           Mo  tau(  24) = (   0.0313099   0.1847895   0.3013130  )
        25           S   tau(  25) = (   0.1956761   0.0838230   0.4650863  )
        26           S   tau(  26) = (   0.1967693   0.0903508   0.1278874  )
        27           Mo  tau(  27) = (   0.1967578   0.4753919   0.2813011  )
        28           S   tau(  28) = (   0.0287851   0.3864324   0.4586755  )
        29           S   tau(  29) = (   0.0244514   0.3729871   0.1239344  )
        30           Mo  tau(  30) = (   0.0286728   0.7631204   0.2856894  )
        31           S   tau(  31) = (   0.2011512   0.6675435   0.4465001  )
        32           S   tau(  32) = (   0.1969214   0.6672839   0.1104564  )
        33           Mo  tau(  33) = (   0.1950294   1.0511147   0.2932237  )
        34           S   tau(  34) = (   0.0312912   0.9612169   0.4667423  )
        35           S   tau(  35) = (   0.0292670   0.9563028   0.1216485  )
        36           O   tau(  36) = (   0.1111111   0.3852236   0.5650415  )

     number of k points=     1  Gaussian smearing, width (Ry)=  0.0100
                       cart. coord. in units 2pi/alat
        k(    1) = (   0.0000000   0.0000000   0.0000000), wk =   2.0000000

     Dense  grid:  2439793 G-vectors     FFT dimensions: ( 150, 180, 384)

     Smooth grid:   842757 G-vectors     FFT dimensions: ( 108, 120, 270)

     Estimated max dynamical RAM per process >     269.22 MB

     Estimated total dynamical RAM >      12.62 GB

     Initial potential from superposition of free atoms

     starting charge     311.9873, renormalised to     312.0000

     negative rho (up, down):  2.753E-04 0.000E+00


---------------------------------------------------------------------------------
Carrying out rVV10 run using the following parameters:
Nqs =      20    Nr_points =    1024   r_max =   100.000
b_value =  6.30000    beta =  0.00901
     q_mesh =  0.00010000  0.00030000  0.00058939  0.00100810
               0.00161396  0.00249058  0.00375900  0.00559430
               0.00824984  0.01209221  0.01765183  0.02569619
               0.03733578  0.05417739  0.07854596  0.11380545
               0.16482331  0.23864234  0.34545298  0.50000000

Gradients computed in Reciprocal space

---------------------------------------------------------------------------------


     Starting wfcs are  216 randomized atomic wfcs
     Checking if some PAW data can be deallocated... 

     total cpu time spent up to now is        5.7 secs

     Self-consistent Calculation

     iteration #  1     ecut=    80.00 Ry     beta= 0.70
     Davidson diagonalization with overlap
     ethr =  1.00E-02,  avg # of iterations =  2.0

     Threshold (ethr) on eigenvalues was too large:
     Diagonalizing with lowered threshold

     Davidson diagonalization with overlap
     ethr =  4.68E-04,  avg # of iterations =  3.0

     negative rho (up, down):  3.566E-08 0.000E+00

     total cpu time spent up to now is       23.4 secs

     total energy              =   -2246.16090958 Ry
     estimated scf accuracy    <       1.71292951 Ry

     iteration #  2     ecut=    80.00 Ry     beta= 0.70
     Davidson diagonalization with overlap
     ethr =  5.49E-04,  avg # of iterations =  3.0

     total cpu time spent up to now is       27.8 secs

     total energy              =   -2246.14898893 Ry
     estimated scf accuracy    <       0.56913169 Ry

     iteration #  3     ecut=    80.00 Ry     beta= 0.70
     Davidson diagonalization with overlap
     ethr =  1.82E-04,  avg # of iterations =  2.0

     total cpu time spent up to now is       31.6 secs

     total energy              =   -2246.17112973 Ry
     estimated scf accuracy    <       0.10667633 Ry

     iteration #  4     ecut=    80.00 Ry     beta= 0.70
     Davidson diagonalization with overlap
     ethr =  3.42E-05,  avg # of iterations = 19.0

     total cpu time spent up to now is       36.6 secs

     total energy              =   -2246.18742214 Ry
     estimated scf accuracy    <       0.02337977 Ry

     iteration #  5     ecut=    80.00 Ry     beta= 0.70
     Davidson diagonalization with overlap
     ethr =  7.49E-06,  avg # of iterations =  2.0

     total cpu time spent up to now is       40.1 secs

     total energy              =   -2246.18654344 Ry
     estimated scf accuracy    <       0.01492174 Ry

     iteration #  6     ecut=    80.00 Ry     beta= 0.70
     Davidson diagonalization with overlap
     ethr =  4.78E-06,  avg # of iterations =  2.0

     total cpu time spent up to now is       43.5 secs

     total energy              =   -2246.18538035 Ry
     estimated scf accuracy    <       0.00964673 Ry

     iteration #  7     ecut=    80.00 Ry     beta= 0.70
     Davidson diagonalization with overlap
     ethr =  3.09E-06,  avg # of iterations =  2.0

     negative rho (up, down):  3.236E-05 0.000E+00

     total cpu time spent up to now is       49.1 secs

     total energy              =   -2246.18458849 Ry
     estimated scf accuracy    <       0.00535419 Ry

     iteration #  8     ecut=    80.00 Ry     beta= 0.70
     Davidson diagonalization with overlap
     ethr =  1.72E-06,  avg # of iterations =  2.0

     negative rho (up, down):  1.590E-02 0.000E+00

     total cpu time spent up to now is       55.4 secs

     total energy              =   -2246.18385067 Ry
     estimated scf accuracy    <       0.00317371 Ry

     iteration #  9     ecut=    80.00 Ry     beta= 0.70
     Davidson diagonalization with overlap
     ethr =  1.02E-06,  avg # of iterations =  2.0

     negative rho (up, down):  3.084E-02 0.000E+00

     total cpu time spent up to now is       61.0 secs

     total energy              =   -2246.18379477 Ry
     estimated scf accuracy    <       0.00164514 Ry

     iteration # 10     ecut=    80.00 Ry     beta= 0.70
     Davidson diagonalization with overlap
     ethr =  5.27E-07,  avg # of iterations =  2.0

     negative rho (up, down):  2.223E-02 0.000E+00

     total cpu time spent up to now is       68.0 secs

     total energy              =   -2246.18381150 Ry
     estimated scf accuracy    <       0.00051872 Ry

     iteration # 11     ecut=    80.00 Ry     beta= 0.70
     Davidson diagonalization with overlap
     ethr =  1.66E-07,  avg # of iterations =  2.0

     negative rho (up, down):  8.847E-03 0.000E+00

     total cpu time spent up to now is       74.5 secs

     total energy              =   -2246.18378665 Ry
     estimated scf accuracy    <       0.00007761 Ry

     iteration # 12     ecut=    80.00 Ry     beta= 0.70
     Davidson diagonalization with overlap
     ethr =  2.49E-08,  avg # of iterations = 11.0

     negative rho (up, down):  3.855E-03 0.000E+00

     total cpu time spent up to now is       84.4 secs

     total energy              =   -2246.18383620 Ry
     estimated scf accuracy    <       0.00001311 Ry

     iteration # 13     ecut=    80.00 Ry     beta= 0.70
     Davidson diagonalization with overlap
     ethr =  4.20E-09,  avg # of iterations =  2.0

     negative rho (up, down):  4.141E-04 0.000E+00

     total cpu time spent up to now is       92.3 secs

     total energy              =   -2246.18384186 Ry
     estimated scf accuracy    <       0.00000323 Ry

     iteration # 14     ecut=    80.00 Ry     beta= 0.70
     Davidson diagonalization with overlap
     ethr =  1.04E-09,  avg # of iterations =  4.0

     negative rho (up, down):  2.280E-04 0.000E+00

     total cpu time spent up to now is       95.8 secs

     End of self-consistent calculation

          k = 0.0000 0.0000 0.0000 (105382 PWs)   bands (ev):

   -62.9853 -62.9001 -62.8675 -62.8668 -62.8543 -62.8414 -62.8287 -62.8263
   -62.8207 -62.8155 -62.7349 -62.6574 -37.2801 -37.2410 -37.1910 -37.1837
   -37.1502 -37.1402 -37.1212 -37.1008 -37.0944 -37.0847 -37.0653 -37.0593
   -37.0471 -37.0413 -37.0340 -37.0261 -37.0243 -37.0052 -36.9979 -36.9928
   -36.9889 -36.9825 -36.9704 -36.9584 -36.9579 -36.9412 -36.9165 -36.9039
   -36.8940 -36.8762 -36.8583 -36.8084 -36.7909 -36.7819 -36.7690 -36.7519
   -26.2894 -15.9569 -15.1703 -15.1483 -14.9795 -14.8904 -14.8082 -14.5114
   -14.4988 -14.4709 -14.4347 -14.3900 -14.3521 -14.3087 -14.2673 -14.1599
   -14.1387 -14.1243 -14.0501 -13.9858 -13.8608 -13.8379 -13.8198 -13.2705
    -9.3376  -9.2186  -8.2716  -7.5506  -7.4508  -7.2950  -7.2856  -7.2000
    -7.1885  -7.1550  -7.0304  -6.8311  -6.8130  -6.7132  -6.6509  -6.5988
    -6.5135  -6.4598  -6.3062  -6.2559  -6.2353  -6.1775  -5.9726  -5.9154
    -5.8657  -5.7827  -5.7679  -5.7418  -5.7044  -5.6624  -5.6503  -5.6012
    -5.5030  -5.4904  -5.4591  -5.3092  -5.2234  -5.1987  -5.1264  -5.0956
    -5.0078  -5.0044  -4.9161  -4.7430  -4.6614  -4.6131  -4.5606  -4.4622
    -4.3389  -4.2617  -4.1778  -4.1376  -4.0597  -4.0136  -3.9227  -3.8261
    -3.7980  -3.7412  -3.7197  -3.6056  -3.6033  -3.5255  -3.4981  -3.4820
    -3.4148  -3.3734  -3.3096  -3.1953  -3.0923  -3.0295  -2.9663  -2.8591
    -2.8046  -2.7505  -2.7271  -2.6715  -2.6580  -2.6343  -2.5448  -2.4404
    -2.2614  -1.9920  -1.9348  -1.8628  -0.8543  -0.7745  -0.5417  -0.1811
    -0.1353  -0.0957  -0.0233   0.1099   0.1287   0.2188   0.2314   0.2503
     0.3241   0.3393   0.4338   0.4886   0.5133   0.5434   0.5861   0.6556
     0.6857   0.7367   0.7573   0.7871   0.8232   0.8579   0.9354   0.9479
     1.0039   1.0291   1.2293

     the Fermi energy is    -1.3585 ev

!    total energy              =   -2246.18384189 Ry
     estimated scf accuracy    <       0.00000047 Ry
     smearing contrib. (-TS)   =      -0.00000001 Ry
     internal energy E=F+TS    =   -2246.18384187 Ry

     The total energy is F=E-TS. E is the sum of the following terms:
     one-electron contribution =  -18464.52849949 Ry
     hartree contribution      =    9220.50824612 Ry
     xc contribution           =    -392.48494553 Ry
     ewald contribution        =    7400.16108494 Ry
     one-center paw contrib.   =      -9.83972791 Ry

     convergence has been achieved in  14 iterations

     negative rho (up, down):  2.280E-04 0.000E+00

     Forces acting on atoms (cartesian axes, Ry/au):

     atom    1 type  1   force =     0.01354290   -0.02811016    0.00837669
     atom    2 type  2   force =    -0.01573074    0.01687519    0.00170852
     atom    3 type  2   force =    -0.01611775    0.00801174   -0.00484118
     atom    4 type  1   force =    -0.00242845    0.02953069    0.02521157
     atom    5 type  2   force =    -0.00779415   -0.00911077   -0.00866812
     atom    6 type  2   force =     0.00063706    0.00808378   -0.00253038
     atom    7 type  1   force =     0.00549818   -0.01645469   -0.00991073
     atom    8 type  2   force =     0.00173798    0.00241383    0.01909035
     atom    9 type  2   force =     0.01213512    0.00456652    0.00896607
     atom   10 type  1   force =    -0.01300139    0.01085873   -0.02789528
     atom   11 type  2   force =     0.00466901   -0.00164275   -0.00697373
     atom   12 type  2   force =    -0.00024635    0.00074832    0.00900673
     atom   13 type  1   force =     0.00534790    0.00627939   -0.00639761
     atom   14 type  2   force =     0.00814606   -0.00033277    0.01230769
     atom   15 type  2   force =    -0.01214661    0.00378095   -0.00978727
     atom   16 type  1   force =     0.00004210    0.00842403    0.00597893
     atom   17 type  2   force =     0.02293626    0.00247230   -0.01089826
     atom   18 type  2   force =    -0.00052354   -0.00760852    0.01431875
     atom   19 type  1   force =     0.00368558   -0.00947855   -0.00742177
     atom   20 type  2   force =     0.00311190   -0.00357555    0.00070675
     atom   21 type  1   force =    -0.00402994    0.00498411    0.00006922
     atom   22 type  2   force =    -0.00302695   -0.00143350   -0.00383496
     atom   23 type  2   force =    -0.00111124    0.00186280    0.01060115
     atom   24 type  1   force =    -0.01469595   -0.00930810   -0.02550730
     atom   25 type  2   force =     0.01789695    0.01859447    0.00972120
     atom   26 type  2   force =    -0.00867544   -0.00078961   -0.00458765
     atom   27 type  1   force =    -0.00190561    0.01439017   -0.05135895
     atom   28 type  2   force =    -0.43223407   -0.03421941   -0.75803699
     atom   29 type  2   force =     0.00209900   -0.00012377    0.00142461
     atom   30 type  1   force =    -0.00191578    0.00766530   -0.00471631
     atom   31 type  2   force =    -0.00012706   -0.00144499    0.01863598
     atom   32 type  2   force =    -0.00900843    0.00995631    0.00786957
     atom   33 type  1   force =     0.01200875   -0.00444862   -0.00959260
     atom   34 type  2   force =     0.00295308   -0.04399801   -0.00919289
     atom   35 type  2   force =    -0.00838377    0.00874794    0.01503934
     atom   36 type  3   force =     0.43665539    0.00383320    0.79311885
     The non-local contrib.  to forces
     atom    1 type  1   force =    -0.00252508    0.03024721   -0.01268591
     atom    2 type  2   force =    -0.00401578    0.01056004   -0.26926159
     atom    3 type  2   force =    -0.01830700   -0.00347602    0.26902906
     atom    4 type  1   force =     0.00392912   -0.01172824    0.00707325
     atom    5 type  2   force =     0.01293748   -0.02979445   -0.25288979
     atom    6 type  2   force =    -0.00282535    0.01098165    0.26137354
     atom    7 type  1   force =    -0.01981452    0.00563825   -0.01615390
     atom    8 type  2   force =     0.00676835   -0.01431150   -0.25356040
     atom    9 type  2   force =     0.00550590   -0.00992717    0.27829228
     atom   10 type  1   force =     0.00567460   -0.00086236    0.00049076
     atom   11 type  2   force =     0.01427007    0.00140666   -0.26240006
     atom   12 type  2   force =    -0.01352275   -0.01741074    0.26246866
     atom   13 type  1   force =    -0.00163089    0.02053747   -0.00848161
     atom   14 type  2   force =     0.01457074   -0.01027054   -0.26252136
     atom   15 type  2   force =    -0.01314910   -0.00459561    0.26096314
     atom   16 type  1   force =    -0.00457844    0.02947932   -0.02298909
     atom   17 type  2   force =     0.04335566   -0.02379724   -0.25112931
     atom   18 type  2   force =    -0.00050301   -0.00783943    0.27049664
     atom   19 type  1   force =     0.01121133   -0.00369214   -0.01282785
     atom   20 type  2   force =     0.00028683   -0.02205768    0.26794190
     atom   21 type  1   force =     0.00251933    0.02911873    0.00471343
     atom   22 type  2   force =    -0.01000384    0.00539347   -0.25773741
     atom   23 type  2   force =     0.00559426   -0.01614290    0.26972220
     atom   24 type  1   force =    -0.00186968    0.04377335    0.01106127
     atom   25 type  2   force =     0.01156022    0.00053984   -0.25796417
     atom   26 type  2   force =    -0.00050725   -0.01451054    0.26235863
     atom   27 type  1   force =    -0.03714604   -0.00640493    0.04792013
     atom   28 type  2   force =    -0.20372576    0.03553982   -0.27813343
     atom   29 type  2   force =     0.00445369    0.00182421    0.26381684
     atom   30 type  1   force =     0.00611139    0.01579561    0.00884389
     atom   31 type  2   force =    -0.01029550    0.00831008   -0.25139193
     atom   32 type  2   force =    -0.00369445   -0.00646980    0.27417232
     atom   33 type  1   force =     0.00044151    0.00911201    0.00594665
     atom   34 type  2   force =    -0.00106613   -0.03776870   -0.27338383
     atom   35 type  2   force =    -0.00285260   -0.01201013    0.27113714
     atom   36 type  3   force =    -1.68636647    0.07007902   -1.67149818
     The ionic contribution  to forces
     atom    1 type  1   force =    -0.12671474   -0.43045259    4.26364553
     atom    2 type  2   force =    -1.32401255   -0.49520404   38.89075673
     atom    3 type  2   force =    -0.31157382   -0.21471091  -36.76720350
     atom    4 type  1   force =    -1.65703452    1.32119000   -2.15205905
     atom    5 type  2   force =    -1.49731337    1.52108602   38.34917084
     atom    6 type  2   force =     0.24010213   -0.51305354  -38.72725590
     atom    7 type  1   force =    -2.82416222   -2.24145832    1.48962893
     atom    8 type  2   force =    -1.65719334    0.88578249   36.91791602
     atom    9 type  2   force =     0.20311338    0.16978079  -38.68237208
     atom   10 type  1   force =    -1.43943742   -0.71165225    4.62037680
     atom   11 type  2   force =    -0.64058710   -1.57202021   38.97633422
     atom   12 type  2   force =     0.40827111    0.69837004  -38.32051408
     atom   13 type  1   force =     1.75958764   -0.24602711    0.61895006
     atom   14 type  2   force =     0.30483413   -0.43521053   38.26176527
     atom   15 type  2   force =     0.21900449   -0.21976943  -37.37436338
     atom   16 type  1   force =     0.58555333    4.30868954   -1.18095353
     atom   17 type  2   force =     3.23500533    1.53133965   36.66167465
     atom   18 type  2   force =     0.07400402   -0.65900581  -39.46571411
     atom   19 type  1   force =     3.22386833   -1.62003881   -0.69585440
     atom   20 type  2   force =     0.29178003   -0.05086343  -39.05508909
     atom   21 type  1   force =     0.19108145   -0.20497662    0.24000895
     atom   22 type  2   force =     0.63710113   -1.66386688   38.22802865
     atom   23 type  2   force =    -0.02133155    0.67101576  -38.79410285
     atom   24 type  1   force =    -1.46375210   -1.27018950    2.09896004
     atom   25 type  2   force =     1.12914118   -1.42540879   38.59087475
     atom   26 type  2   force =    -0.20827746   -0.23224366  -38.13494251
     atom   27 type  1   force =     1.36827285    1.89512385   -7.50509310
     atom   28 type  2   force =    -7.48972045    1.11761263   28.31858794
     atom   29 type  2   force =    -0.42191152   -0.45312661  -38.48752924
     atom   30 type  1   force =    -0.63601035    0.36291854   -1.71803502
     atom   31 type  2   force =     1.77886347    1.71638460   36.45385769
     atom   32 type  2   force =    -0.40505635    0.26622550  -39.43487107
     atom   33 type  1   force =     0.97298077   -1.41394222    0.84215294
     atom   34 type  2   force =     0.14583516   -1.43199726   39.13619764
     atom   35 type  2   force =    -0.33435527    0.48732813  -38.35857729
     atom   36 type  3   force =     5.69004422    0.55237098   51.89564252
     The local contribution  to forces
     atom    1 type  1   force =     0.14276531    0.37245037   -4.24290921
     atom    2 type  2   force =     1.31251621    0.50231157  -38.64070416
     atom    3 type  2   force =     0.31292349    0.22617759   36.51421149
     atom    4 type  1   force =     1.65093668   -1.28003970    2.16998771
     atom    5 type  2   force =     1.47773254   -1.50206478  -38.12561947
     atom    6 type  2   force =    -0.23698237    0.51133048   38.48426347
     atom    7 type  1   force =     2.84961440    2.21909946   -1.48375545
     atom    8 type  2   force =     1.65263043   -0.87042364  -36.66589524
     atom    9 type  2   force =    -0.19640322   -0.15595664   38.43419635
     atom   10 type  1   force =     1.42092347    0.72339478   -4.64913365
     atom   11 type  2   force =     0.63166588    1.56929379  -38.74201594
     atom   12 type  2   force =    -0.39619864   -0.68167377   38.08793422
     atom   13 type  1   force =    -1.75279246    0.23213773   -0.61706158
     atom   14 type  2   force =    -0.31059494    0.44518572  -38.00788591
     atom   15 type  2   force =    -0.21876024    0.22788403   37.12424793
     atom   16 type  1   force =    -0.58107066   -4.32995707    1.20962937
     atom   17 type  2   force =    -3.25336609   -1.50637915  -36.44229728
     atom   18 type  2   force =    -0.07383769    0.65955451   39.23054199
     atom   19 type  1   force =    -3.23164161    1.61400968    0.70097228
     atom   20 type  2   force =    -0.28904335    0.06833838   38.80912165
     atom   21 type  1   force =    -0.19777219    0.18098135   -0.24506789
     atom   22 type  2   force =    -0.63051836    1.65763080  -37.99495510
     atom   23 type  2   force =     0.01508043   -0.65433686   38.55599456
     atom   24 type  1   force =     1.45112946    1.21745696   -2.13563878
     atom   25 type  2   force =    -1.12270287    1.44387770  -38.34408196
     atom   26 type  2   force =     0.20040393    0.24526203   37.88891708
     atom   27 type  1   force =    -1.33312261   -1.87443850    7.40573660
     atom   28 type  2   force =     7.24663387   -1.18615790  -28.82517569
     atom   29 type  2   force =     0.42002423    0.45186216   38.24599630
     atom   30 type  1   force =     0.62811227   -0.37134234    1.70421042
     atom   31 type  2   force =    -1.76949963   -1.72616798  -36.20451607
     atom   32 type  2   force =     0.39981280   -0.25021276   39.18966232
     atom   33 type  1   force =    -0.96144674    1.40051086   -0.85799427
     atom   34 type  2   force =    -0.14213701    1.42455502  -38.89350264
     atom   35 type  2   force =     0.32893038   -0.46759415   38.12368975
     atom   36 type  3   force =    -3.58093037   -0.61786573  -49.44290059
     The core correction contribution to forces
     atom    1 type  1   force =     0.00000000    0.00000000    0.00000000
     atom    2 type  2   force =    -0.00007574   -0.00064623    0.02061929
     atom    3 type  2   force =     0.00091019    0.00010413   -0.02080332
     atom    4 type  1   force =     0.00000000    0.00000000    0.00000000
     atom    5 type  2   force =    -0.00111335    0.00166604    0.02030979
     atom    6 type  2   force =     0.00030959   -0.00109602   -0.02081565
     atom    7 type  1   force =     0.00000000    0.00000000    0.00000000
     atom    8 type  2   force =    -0.00033100    0.00120891    0.02027763
     atom    9 type  2   force =    -0.00004810    0.00057355   -0.02106634
     atom   10 type  1   force =     0.00000000    0.00000000    0.00000000
     atom   11 type  2   force =    -0.00066781   -0.00031193    0.02077313
     atom   12 type  2   force =     0.00119199    0.00143030   -0.02085189
     atom   13 type  1   force =     0.00000000    0.00000000    0.00000000
     atom   14 type  2   force =    -0.00076892    0.00006483    0.02062791
     atom   15 type  2   force =     0.00069893    0.00032525   -0.02057743
     atom   16 type  1   force =     0.00000000    0.00000000    0.00000000
     atom   17 type  2   force =    -0.00220068    0.00130247    0.02056149
     atom   18 type  2   force =    -0.00021008   -0.00025864   -0.02086957
     atom   19 type  1   force =     0.00000000    0.00000000    0.00000000
     atom   20 type  2   force =     0.00006443    0.00087433   -0.02130433
     atom   21 type  1   force =     0.00000000    0.00000000    0.00000000
     atom   22 type  2   force =     0.00029768   -0.00055351    0.02053047
     atom   23 type  2   force =    -0.00049824    0.00133885   -0.02098182
     atom   24 type  1   force =     0.00000000    0.00000000    0.00000000
     atom   25 type  2   force =    -0.00013580   -0.00025345    0.02061114
     atom   26 type  2   force =    -0.00029578    0.00076852   -0.02079376
     atom   27 type  1   force =     0.00000000    0.00000000    0.00000000
     atom   28 type  2   force =     0.01457460   -0.00119183    0.02640857
     atom   29 type  2   force =    -0.00040723   -0.00062884   -0.02071028
     atom   30 type  1   force =     0.00000000    0.00000000    0.00000000
     atom   31 type  2   force =     0.00072441   -0.00017893    0.02040648
     atom   32 type  2   force =    -0.00008927    0.00029616   -0.02100446
     atom   33 type  1   force =     0.00000000    0.00000000    0.00000000
     atom   34 type  2   force =     0.00040291    0.00122006    0.02114724
     atom   35 type  2   force =    -0.00004473    0.00100013   -0.02111791
     atom   36 type  3   force =     0.01387232   -0.00075534    0.01148107
     The Hubbard contrib.    to forces
     atom    1 type  1   force =     0.00000000    0.00000000    0.00000000
     atom    2 type  2   force =     0.00000000    0.00000000    0.00000000
     atom    3 type  2   force =     0.00000000    0.00000000    0.00000000
     atom    4 type  1   force =     0.00000000    0.00000000    0.00000000
     atom    5 type  2   force =     0.00000000    0.00000000    0.00000000
     atom    6 type  2   force =     0.00000000    0.00000000    0.00000000
     atom    7 type  1   force =     0.00000000    0.00000000    0.00000000
     atom    8 type  2   force =     0.00000000    0.00000000    0.00000000
     atom    9 type  2   force =     0.00000000    0.00000000    0.00000000
     atom   10 type  1   force =     0.00000000    0.00000000    0.00000000
     atom   11 type  2   force =     0.00000000    0.00000000    0.00000000
     atom   12 type  2   force =     0.00000000    0.00000000    0.00000000
     atom   13 type  1   force =     0.00000000    0.00000000    0.00000000
     atom   14 type  2   force =     0.00000000    0.00000000    0.00000000
     atom   15 type  2   force =     0.00000000    0.00000000    0.00000000
     atom   16 type  1   force =     0.00000000    0.00000000    0.00000000
     atom   17 type  2   force =     0.00000000    0.00000000    0.00000000
     atom   18 type  2   force =     0.00000000    0.00000000    0.00000000
     atom   19 type  1   force =     0.00000000    0.00000000    0.00000000
     atom   20 type  2   force =     0.00000000    0.00000000    0.00000000
     atom   21 type  1   force =     0.00000000    0.00000000    0.00000000
     atom   22 type  2   force =     0.00000000    0.00000000    0.00000000
     atom   23 type  2   force =     0.00000000    0.00000000    0.00000000
     atom   24 type  1   force =     0.00000000    0.00000000    0.00000000
     atom   25 type  2   force =     0.00000000    0.00000000    0.00000000
     atom   26 type  2   force =     0.00000000    0.00000000    0.00000000
     atom   27 type  1   force =     0.00000000    0.00000000    0.00000000
     atom   28 type  2   force =     0.00000000    0.00000000    0.00000000
     atom   29 type  2   force =     0.00000000    0.00000000    0.00000000
     atom   30 type  1   force =     0.00000000    0.00000000    0.00000000
     atom   31 type  2   force =     0.00000000    0.00000000    0.00000000
     atom   32 type  2   force =     0.00000000    0.00000000    0.00000000
     atom   33 type  1   force =     0.00000000    0.00000000    0.00000000
     atom   34 type  2   force =     0.00000000    0.00000000    0.00000000
     atom   35 type  2   force =     0.00000000    0.00000000    0.00000000
     atom   36 type  3   force =     0.00000000    0.00000000    0.00000000
     The SCF correction term to forces
     atom    1 type  1   force =     0.00001779   -0.00035339    0.00032441
     atom    2 type  2   force =    -0.00014250   -0.00014439    0.00029638
     atom    3 type  2   force =    -0.00007021   -0.00008129   -0.00007678
     atom    4 type  1   force =    -0.00025936    0.00011038    0.00020779
     atom    5 type  2   force =    -0.00003706   -0.00000184    0.00035863
     atom    6 type  2   force =     0.00003344   -0.00007703   -0.00009771
     atom    7 type  1   force =    -0.00013910    0.00026767    0.00036782
     atom    8 type  2   force =    -0.00013607    0.00015933    0.00035047
     atom    9 type  2   force =    -0.00003245    0.00009776   -0.00008602
     atom   10 type  1   force =    -0.00016164   -0.00001968    0.00036894
     atom   11 type  2   force =    -0.00001165   -0.00000931    0.00033305
     atom   12 type  2   force =     0.00001233    0.00003425   -0.00003205
     atom   13 type  1   force =     0.00018399   -0.00036695    0.00019365
     atom   14 type  2   force =     0.00010544   -0.00010049    0.00031992
     atom   15 type  2   force =     0.00005970   -0.00006154   -0.00005939
     atom   16 type  1   force =     0.00013825    0.00021401    0.00029032
     atom   17 type  2   force =     0.00014242    0.00000833    0.00029031
     atom   18 type  2   force =     0.00002362   -0.00005739   -0.00013808
     atom   19 type  1   force =     0.00024793    0.00024448    0.00028633
     atom   20 type  2   force =     0.00002434    0.00013461    0.00003476
     atom   21 type  1   force =     0.00014186   -0.00013759    0.00041286
     atom   22 type  2   force =     0.00009681   -0.00003561    0.00029655
     atom   23 type  2   force =     0.00004424   -0.00001029   -0.00003281
     atom   24 type  1   force =    -0.00020325   -0.00034715    0.00010830
     atom   25 type  2   force =     0.00003461   -0.00015908    0.00027958
     atom   26 type  2   force =     0.00000152   -0.00006421   -0.00012896
     atom   27 type  1   force =     0.00009058    0.00011150    0.00007555
     atom   28 type  2   force =     0.00000406   -0.00002037    0.00027375
     atom   29 type  2   force =    -0.00005979   -0.00005293   -0.00015088
     atom   30 type  1   force =    -0.00012870    0.00029523    0.00026253
     atom   31 type  2   force =     0.00008058    0.00020899    0.00027795
     atom   32 type  2   force =     0.00001921    0.00011898   -0.00009141
     atom   33 type  1   force =     0.00003360   -0.00012751    0.00030021
     atom   34 type  2   force =    -0.00008146   -0.00000537    0.00034684
     atom   35 type  2   force =    -0.00006116    0.00002572   -0.00009422
     atom   36 type  3   force =     0.00003607    0.00000604    0.00039215

     Total force =     1.264231     Total SCF correction =     0.001908

     BFGS Geometry Optimization
     Energy error            =      0.0E+00 Ry
     Gradient error          =      7.9E-01 Ry/Bohr

     number of scf cycles    =   1
     number of bfgs steps    =   0

     energy             new  =   -2246.1838418852 Ry

     new trust radius        =       0.5000000000 bohr
     new conv_thr            =       0.0000010000 Ry


ATOMIC_POSITIONS (angstrom)
Mo            6.5785061722        1.7795913411        2.8260910271
S             8.1721122010        0.8146356154        4.4350376485
S             8.1885228496        0.8135830880        1.2764686441
Mo            8.0944528757        4.5036869669        2.7251862008
S             6.4976315015        3.7197489658        4.3441274838
S             6.5535359712        3.5140999527        1.1205407510
Mo            6.4915884785        7.2136285788        2.6689881804
S             8.0822356339        6.3445764070        4.2480405115
S             8.0844640051        6.3060368334        1.0864832345
Mo            8.1568195338        9.9053537584        2.8353096698
S             6.4965320643        8.9424467375        4.3810675379
S             6.6178752068        9.0489299010        1.1425394225
Mo            3.4232225284        1.7487909347        2.7746015293
S             4.9775460891        0.8168439609        4.3541298824
S             5.0542840408        0.8473670489        1.2237982391
Mo            4.9797689834        4.5156398351        2.6346318273
S             3.4345445331        3.6723221887        4.2765246816
S             3.4377675823        3.5460051908        1.0625361797
Mo            3.4549388114        7.2135545345        2.6285079292
S             4.9841436126        6.3258873709        1.0374602721
Mo            5.0110862128        9.9030566038        2.7434211906
S             3.4700735229        8.9433323447        4.3244705863
S             3.4081044180        9.0655343668        1.0991663694
Mo            0.2917957546        1.7447893410        2.8419904769
S             1.8556924011        0.7981280389        4.4010503549
S             1.8582647329        0.8541951623        1.2080601636
Mo            1.8601344168        4.4998721306        2.6451882868
S             0.1458981502        3.6443985764        4.1160560422
S             0.2318446168        3.5272130573        1.1724342115
Mo            0.2705922858        7.2188861933        2.7003181386
S             1.9022011166        6.3123765528        4.2278902845
S             1.8596055981        6.3132534362        1.0468590790
Mo            1.8478560883        9.9388390937        2.7701429195
S             0.2967759058        9.0771398866        4.4111829449
S             0.2743213341        9.0460822044        1.1547958627
O             1.1783588937        3.6440868779        5.5752421076



     Writing config-only to output data dir ./MoS2-V-O.save/
     NEW-OLD atomic charge density approx. for the potential

     negative rho (up, down):  1.854E-04 0.000E+00

     total cpu time spent up to now is      103.2 secs

     Self-consistent Calculation

     iteration #  1     ecut=    80.00 Ry     beta= 0.70
     Davidson diagonalization with overlap
     ethr =  1.00E-06,  avg # of iterations = 16.0

     negative rho (up, down):  5.790E-03 0.000E+00

     total cpu time spent up to now is      117.6 secs

     total energy              =   -2246.25727416 Ry
     estimated scf accuracy    <       0.17598166 Ry

     iteration #  2     ecut=    80.00 Ry     beta= 0.70
     Davidson diagonalization with overlap
     ethr =  5.64E-05,  avg # of iterations =  5.0

     negative rho (up, down):  9.144E-03 0.000E+00

     total cpu time spent up to now is      133.5 secs

     total energy              =   -2246.27533894 Ry
     estimated scf accuracy    <       0.11219934 Ry

     iteration #  3     ecut=    80.00 Ry     beta= 0.70
     Davidson diagonalization with overlap
     ethr =  3.60E-05,  avg # of iterations =  3.0

     negative rho (up, down):  1.639E-02 0.000E+00

     total cpu time spent up to now is      145.1 secs

     total energy              =   -2246.27746718 Ry
     estimated scf accuracy    <       0.01723560 Ry

     iteration #  4     ecut=    80.00 Ry     beta= 0.70
     Davidson diagonalization with overlap
     ethr =  5.52E-06,  avg # of iterations =  5.0

     negative rho (up, down):  1.804E-02 0.000E+00

     total cpu time spent up to now is      155.9 secs

     total energy              =   -2246.27906477 Ry
     estimated scf accuracy    <       0.00828240 Ry

     iteration #  5     ecut=    80.00 Ry     beta= 0.70
     Davidson diagonalization with overlap
     ethr =  2.65E-06,  avg # of iterations =  2.0

     negative rho (up, down):  1.836E-02 0.000E+00

     total cpu time spent up to now is      165.1 secs

     total energy              =   -2246.27863285 Ry
     estimated scf accuracy    <       0.00272206 Ry

     iteration #  6     ecut=    80.00 Ry     beta= 0.70
     Davidson diagonalization with overlap
     ethr =  8.72E-07,  avg # of iterations =  5.0

     negative rho (up, down):  1.617E-02 0.000E+00

     total cpu time spent up to now is      174.1 secs

     total energy              =   -2246.27901096 Ry
     estimated scf accuracy    <       0.00091796 Ry

     iteration #  7     ecut=    80.00 Ry     beta= 0.70
     Davidson diagonalization with overlap
     ethr =  2.94E-07,  avg # of iterations =  4.0

     negative rho (up, down):  1.164E-02 0.000E+00

     total cpu time spent up to now is      182.8 secs

     total energy              =   -2246.27897064 Ry
     estimated scf accuracy    <       0.00014183 Ry

     iteration #  8     ecut=    80.00 Ry     beta= 0.70
     Davidson diagonalization with overlap
     ethr =  4.55E-08,  avg # of iterations =  5.0

     negative rho (up, down):  1.020E-02 0.000E+00

     total cpu time spent up to now is      193.5 secs

     total energy              =   -2246.27897951 Ry
     estimated scf accuracy    <       0.00019165 Ry

     iteration #  9     ecut=    80.00 Ry     beta= 0.70
     Davidson diagonalization with overlap
     ethr =  4.55E-08,  avg # of iterations =  2.0

     negative rho (up, down):  4.745E-03 0.000E+00

     total cpu time spent up to now is      200.8 secs

     total energy              =   -2246.27889892 Ry
     estimated scf accuracy    <       0.00007001 Ry

     iteration # 10     ecut=    80.00 Ry     beta= 0.70
     Davidson diagonalization with overlap
     ethr =  2.24E-08,  avg # of iterations =  5.0

     negative rho (up, down):  3.409E-03 0.000E+00

     total cpu time spent up to now is      207.9 secs

     total energy              =   -2246.27889477 Ry
     estimated scf accuracy    <       0.00002126 Ry

     iteration # 11     ecut=    80.00 Ry     beta= 0.70
     Davidson diagonalization with overlap
     ethr =  6.82E-09,  avg # of iterations =  3.0

     negative rho (up, down):  1.398E-03 0.000E+00

     total cpu time spent up to now is      215.2 secs

     total energy              =   -2246.27888182 Ry
     estimated scf accuracy    <       0.00000446 Ry

     iteration # 12     ecut=    80.00 Ry     beta= 0.70
     Davidson diagonalization with overlap
     ethr =  1.43E-09,  avg # of iterations =  5.0

     negative rho (up, down):  8.293E-04 0.000E+00

     total cpu time spent up to now is      222.1 secs

     total energy              =   -2246.27887878 Ry
     estimated scf accuracy    <       0.00000298 Ry

     iteration # 13     ecut=    80.00 Ry     beta= 0.70
     Davidson diagonalization with overlap
     ethr =  9.54E-10,  avg # of iterations =  2.0

     negative rho (up, down):  4.394E-04 0.000E+00

     total cpu time spent up to now is      234.7 secs

     total energy              =   -2246.27887648 Ry
     estimated scf accuracy    <       0.00000159 Ry

     iteration # 14     ecut=    80.00 Ry     beta= 0.70
     Davidson diagonalization with overlap
     ethr =  5.10E-10,  avg # of iterations =  2.0

     negative rho (up, down):  1.894E-04 0.000E+00

     total cpu time spent up to now is      237.9 secs

     End of self-consistent calculation

          k = 0.0000 0.0000 0.0000 (105382 PWs)   bands (ev):

   -63.1290 -63.0471 -63.0362 -63.0054 -62.9965 -62.9906 -62.9784 -62.9750
   -62.9639 -62.9618 -62.9431 -62.9349 -37.4907 -37.4153 -37.3483 -37.3420
   -37.3231 -37.2980 -37.2806 -37.2636 -37.2442 -37.2416 -37.2396 -37.2212
   -37.2150 -37.1989 -37.1888 -37.1816 -37.1704 -37.1647 -37.1611 -37.1563
   -37.1523 -37.1301 -37.1249 -37.1207 -37.1108 -37.1052 -37.0877 -37.0796
   -37.0687 -37.0659 -37.0455 -37.0188 -37.0056 -36.9792 -36.9335 -36.9099
   -19.4538 -16.1309 -15.4031 -15.2982 -15.1460 -15.0956 -14.9464 -14.7547
   -14.6533 -14.6035 -14.5886 -14.5741 -14.5064 -14.4644 -14.4632 -14.3625
   -14.2965 -14.2695 -14.2406 -14.1585 -14.0874 -14.0340 -14.0112 -13.9330
    -7.9764  -7.8691  -7.6462  -7.5601  -7.4801  -7.4591  -7.4033  -7.3321
    -7.2212  -7.0756  -7.0143  -6.9449  -6.8748  -6.8242  -6.7439  -6.6552
    -6.6059  -6.5900  -6.4450  -6.4081  -6.2056  -6.1871  -6.1284  -6.0163
    -5.9985  -5.9172  -5.9000  -5.8791  -5.8507  -5.8218  -5.7818  -5.7548
    -5.6372  -5.6031  -5.5678  -5.3869  -5.3050  -5.2861  -5.2489  -5.2132
    -5.1484  -5.1164  -5.0205  -4.8444  -4.7193  -4.6631  -4.5296  -4.4967
    -4.4752  -4.3869  -4.2389  -4.2224  -4.0882  -3.9891  -3.9775  -3.9536
    -3.9230  -3.8714  -3.7881  -3.7418  -3.7124  -3.6960  -3.6623  -3.6189
    -3.5764  -3.5319  -3.4198  -3.3061  -3.1383  -3.0687  -3.0299  -3.0047
    -2.9929  -2.8974  -2.8719  -2.8239  -2.8116  -2.7729  -2.5540  -2.4307
    -2.2541  -2.1565  -2.0689  -1.8785  -0.9975  -0.9129  -0.7432  -0.3831
    -0.3190  -0.2651  -0.1858  -0.0458  -0.0275   0.0706   0.0716   0.1156
     0.1417   0.1805   0.2578   0.3460   0.3555   0.3624   0.4349   0.4903
     0.5128   0.5787   0.5988   0.6174   0.6503   0.7076   0.7609   0.8006
     0.8496   0.8708   1.0669

     the Fermi energy is    -1.4381 ev

!    total energy              =   -2246.27887637 Ry
     estimated scf accuracy    <       0.00000028 Ry
     smearing contrib. (-TS)   =      -0.00000032 Ry
     internal energy E=F+TS    =   -2246.27887605 Ry

     The total energy is F=E-TS. E is the sum of the following terms:
     one-electron contribution =  -18442.30648882 Ry
     hartree contribution      =    9208.32038081 Ry
     xc contribution           =    -392.01237659 Ry
     ewald contribution        =    7389.58984858 Ry
     one-center paw contrib.   =      -9.87024003 Ry

     convergence has been achieved in  14 iterations

     negative rho (up, down):  1.894E-04 0.000E+00

     Forces acting on atoms (cartesian axes, Ry/au):

     atom    1 type  1   force =     0.00774769   -0.02042381    0.00148742
     atom    2 type  2   force =    -0.01259195    0.01229115    0.00346825
     atom    3 type  2   force =    -0.01290994    0.00679181   -0.00780674
     atom    4 type  1   force =    -0.06271716    0.05202434   -0.04688915
     atom    5 type  2   force =    -0.01067972   -0.01061686   -0.00333936
     atom    6 type  2   force =     0.00018126    0.00547227    0.00033217
     atom    7 type  1   force =     0.00645274   -0.01034705   -0.00790175
     atom    8 type  2   force =     0.00190593    0.00500508    0.02003714
     atom    9 type  2   force =     0.01137038    0.00730775    0.00588431
     atom   10 type  1   force =    -0.00858023    0.00995432   -0.01848093
     atom   11 type  2   force =     0.00414983   -0.00198654   -0.00720487
     atom   12 type  2   force =    -0.00174691    0.00050709    0.00637630
     atom   13 type  1   force =     0.00450653    0.00659227   -0.00339224
     atom   14 type  2   force =     0.00653444   -0.00128291    0.01173586
     atom   15 type  2   force =    -0.00970436    0.00246442   -0.00853445
     atom   16 type  1   force =     0.00299843    0.00594956    0.00143563
     atom   17 type  2   force =     0.00005025    0.00395314   -0.00740764
     atom   18 type  2   force =    -0.00015292   -0.00465617    0.01163743
     atom   19 type  1   force =     0.00054558   -0.00696655   -0.00238155
     atom   20 type  2   force =     0.00328827   -0.00407184   -0.00230725
     atom   21 type  1   force =    -0.00294347    0.00387337    0.00059786
     atom   22 type  2   force =    -0.00308137   -0.00166804   -0.00324745
     atom   23 type  2   force =    -0.00022366    0.00101318    0.00723314
     atom   24 type  1   force =    -0.01343165   -0.04621971   -0.04896774
     atom   25 type  2   force =     0.01329791    0.01953383    0.00515331
     atom   26 type  2   force =    -0.00675298   -0.00158475   -0.00530563
     atom   27 type  1   force =     0.01079274    0.01323650   -0.02473585
     atom   28 type  2   force =     0.21112467   -0.02643031    0.21056720
     atom   29 type  2   force =    -0.00027012    0.00005558   -0.01656805
     atom   30 type  1   force =     0.00016113    0.00347095   -0.00206264
     atom   31 type  2   force =     0.00044756   -0.00737174    0.01381293
     atom   32 type  2   force =    -0.00702322    0.00934564    0.00368938
     atom   33 type  1   force =     0.00996037   -0.00402362   -0.00495543
     atom   34 type  2   force =     0.00199630   -0.03722935   -0.01086385
     atom   35 type  2   force =    -0.00741532    0.00868553    0.01105623
     atom   36 type  3   force =    -0.13728705    0.00735146   -0.08215198
     The non-local contrib.  to forces
     atom    1 type  1   force =    -0.00444007    0.02650439   -0.01250206
     atom    2 type  2   force =    -0.00570099    0.00479404   -0.27657116
     atom    3 type  2   force =    -0.01305993   -0.00312646    0.26801927
     atom    4 type  1   force =     0.00631193   -0.00689812    0.00892736
     atom    5 type  2   force =     0.01130165   -0.03071374   -0.25673059
     atom    6 type  2   force =    -0.00309791    0.00778107    0.26371209
     atom    7 type  1   force =    -0.02170919    0.00520969   -0.01300048
     atom    8 type  2   force =     0.00488385   -0.00925566   -0.26064524
     atom    9 type  2   force =     0.00702188   -0.00768892    0.27361710
     atom   10 type  1   force =     0.00454927   -0.00167565    0.00038297
     atom   11 type  2   force =     0.01368067    0.00192378   -0.26576951
     atom   12 type  2   force =    -0.01402976   -0.01738929    0.26182942
     atom   13 type  1   force =     0.00026393    0.01986494   -0.00746397
     atom   14 type  2   force =     0.01349943   -0.01051353   -0.26676494
     atom   15 type  2   force =    -0.01129767   -0.00529014    0.26263670
     atom   16 type  1   force =    -0.01241017    0.02300465   -0.01704888
     atom   17 type  2   force =     0.00870604   -0.02053936   -0.24171658
     atom   18 type  2   force =    -0.00204527   -0.00415091    0.27077108
     atom   19 type  1   force =     0.00788103   -0.00344327   -0.01421107
     atom   20 type  2   force =    -0.00018567   -0.02181181    0.26539126
     atom   21 type  1   force =     0.00101236    0.02964231    0.00518414
     atom   22 type  2   force =    -0.00864365    0.00429114   -0.26027647
     atom   23 type  2   force =     0.00584634   -0.01647325    0.26824468
     atom   24 type  1   force =     0.00310485    0.02148646   -0.00598335
     atom   25 type  2   force =     0.01116215   -0.00182874   -0.26792821
     atom   26 type  2   force =     0.00110364   -0.01183735    0.26090114
     atom   27 type  1   force =    -0.00801189    0.00901699    0.03393034
     atom   28 type  2   force =     0.24551636    0.04338631    0.37911811
     atom   29 type  2   force =     0.00276426    0.00141632    0.26034768
     atom   30 type  1   force =     0.00675762    0.01851110    0.00990699
     atom   31 type  2   force =    -0.01055361    0.00916419   -0.26400533
     atom   32 type  2   force =    -0.00206031   -0.01039954    0.27311033
     atom   33 type  1   force =     0.00042324    0.00942747    0.00676019
     atom   34 type  2   force =    -0.00298727   -0.03298471   -0.27859916
     atom   35 type  2   force =    -0.00302740   -0.01193960    0.26959320
     atom   36 type  3   force =    -0.95433585    0.02810232   -1.20129145
     The ionic contribution  to forces
     atom    1 type  1   force =    -0.39061972   -0.32227553    4.39768800
     atom    2 type  2   force =    -1.12130140   -0.52820970   39.04621851
     atom    3 type  2   force =    -0.30604503   -0.23433418  -36.85274896
     atom    4 type  1   force =    -2.54452962    1.89483560   -2.26879790
     atom    5 type  2   force =    -1.53345897    1.48492318   38.41889653
     atom    6 type  2   force =     0.20119917   -0.54077668  -38.68333939
     atom    7 type  1   force =    -2.89111699   -2.05488414    1.46664082
     atom    8 type  2   force =    -1.56071113    0.92749177   37.15581615
     atom    9 type  2   force =     0.19641232    0.18717682  -38.71071349
     atom   10 type  1   force =    -1.25554431   -0.76289938    4.50592331
     atom   11 type  2   force =    -0.61922475   -1.58239200   38.95624128
     atom   12 type  2   force =     0.35413348    0.66550767  -38.28844806
     atom   13 type  1   force =     1.52048109   -0.17103711    0.78632311
     atom   14 type  2   force =     0.22857689   -0.42692767   38.31059981
     atom   15 type  2   force =     0.20509844   -0.19866976  -37.38428615
     atom   16 type  1   force =     0.46493029    4.20458011   -1.02013760
     atom   17 type  2   force =     2.80785513    1.54317213   36.48296509
     atom   18 type  2   force =     0.12387571   -0.67871192  -39.38749894
     atom   19 type  1   force =     3.16143924   -1.60481049   -0.63070384
     atom   20 type  2   force =     0.26984994   -0.04590355  -39.07462990
     atom   21 type  1   force =     0.13882025   -0.25124366    0.35005576
     atom   22 type  2   force =     0.61819564   -1.67065890   38.22840491
     atom   23 type  2   force =    -0.00803285    0.65881170  -38.75558358
     atom   24 type  1   force =    -0.76759309   -1.88370174    2.24055962
     atom   25 type  2   force =     0.96668898   -1.24688708   38.57385241
     atom   26 type  2   force =    -0.16218692   -0.23599028  -38.07277580
     atom   27 type  1   force =     1.61340131    1.68847777   -7.10066498
     atom   28 type  2   force =    -2.54825316    0.95999441   31.27023313
     atom   29 type  2   force =    -0.42178755   -0.46660268  -38.62789120
     atom   30 type  1   force =    -0.50556342    0.35959233   -1.53788100
     atom   31 type  2   force =     1.66403680    1.43177681   36.53648930
     atom   32 type  2   force =    -0.37699915    0.33307462  -39.41991032
     atom   33 type  1   force =     0.87419620   -1.25269805    0.96748846
     atom   34 type  2   force =     0.12731163   -1.30438690   39.09647319
     atom   35 type  2   force =    -0.29706385    0.49391343  -38.29612049
     atom   36 type  3   force =     1.77352940    0.63067304   47.32126222
     The local contribution  to forces
     atom    1 type  1   force =     0.40294958    0.27562504   -4.38408681
     atom    2 type  2   force =     1.11436019    0.53619724  -38.78740088
     atom    3 type  2   force =     0.30563828    0.24422953   36.59753421
     atom    4 type  1   force =     2.47562004   -1.83598529    2.21276100
     atom    5 type  2   force =     1.51258741   -1.46647076  -38.18618483
     atom    6 type  2   force =    -0.19822258    0.53946561   38.44058134
     atom    7 type  1   force =     2.91935459    2.03908695   -1.46198674
     atom    8 type  2   force =     1.55798403   -0.91438165  -36.89601006
     atom    9 type  2   force =    -0.19191178   -0.17270521   38.46363052
     atom   10 type  1   force =     1.24257586    0.77459549   -4.52519465
     atom   11 type  2   force =     0.61036121    1.57881698  -38.71868035
     atom   12 type  2   force =    -0.34299666   -0.64900565   38.05348119
     atom   13 type  1   force =    -1.51638427    0.15795550   -0.78260093
     atom   14 type  2   force =    -0.23479955    0.43617027  -38.05305340
     atom   15 type  2   force =    -0.20412778    0.20611318   37.13346197
     atom   16 type  1   force =    -0.44951452   -4.22165023    1.03825340
     atom   17 type  2   force =    -2.81527634   -1.51981596  -36.26920370
     atom   18 type  2   force =    -0.12197234    0.67873883   39.14907504
     atom   19 type  1   force =    -3.16891680    1.60105736    0.64210586
     atom   20 type  2   force =    -0.26649919    0.06273457   38.82785897
     atom   21 type  1   force =    -0.14282589    0.22546617   -0.35517297
     atom   22 type  2   force =    -0.61292382    1.66517050  -37.99216143
     atom   23 type  2   force =     0.00242715   -0.64270344   38.51518563
     atom   24 type  1   force =     0.75106461    1.81617757   -2.28380761
     atom   25 type  2   force =    -0.96435873    1.26811802  -38.32213294
     atom   26 type  2   force =     0.15460104    0.24566811   37.82704814
     atom   27 type  1   force =    -1.59471875   -1.68424333    7.04173148
     atom   28 type  2   force =     2.52728075   -1.02822972  -31.42661998
     atom   29 type  2   force =     0.41917362    0.46585175   38.37123456
     atom   30 type  1   force =     0.49902281   -0.37487964    1.52553672
     atom   31 type  2   force =    -1.65365579   -1.44776108  -36.28006673
     atom   32 type  2   force =     0.37221063   -0.31398386   39.17128695
     atom   33 type  1   force =    -0.86477125    1.23931237   -0.97961697
     atom   34 type  2   force =    -0.12277925    1.29907674  -38.85022589
     atom   35 type  2   force =     0.29270372   -0.47432019   38.05835494
     atom   36 type  3   force =    -0.96767586   -0.65105526  -46.21537922
     The core correction contribution to forces
     atom    1 type  1   force =     0.00000000    0.00000000    0.00000000
     atom    2 type  2   force =     0.00014661   -0.00036848    0.02119547
     atom    3 type  2   force =     0.00059375    0.00006813   -0.02087304
     atom    4 type  1   force =     0.00000000    0.00000000    0.00000000
     atom    5 type  2   force =    -0.00101811    0.00167658    0.02060807
     atom    6 type  2   force =     0.00032579   -0.00095756   -0.02084197
     atom    7 type  1   force =     0.00000000    0.00000000    0.00000000
     atom    8 type  2   force =    -0.00015222    0.00100198    0.02083368
     atom    9 type  2   force =    -0.00011167    0.00046777   -0.02091757
     atom   10 type  1   force =     0.00000000    0.00000000    0.00000000
     atom   11 type  2   force =    -0.00062470   -0.00036456    0.02093774
     atom   12 type  2   force =     0.00115960    0.00138205   -0.02083904
     atom   13 type  1   force =     0.00000000    0.00000000    0.00000000
     atom   14 type  2   force =    -0.00077121    0.00008520    0.02088708
     atom   15 type  2   force =     0.00061965    0.00035340   -0.02064973
     atom   16 type  1   force =     0.00000000    0.00000000    0.00000000
     atom   17 type  2   force =    -0.00131094    0.00116503    0.02053187
     atom   18 type  2   force =    -0.00001626   -0.00049611   -0.02095666
     atom   19 type  1   force =     0.00000000    0.00000000    0.00000000
     atom   20 type  2   force =     0.00009203    0.00086109   -0.02122127
     atom   21 type  1   force =     0.00000000    0.00000000    0.00000000
     atom   22 type  2   force =     0.00022772   -0.00052815    0.02069818
     atom   23 type  2   force =    -0.00048688    0.00133640   -0.02093612
     atom   24 type  1   force =     0.00000000    0.00000000    0.00000000
     atom   25 type  2   force =    -0.00026630    0.00024517    0.02134441
     atom   26 type  2   force =    -0.00030019    0.00060676   -0.02073761
     atom   27 type  1   force =     0.00000000    0.00000000    0.00000000
     atom   28 type  2   force =    -0.01337661   -0.00153853   -0.01201539
     atom   29 type  2   force =    -0.00043727   -0.00058324   -0.02046173
     atom   30 type  1   force =     0.00000000    0.00000000    0.00000000
     atom   31 type  2   force =     0.00056507   -0.00064929    0.02134655
     atom   32 type  2   force =    -0.00018282    0.00063734   -0.02104220
     atom   33 type  1   force =     0.00000000    0.00000000    0.00000000
     atom   34 type  2   force =     0.00046601    0.00105153    0.02141506
     atom   35 type  2   force =    -0.00001560    0.00099942   -0.02106842
     atom   36 type  3   force =     0.01099798   -0.00033805    0.01330010
     The Hubbard contrib.    to forces
     atom    1 type  1   force =     0.00000000    0.00000000    0.00000000
     atom    2 type  2   force =     0.00000000    0.00000000    0.00000000
     atom    3 type  2   force =     0.00000000    0.00000000    0.00000000
     atom    4 type  1   force =     0.00000000    0.00000000    0.00000000
     atom    5 type  2   force =     0.00000000    0.00000000    0.00000000
     atom    6 type  2   force =     0.00000000    0.00000000    0.00000000
     atom    7 type  1   force =     0.00000000    0.00000000    0.00000000
     atom    8 type  2   force =     0.00000000    0.00000000    0.00000000
     atom    9 type  2   force =     0.00000000    0.00000000    0.00000000
     atom   10 type  1   force =     0.00000000    0.00000000    0.00000000
     atom   11 type  2   force =     0.00000000    0.00000000    0.00000000
     atom   12 type  2   force =     0.00000000    0.00000000    0.00000000
     atom   13 type  1   force =     0.00000000    0.00000000    0.00000000
     atom   14 type  2   force =     0.00000000    0.00000000    0.00000000
     atom   15 type  2   force =     0.00000000    0.00000000    0.00000000
     atom   16 type  1   force =     0.00000000    0.00000000    0.00000000
     atom   17 type  2   force =     0.00000000    0.00000000    0.00000000
     atom   18 type  2   force =     0.00000000    0.00000000    0.00000000
     atom   19 type  1   force =     0.00000000    0.00000000    0.00000000
     atom   20 type  2   force =     0.00000000    0.00000000    0.00000000
     atom   21 type  1   force =     0.00000000    0.00000000    0.00000000
     atom   22 type  2   force =     0.00000000    0.00000000    0.00000000
     atom   23 type  2   force =     0.00000000    0.00000000    0.00000000
     atom   24 type  1   force =     0.00000000    0.00000000    0.00000000
     atom   25 type  2   force =     0.00000000    0.00000000    0.00000000
     atom   26 type  2   force =     0.00000000    0.00000000    0.00000000
     atom   27 type  1   force =     0.00000000    0.00000000    0.00000000
     atom   28 type  2   force =     0.00000000    0.00000000    0.00000000
     atom   29 type  2   force =     0.00000000    0.00000000    0.00000000
     atom   30 type  1   force =     0.00000000    0.00000000    0.00000000
     atom   31 type  2   force =     0.00000000    0.00000000    0.00000000
     atom   32 type  2   force =     0.00000000    0.00000000    0.00000000
     atom   33 type  1   force =     0.00000000    0.00000000    0.00000000
     atom   34 type  2   force =     0.00000000    0.00000000    0.00000000
     atom   35 type  2   force =     0.00000000    0.00000000    0.00000000
     atom   36 type  3   force =     0.00000000    0.00000000    0.00000000
     The SCF correction term to forces
     atom    1 type  1   force =    -0.00014190   -0.00027834    0.00036851
     atom    2 type  2   force =    -0.00009617   -0.00012258    0.00000652
     atom    3 type  2   force =    -0.00003681   -0.00004584    0.00024199
     atom    4 type  1   force =    -0.00011932    0.00007152    0.00020060
     atom    5 type  2   force =    -0.00009150   -0.00003276    0.00005168
     atom    6 type  2   force =    -0.00002301   -0.00004080    0.00020031
     atom    7 type  1   force =    -0.00007546    0.00023983    0.00042486
     atom    8 type  2   force =    -0.00009841    0.00014802    0.00002282
     atom    9 type  2   force =    -0.00004018    0.00005666    0.00024797
     atom   10 type  1   force =    -0.00016085   -0.00006676    0.00038765
     atom   11 type  2   force =    -0.00004240    0.00002864    0.00004619
     atom   12 type  2   force =    -0.00001338    0.00001170    0.00033300
     atom   13 type  1   force =     0.00014598   -0.00019169    0.00032976
     atom   14 type  2   force =     0.00002908   -0.00009780    0.00004753
     atom   15 type  2   force =     0.00000319   -0.00004289    0.00028298
     atom   16 type  1   force =    -0.00000696    0.00001441    0.00034891
     atom   17 type  2   force =     0.00007655   -0.00002932   -0.00000410
     atom   18 type  2   force =     0.00000544   -0.00003668    0.00022712
     atom   19 type  1   force =     0.00014232    0.00022923    0.00040772
     atom   20 type  2   force =     0.00003136    0.00004725    0.00027390
     atom   21 type  1   force =     0.00005001    0.00000792    0.00051114
     atom   22 type  2   force =     0.00006294    0.00005675    0.00006757
     atom   23 type  2   force =     0.00002277    0.00004115    0.00030274
     atom   24 type  1   force =    -0.00000782   -0.00018263    0.00024381
     atom   25 type  2   force =     0.00007200   -0.00011417   -0.00000214
     atom   26 type  2   force =     0.00002965   -0.00003262    0.00023873
     atom   27 type  1   force =     0.00012227   -0.00001555    0.00024751
     atom   28 type  2   force =    -0.00004247   -0.00004340   -0.00016846
     atom   29 type  2   force =     0.00001702   -0.00002719    0.00018285
     atom   30 type  1   force =    -0.00005568    0.00024654    0.00035487
     atom   31 type  2   force =     0.00005529    0.00009701    0.00002935
     atom   32 type  2   force =     0.00000861    0.00001647    0.00022483
     atom   33 type  1   force =     0.00011239   -0.00006603    0.00039310
     atom   34 type  2   force =    -0.00001462    0.00001337    0.00005317
     atom   35 type  2   force =    -0.00001198    0.00003184    0.00027720
     atom   36 type  3   force =     0.00019749   -0.00003121   -0.00006342

     Total force =     0.369718     Total SCF correction =     0.001751
     Energy error            =      9.5E-02 Ry
     Gradient error          =      2.1E-01 Ry/Bohr

     number of scf cycles    =   2
     number of bfgs steps    =   1

     energy             old  =   -2246.1838418852 Ry
     energy             new  =   -2246.2788763686 Ry

     CASE: energy            _new < energy            _old

     new trust radius        =       0.1582076158 bohr
     new conv_thr            =       0.0000002111 Ry


ATOMIC_POSITIONS (angstrom)
Mo            6.5826021804        1.7692171621        2.8271995969
S             8.1658054272        0.8208765245        4.4366283740
S             8.1820573810        0.8169584307        1.2728325332
Mo            8.0672752402        4.5277657932        2.7063749165
S             6.4925919181        3.7146630482        4.3422041468
S             6.5536496608        3.5169103569        1.1205428394
Mo            6.4946774248        7.2082493769        2.6650283375
S             8.0831543645        6.3468691192        4.2577448646
S             8.0900435103        6.3094424727        1.0895205152
Mo            8.1523947566        9.9102514991        2.8257852020
S             6.4985817988        8.9414985613        4.3775719924
S             6.6171082374        9.0491902873        1.1457911047
Mo            3.4254639303        1.7519836146        2.7727820321
S             4.9808179540        0.8162722382        4.3598766007
S             5.0494222421        0.8486405381        1.2195724783
Mo            4.9810641868        4.5186750162        2.6355843248
S             3.4358455170        3.6741645898        4.2727228050
S             3.4376724468        3.5435731791        1.0683526283
Mo            3.4553796260        7.2100220314        2.6270670951
S             4.9857350127        6.3239322538        1.0365048589
Mo            5.0095922780        9.9050047104        2.7436828371
S             3.4685760744        8.9425331686        4.3228564563
S             3.4079459988        9.0660751285        1.1028764331
Mo            0.2851846412        1.7243412948        2.8194539993
S             1.8624243917        0.8075877203        4.4038145615
S             1.8548691153        0.8534678107        1.2055166151
Mo            1.8646817075        4.5063820428        2.6316581058
S             0.2128214246        3.6310937778        4.1645665921
S             0.2318452242        3.5272301205        1.1653699142
Mo            0.2705549029        7.2208103365        2.6991657134
S             1.9023870070        6.3091174332        4.2348855598
S             1.8560748824        6.3178383949        1.0488887946
Mo            1.8528205839        9.9368560702        2.7674712062
S             0.2978013807        9.0586333728        4.4059859512
S             0.2706563994        9.0503151395        1.1604019021
O             1.1435192953        3.6474704621        5.5840579831



     Writing config-only to output data dir ./MoS2-V-O.save/
     NEW-OLD atomic charge density approx. for the potential

     negative rho (up, down):  1.898E-04 0.000E+00

     total cpu time spent up to now is      244.8 secs

     Self-consistent Calculation

     iteration #  1     ecut=    80.00 Ry     beta= 0.70
     Davidson diagonalization with overlap
     ethr =  1.00E-06,  avg # of iterations =  9.0

     negative rho (up, down):  1.025E-04 0.000E+00

     total cpu time spent up to now is      259.2 secs

     total energy              =   -2246.33902375 Ry
     estimated scf accuracy    <       0.00767801 Ry

     iteration #  2     ecut=    80.00 Ry     beta= 0.70
     Davidson diagonalization with overlap
     ethr =  2.46E-06,  avg # of iterations =  3.0

     negative rho (up, down):  8.101E-05 0.000E+00

     total cpu time spent up to now is      270.0 secs

     total energy              =   -2246.33938705 Ry
     estimated scf accuracy    <       0.00220200 Ry

     iteration #  3     ecut=    80.00 Ry     beta= 0.70
     Davidson diagonalization with overlap
     ethr =  7.06E-07,  avg # of iterations =  2.0

     negative rho (up, down):  7.105E-05 0.000E+00

     total cpu time spent up to now is      285.0 secs

     total energy              =   -2246.33940191 Ry
     estimated scf accuracy    <       0.00051631 Ry

     iteration #  4     ecut=    80.00 Ry     beta= 0.70
     Davidson diagonalization with overlap
     ethr =  1.65E-07,  avg # of iterations =  5.0

     negative rho (up, down):  6.676E-05 0.000E+00

     total cpu time spent up to now is      297.7 secs

     total energy              =   -2246.33946565 Ry
     estimated scf accuracy    <       0.00004614 Ry

     iteration #  5     ecut=    80.00 Ry     beta= 0.70
     Davidson diagonalization with overlap
     ethr =  1.48E-08,  avg # of iterations =  8.0

     negative rho (up, down):  6.026E-05 0.000E+00

     total cpu time spent up to now is      309.3 secs

     total energy              =   -2246.33947753 Ry
     estimated scf accuracy    <       0.00002498 Ry

     iteration #  6     ecut=    80.00 Ry     beta= 0.70
     Davidson diagonalization with overlap
     ethr =  8.01E-09,  avg # of iterations =  2.0

     negative rho (up, down):  4.969E-05 0.000E+00

     total cpu time spent up to now is      319.0 secs

     total energy              =   -2246.33947877 Ry
     estimated scf accuracy    <       0.00000528 Ry

     iteration #  7     ecut=    80.00 Ry     beta= 0.70
     Davidson diagonalization with overlap
     ethr =  1.69E-09,  avg # of iterations =  5.0

     negative rho (up, down):  4.795E-05 0.000E+00

     total cpu time spent up to now is      329.5 secs

     total energy              =   -2246.33948025 Ry
     estimated scf accuracy    <       0.00000181 Ry

     iteration #  8     ecut=    80.00 Ry     beta= 0.70
     Davidson diagonalization with overlap
     ethr =  5.80E-10,  avg # of iterations =  3.0

     negative rho (up, down):  5.769E-05 0.000E+00

     total cpu time spent up to now is      342.4 secs

     total energy              =   -2246.33948102 Ry
     estimated scf accuracy    <       0.00000067 Ry

     iteration #  9     ecut=    80.00 Ry     beta= 0.70
     Davidson diagonalization with overlap
     ethr =  2.14E-10,  avg # of iterations =  3.0

     negative rho (up, down):  9.112E-05 0.000E+00

     total cpu time spent up to now is      351.9 secs

     total energy              =   -2246.33948134 Ry
     estimated scf accuracy    <       0.00000023 Ry

     iteration # 10     ecut=    80.00 Ry     beta= 0.70
     Davidson diagonalization with overlap
     ethr =  7.43E-11,  avg # of iterations =  3.0

     negative rho (up, down):  1.879E-04 0.000E+00

     total cpu time spent up to now is      355.3 secs

     End of self-consistent calculation

          k = 0.0000 0.0000 0.0000 (105382 PWs)   bands (ev):

   -63.1202 -63.0330 -63.0167 -62.9904 -62.9803 -62.9780 -62.9667 -62.9645
   -62.9549 -62.9508 -62.9372 -62.9196 -37.4387 -37.3900 -37.3347 -37.3246
   -37.2959 -37.2867 -37.2706 -37.2496 -37.2312 -37.2296 -37.2233 -37.2050
   -37.1993 -37.1824 -37.1749 -37.1700 -37.1588 -37.1529 -37.1475 -37.1444
   -37.1396 -37.1179 -37.1127 -37.1025 -37.0977 -37.0943 -37.0750 -37.0685
   -37.0594 -37.0500 -37.0346 -37.0085 -36.9952 -36.9674 -36.9261 -36.8997
   -20.2094 -16.1104 -15.3435 -15.2901 -15.1230 -15.0647 -14.9315 -14.6777
   -14.6319 -14.5860 -14.5797 -14.5626 -14.4996 -14.4599 -14.4261 -14.3175
   -14.2776 -14.2649 -14.2163 -14.1369 -14.0557 -14.0364 -13.9906 -13.9162
    -7.9394  -7.7940  -7.6058  -7.5569  -7.4629  -7.4435  -7.3875  -7.3226
    -7.2351  -7.0660  -7.0094  -6.9416  -6.8986  -6.8139  -6.7537  -6.6559
    -6.6069  -6.5807  -6.4386  -6.3992  -6.2049  -6.1676  -6.1118  -6.0050
    -5.9751  -5.9142  -5.8909  -5.8646  -5.8423  -5.8209  -5.7790  -5.7565
    -5.6034  -5.5851  -5.5509  -5.3429  -5.3102  -5.2764  -5.2365  -5.2055
    -5.1420  -5.1164  -5.0084  -4.8235  -4.7287  -4.6605  -4.5330  -4.4864
    -4.4683  -4.3848  -4.2627  -4.2304  -4.0690  -4.0334  -3.9675  -3.9586
    -3.9191  -3.8463  -3.7953  -3.7520  -3.6999  -3.6796  -3.6494  -3.6243
    -3.5757  -3.5224  -3.4169  -3.2924  -3.1197  -3.0648  -3.0483  -3.0221
    -2.9720  -2.8714  -2.8688  -2.8181  -2.8041  -2.7741  -2.5576  -2.5363
    -2.3007  -2.1538  -2.0785  -1.9750  -0.9550  -0.9100  -0.6286  -0.3677
    -0.3054  -0.2345  -0.1649  -0.0296  -0.0043   0.0785   0.0957   0.1351
     0.1688   0.1867   0.2650   0.3604   0.3700   0.3885   0.4488   0.4919
     0.5339   0.6074   0.6173   0.6301   0.6663   0.7312   0.7728   0.8178
     0.8678   0.8768   1.0848

     the Fermi energy is    -1.4656 ev

!    total energy              =   -2246.33948137 Ry
     estimated scf accuracy    <       0.00000006 Ry
     smearing contrib. (-TS)   =      -0.00000001 Ry
     internal energy E=F+TS    =   -2246.33948136 Ry

     The total energy is F=E-TS. E is the sum of the following terms:
     one-electron contribution =  -18434.74604413 Ry
     hartree contribution      =    9204.64203430 Ry
     xc contribution           =    -392.01915689 Ry
     ewald contribution        =    7385.65113499 Ry
     one-center paw contrib.   =      -9.86744964 Ry

     convergence has been achieved in  10 iterations

     negative rho (up, down):  1.879E-04 0.000E+00

     Forces acting on atoms (cartesian axes, Ry/au):

     atom    1 type  1   force =     0.00273737   -0.00869669   -0.00030488
     atom    2 type  2   force =    -0.00744341    0.00761742   -0.00077245
     atom    3 type  2   force =    -0.01575048    0.00247067   -0.01604126
     atom    4 type  1   force =    -0.00608945    0.01202635    0.00083145
     atom    5 type  2   force =    -0.00466595   -0.00587264   -0.00630167
     atom    6 type  2   force =    -0.00326065    0.00313412   -0.00226244
     atom    7 type  1   force =     0.00461926   -0.00474386   -0.00132294
     atom    8 type  2   force =     0.00048343    0.00266443    0.01439626
     atom    9 type  2   force =     0.00805300    0.01084431   -0.00153229
     atom   10 type  1   force =    -0.00559671    0.00751985   -0.00612267
     atom   11 type  2   force =     0.00360340   -0.00178835   -0.00889596
     atom   12 type  2   force =    -0.00331004    0.00033276    0.00232909
     atom   13 type  1   force =     0.00224810    0.00426909   -0.00206749
     atom   14 type  2   force =     0.00458216   -0.00119804    0.00814667
     atom   15 type  2   force =    -0.00770472    0.00130114   -0.00701410
     atom   16 type  1   force =     0.00069018    0.00337320    0.00241445
     atom   17 type  2   force =     0.00095143    0.00593025   -0.00937200
     atom   18 type  2   force =     0.00177401   -0.00480967    0.00528969
     atom   19 type  1   force =     0.00082377   -0.00524914    0.00110901
     atom   20 type  2   force =     0.00256152   -0.00334589   -0.00426114
     atom   21 type  1   force =    -0.00286804    0.00179989    0.00198932
     atom   22 type  2   force =    -0.00187756   -0.00204653   -0.00343501
     atom   23 type  2   force =     0.00063089    0.00018105    0.00448721
     atom   24 type  1   force =    -0.00501717   -0.02158093   -0.01788677
     atom   25 type  2   force =     0.00831449    0.01388855   -0.00176187
     atom   26 type  2   force =    -0.00199133   -0.00369040   -0.00827175
     atom   27 type  1   force =     0.00964989    0.00675300   -0.01157714
     atom   28 type  2   force =     0.15759294   -0.00931680    0.14792826
     atom   29 type  2   force =    -0.00597379    0.00290203   -0.00881656
     atom   30 type  1   force =    -0.00233849   -0.00167712    0.00469440
     atom   31 type  2   force =     0.00038755   -0.00637884    0.00734418
     atom   32 type  2   force =    -0.00592006    0.01132195   -0.00134380
     atom   33 type  1   force =     0.00633856   -0.00070569    0.00180357
     atom   34 type  2   force =     0.00022301   -0.02796744   -0.01351920
     atom   35 type  2   force =    -0.00544451    0.00825519    0.00652051
     atom   36 type  3   force =    -0.13101262    0.00248278   -0.07640067
     The non-local contrib.  to forces
     atom    1 type  1   force =    -0.00188648    0.02479387   -0.01383343
     atom    2 type  2   force =    -0.00323720    0.00056072   -0.27478359
     atom    3 type  2   force =    -0.01511690   -0.00744444    0.26057909
     atom    4 type  1   force =    -0.00495399    0.00017060    0.00616827
     atom    5 type  2   force =     0.01158007   -0.02982973   -0.25827942
     atom    6 type  2   force =    -0.00519239    0.00619045    0.26279593
     atom    7 type  1   force =    -0.02057330    0.00316495   -0.01610834
[...]
     atom   28 type  2   force =    -0.00019133    0.00992461    0.29329798
     atom   29 type  2   force =     0.00078748   -0.00812208    0.27630955
     atom   30 type  1   force =     0.00035596    0.01805875    0.00406914
     atom   31 type  2   force =    -0.00808089    0.00192559   -0.26897172
     atom   32 type  2   force =     0.00784911   -0.01353409    0.26758034
     atom   33 type  1   force =     0.00145683    0.00521430    0.00356263
     atom   34 type  2   force =    -0.00079717   -0.00911474   -0.27561633
     atom   35 type  2   force =     0.00153814   -0.01475916    0.26712747
     atom   36 type  3   force =    -0.00247980   -0.04237127   -2.32577045
     The ionic contribution  to forces
     atom    1 type  1   force =    -0.72703354    0.15208283    1.18071497
     atom    2 type  2   force =    -0.76648603   -0.84244494   38.39182410
     atom    3 type  2   force =    -0.01836243   -0.17404871  -38.24985732
     atom    4 type  1   force =    -1.11061487    0.81305006   -3.72188512
     atom    5 type  2   force =    -1.82135083    1.11765992   37.58492177
     atom    6 type  2   force =     0.18644184   -0.39945077  -38.89270346
     atom    7 type  1   force =    -3.21071126   -1.43739592    2.19276650
     atom    8 type  2   force =    -1.76351309    1.16603640   37.70303631
     atom    9 type  2   force =     0.28496863    0.22557360  -38.68683514
     atom   10 type  1   force =    -0.63424750   -0.94834603    2.70214652
     atom   11 type  2   force =    -0.62362583   -1.41253999   38.55176807
     atom   12 type  2   force =     0.14699941    0.28254293  -38.20222423
     atom   13 type  1   force =     0.66065654    0.12886421    0.70860143
     atom   14 type  2   force =    -0.02292146   -0.28700599   38.31685753
     atom   15 type  2   force =     0.02087388   -0.26463423  -37.96546672
     atom   16 type  1   force =    -0.04905299    3.84395165   -0.06913405
     atom   17 type  2   force =     1.77594720    1.12214581   37.56606234
     atom   18 type  2   force =    -0.16506661   -0.37562858  -38.95096759
     atom   19 type  1   force =     3.21032293   -1.42942048    1.31230205
     atom   20 type  2   force =     0.01210729    0.14782832  -38.99054405
     atom   21 type  1   force =    -0.01619697   -0.46912337    0.59551752
     atom   22 type  2   force =     0.58726666   -1.41974127   38.36199699
     atom   23 type  2   force =    -0.12127589    0.30316902  -38.35444148
     atom   24 type  1   force =    -0.00559640   -0.70668901   -1.55046222
     atom   25 type  2   force =     0.81367580   -0.85711889   38.25525188
     atom   26 type  2   force =     0.02424686   -0.15065407  -38.36250146
     atom   27 type  1   force =     1.13137252    0.80362105   -3.73376096
     atom   28 type  2   force =     0.02489962    0.25335185   27.81630172
     atom   29 type  2   force =     0.00417815   -0.16115427  -38.19426792
     atom   30 type  1   force =     0.02550743    0.34657266    0.77065461
     atom   31 type  2   force =     1.79830896    1.14496279   37.63560603
     atom   32 type  2   force =    -0.32477037    0.20600799  -38.78818605
     atom   33 type  1   force =     0.64300677   -0.91919025    1.89962710
     atom   34 type  2   force =     0.03489312   -0.43993032   38.63270365
     atom   35 type  2   force =    -0.03265312    0.13991765  -37.78629557
     atom   36 type  3   force =     0.02780556    0.49717836   50.32087224
     The local contribution  to forces
     atom    1 type  1   force =     0.72830506   -0.17618974   -1.17368065
     atom    2 type  2   force =     0.76656961    0.85170917  -38.14298872
     atom    3 type  2   force =     0.02061823    0.18273921   38.00485283
     atom    4 type  1   force =     1.09920881   -0.81043468    3.70024229
     atom    5 type  2   force =     1.81670796   -1.09918239  -37.34732342
     atom    6 type  2   force =    -0.18577049    0.40173403   38.65004409
     atom    7 type  1   force =     3.22474246    1.43422906   -2.17270987
     atom    8 type  2   force =     1.75702904   -1.16894536  -37.45536794
     atom    9 type  2   force =    -0.27922724   -0.21262462   38.44008669
     atom   10 type  1   force =     0.63722672    0.94386744   -2.70491757
     atom   11 type  2   force =     0.61656306    1.41369027  -38.31099223
     atom   12 type  2   force =    -0.13839993   -0.26880375   37.95855363
     atom   13 type  1   force =    -0.66220396   -0.15308772   -0.70172985
     atom   14 type  2   force =     0.02220182    0.29562320  -38.06766490
     atom   15 type  2   force =    -0.02024241    0.27247989   37.72216408
     atom   16 type  1   force =     0.04806262   -3.87776380    0.09139985
     atom   17 type  2   force =    -1.77228441   -1.10352608  -37.32929724
     atom   18 type  2   force =     0.16435114    0.37814705   38.70879638
     atom   19 type  1   force =    -3.22506038    1.42649773   -1.29221406
     atom   20 type  2   force =    -0.01160223   -0.13193011   38.74567924
     atom   21 type  1   force =     0.01689484    0.43924306   -0.59760800
     atom   22 type  2   force =    -0.58045286    1.42145509  -38.12031081
     atom   23 type  2   force =     0.11368953   -0.28979120   38.11078445
     atom   24 type  1   force =     0.00662217    0.68391253    1.53550742
     atom   25 type  2   force =    -0.81282498    0.86585743  -38.00615115
     atom   26 type  2   force =    -0.02683605    0.15939752   38.11766009
     atom   27 type  1   force =    -1.12113538   -0.80047505    3.71199705
     atom   28 type  2   force =    -0.02483510   -0.26382949  -28.10127398
     atom   29 type  2   force =    -0.00419411    0.16917477   37.93803513
     atom   30 type  1   force =    -0.02620135   -0.36463395   -0.77512999
     atom   31 type  2   force =    -1.79110865   -1.14752181  -37.38825763
     atom   32 type  2   force =     0.31856818   -0.19353498   38.54182726
     atom   33 type  1   force =    -0.64391486    0.91351541   -1.90257437
     atom   34 type  2   force =    -0.03397495    0.44889893  -38.37787685
     atom   35 type  2   force =     0.03198794   -0.12600748   37.53972720
     atom   36 type  3   force =    -0.02545204   -0.45501407  -48.01844607
     The core correction contribution to forces
     atom    1 type  1   force =     0.00000000    0.00000000    0.00000000
     atom    2 type  2   force =    -0.00005575    0.00049947    0.02120544
     atom    3 type  2   force =     0.00004705    0.00028538   -0.02089927
     atom    4 type  1   force =     0.00000000    0.00000000    0.00000000
     atom    5 type  2   force =    -0.00030542    0.00089890    0.02075563
     atom    6 type  2   force =     0.00021103   -0.00045191   -0.02075263
     atom    7 type  1   force =     0.00000000    0.00000000    0.00000000
     atom    8 type  2   force =    -0.00026922    0.00005004    0.02121831
     atom    9 type  2   force =     0.00063125    0.00091352   -0.02092106
     atom   10 type  1   force =     0.00000000    0.00000000    0.00000000
     atom   11 type  2   force =    -0.00026666   -0.00016799    0.02077248
     atom   12 type  2   force =     0.00072764    0.00100102   -0.02089071
     atom   13 type  1   force =     0.00000000    0.00000000    0.00000000
     atom   14 type  2   force =    -0.00006323    0.00012893    0.02099309
     atom   15 type  2   force =     0.00009505    0.00032854   -0.02071886
     atom   16 type  1   force =     0.00000000    0.00000000    0.00000000
     atom   17 type  2   force =     0.00042257    0.00085397    0.02076871
     atom   18 type  2   force =    -0.00018862   -0.00038586   -0.02077789
     atom   19 type  1   force =     0.00000000    0.00000000    0.00000000
     atom   20 type  2   force =     0.00012622    0.00078853   -0.02128014
     atom   21 type  1   force =     0.00000000    0.00000000    0.00000000
     atom   22 type  2   force =     0.00009798   -0.00019609    0.02076376
     atom   23 type  2   force =    -0.00069078    0.00100466   -0.02089178
     atom   24 type  1   force =     0.00000000    0.00000000    0.00000000
     atom   25 type  2   force =     0.00016599    0.00045225    0.02118590
     atom   26 type  2   force =    -0.00011860    0.00039151   -0.02091867
     atom   27 type  1   force =     0.00000000    0.00000000    0.00000000
     atom   28 type  2   force =     0.00001997   -0.00032397   -0.00973555
     atom   29 type  2   force =    -0.00001897    0.00015117   -0.02114274
     atom   30 type  1   force =     0.00000000    0.00000000    0.00000000
     atom   31 type  2   force =     0.00038868    0.00015249    0.02121884
     atom   32 type  2   force =    -0.00075790    0.00080260   -0.02093849
     atom   33 type  1   force =     0.00000000    0.00000000    0.00000000
     atom   34 type  2   force =     0.00007612    0.00036503    0.02127672
     atom   35 type  2   force =    -0.00012557    0.00085255   -0.02091035
     atom   36 type  3   force =     0.00002642    0.00043452    0.02464034
     The Hubbard contrib.    to forces
     atom    1 type  1   force =     0.00000000    0.00000000    0.00000000
     atom    2 type  2   force =     0.00000000    0.00000000    0.00000000
     atom    3 type  2   force =     0.00000000    0.00000000    0.00000000
     atom    4 type  1   force =     0.00000000    0.00000000    0.00000000
     atom    5 type  2   force =     0.00000000    0.00000000    0.00000000
     atom    6 type  2   force =     0.00000000    0.00000000    0.00000000
     atom    7 type  1   force =     0.00000000    0.00000000    0.00000000
     atom    8 type  2   force =     0.00000000    0.00000000    0.00000000
     atom    9 type  2   force =     0.00000000    0.00000000    0.00000000
     atom   10 type  1   force =     0.00000000    0.00000000    0.00000000
     atom   11 type  2   force =     0.00000000    0.00000000    0.00000000
     atom   12 type  2   force =     0.00000000    0.00000000    0.00000000
     atom   13 type  1   force =     0.00000000    0.00000000    0.00000000
     atom   14 type  2   force =     0.00000000    0.00000000    0.00000000
     atom   15 type  2   force =     0.00000000    0.00000000    0.00000000
     atom   16 type  1   force =     0.00000000    0.00000000    0.00000000
     atom   17 type  2   force =     0.00000000    0.00000000    0.00000000
     atom   18 type  2   force =     0.00000000    0.00000000    0.00000000
     atom   19 type  1   force =     0.00000000    0.00000000    0.00000000
     atom   20 type  2   force =     0.00000000    0.00000000    0.00000000
     atom   21 type  1   force =     0.00000000    0.00000000    0.00000000
     atom   22 type  2   force =     0.00000000    0.00000000    0.00000000
     atom   23 type  2   force =     0.00000000    0.00000000    0.00000000
     atom   24 type  1   force =     0.00000000    0.00000000    0.00000000
     atom   25 type  2   force =     0.00000000    0.00000000    0.00000000
     atom   26 type  2   force =     0.00000000    0.00000000    0.00000000
     atom   27 type  1   force =     0.00000000    0.00000000    0.00000000
     atom   28 type  2   force =     0.00000000    0.00000000    0.00000000
     atom   29 type  2   force =     0.00000000    0.00000000    0.00000000
     atom   30 type  1   force =     0.00000000    0.00000000    0.00000000
     atom   31 type  2   force =     0.00000000    0.00000000    0.00000000
     atom   32 type  2   force =     0.00000000    0.00000000    0.00000000
     atom   33 type  1   force =     0.00000000    0.00000000    0.00000000
     atom   34 type  2   force =     0.00000000    0.00000000    0.00000000
     atom   35 type  2   force =     0.00000000    0.00000000    0.00000000
     atom   36 type  3   force =     0.00000000    0.00000000    0.00000000
     The SCF correction term to forces
     atom    1 type  1   force =     0.00001506    0.00000249    0.00004445
     atom    2 type  2   force =     0.00000778    0.00000849    0.00002437
     atom    3 type  2   force =     0.00000548    0.00000379    0.00000730
     atom    4 type  1   force =     0.00003572   -0.00001357    0.00006987
     atom    5 type  2   force =     0.00000398   -0.00000268    0.00002416
     atom    6 type  2   force =    -0.00000660   -0.00000543    0.00000269
     atom    7 type  1   force =     0.00000707   -0.00001440    0.00003169
     atom    8 type  2   force =     0.00000906   -0.00000704    0.00002145
     atom    9 type  2   force =     0.00000426    0.00000784    0.00000565
     atom   10 type  1   force =     0.00001433    0.00001499    0.00004141
     atom   11 type  2   force =     0.00000442   -0.00000144    0.00001700
     atom   12 type  2   force =     0.00000044   -0.00000417    0.00000465
     atom   13 type  1   force =    -0.00002159    0.00002745    0.00004494
     atom   14 type  2   force =    -0.00000391    0.00000989    0.00002237
     atom   15 type  2   force =    -0.00000415    0.00000315    0.00000060
     atom   16 type  1   force =    -0.00002669   -0.00000985    0.00004428
     atom   17 type  2   force =    -0.00002133    0.00000034    0.00002622
     atom   18 type  2   force =    -0.00000941    0.00000489    0.00000953
     atom   19 type  1   force =    -0.00001122   -0.00002168    0.00001207
     atom   20 type  2   force =     0.00000316   -0.00000565   -0.00000017
     atom   21 type  1   force =    -0.00000007    0.00000996    0.00002307
     atom   22 type  2   force =    -0.00000518    0.00000705    0.00002055
     atom   23 type  2   force =    -0.00000446    0.00000446   -0.00000602
     atom   24 type  1   force =     0.00001338    0.00003691    0.00006639
     atom   25 type  2   force =    -0.00000966    0.00002383    0.00002835
     atom   26 type  2   force =    -0.00000213    0.00000372    0.00000391
     atom   27 type  1   force =    -0.00002325   -0.00002524    0.00005999
     atom   28 type  2   force =     0.00002130   -0.00000301    0.00004472
     atom   29 type  2   force =     0.00000968    0.00000074    0.00001570
     atom   30 type  1   force =     0.00000295   -0.00002649    0.00003434
     atom   31 type  2   force =    -0.00001306   -0.00002848    0.00002551
     atom   32 type  2   force =    -0.00000488   -0.00001533    0.00000073
     atom   33 type  1   force =    -0.00000084    0.00002461    0.00002525
     atom   34 type  2   force =    -0.00000414    0.00000584    0.00001975
     atom   35 type  2   force =     0.00000087   -0.00000108    0.00000247
     atom   36 type  3   force =     0.00007899   -0.00000708   -0.00000993

     Total force =     0.006010     Total SCF correction =     0.000227
     Energy error            =      8.5E-05 Ry
     Gradient error          =      1.9E-03 Ry/Bohr

     bfgs converged in  20 scf cycles and  19 bfgs steps
     (criteria: energy <  1.0E-04 Ry, force <  1.0E-02 Ry/Bohr)

     End of BFGS Geometry Optimization

     Final energy             =   -2246.4527690595 Ry

     File ./MoS2-V-O.bfgs deleted, as requested
Begin final coordinates

ATOMIC_POSITIONS (angstrom)
Mo            6.5868410126        1.7558982180        2.7599582452
S             8.1541264509        0.8538448746        4.3797977538
S             8.1458089251        0.8226862612        1.1699409871
Mo            8.1242020814        4.5203863015        2.6952240583
S             6.5547518494        3.6740137986        4.2995091167
S             6.5758725324        3.5494843091        1.0970446756
Mo            6.5425761500        7.1876310592        2.6804516185
S             8.1122650294        6.3036277886        4.3138082998
S             8.1608881410        6.3526708805        1.1076111032
Mo            8.1486239322        9.9386381320        2.7841826102
S             6.5330607626        8.9496537284        4.3409701058
S             6.6086434982        9.0321772027        1.1417114443
Mo            3.4481275557        1.7578400609        2.7511373698
S             5.0124143094        0.8189920986        4.3447265918
S             5.0200106816        0.8350081055        1.1688598994
Mo            5.0224766175        4.5241187843        2.6457874582
S             3.4956836718        3.6709475525        4.2983206446
S             3.4679876086        3.5539096758        1.0913752058
Mo            3.4903859514        7.1882720535        2.6649646017
S             5.0255806970        6.3177926325        1.0493997816
Mo            5.0122754368        9.9052987047        2.7365716333
S             3.4807851549        8.9508452326        4.3250224879
S             3.4184083465        9.0353601804        1.1286815221
Mo            0.2864053454        1.7080353619        2.7554906580
S             1.8799114830        0.8538549940        4.3689895946
S             1.8788210617        0.8320486561        1.1598809338
Mo            1.9193999469        4.5181732156        2.6934869629
S             0.2941059642        3.6124605879        4.2160744291
S             0.2887810665        3.5590363995        1.1636617632
Mo            0.2910055321        7.2154062787        2.7446063010
S             1.9355769372        6.3064342452        4.3079054907
S             1.8697834650        6.3467547529        1.0989588371
Mo            1.8745314461        9.9424495445        2.7697798854
S             0.2890949351        9.0265217176        4.3682085783
S             0.2784069765        9.0579116555        1.1856179932
O             0.2954775668        3.6457280322        5.7126212296
End final coordinates



     Writing all to output data dir ./MoS2-V-O.save/
 
     init_run     :      4.61s CPU      5.03s WALL (       1 calls)
     electrons    :   1871.71s CPU   2055.49s WALL (      20 calls)
     update_pot   :     58.15s CPU     60.88s WALL (      19 calls)
     forces       :     54.62s CPU     59.04s WALL (      20 calls)

     Called by init_run:
     wfcinit      :      0.51s CPU      0.55s WALL (       1 calls)
     potinit      :      2.33s CPU      2.51s WALL (       1 calls)
     hinit0       :      0.45s CPU      0.57s WALL (       1 calls)

     Called by electrons:
     c_bands      :    278.95s CPU    284.10s WALL (     192 calls)
     sum_band     :    117.31s CPU    130.90s WALL (     192 calls)
     v_of_rho     :    179.93s CPU    206.32s WALL (     206 calls)
     newd         :     61.57s CPU     72.85s WALL (     206 calls)
     PAW_pot      :      8.18s CPU      8.21s WALL (     225 calls)
     mix_rho      :   1245.56s CPU   1371.83s WALL (     192 calls)

     Called by c_bands:
     init_us_2    :      4.61s CPU      4.77s WALL (     404 calls)
     init_us_2:cp :      4.60s CPU      4.76s WALL (     404 calls)
     regterg      :    265.05s CPU    270.01s WALL (     192 calls)

     Called by *egterg:
     rdiaghg      :     17.31s CPU     17.43s WALL (     978 calls)
     h_psi        :    175.00s CPU    176.48s WALL (    1004 calls)
     s_psi        :     15.83s CPU     15.88s WALL (    1004 calls)
     g_psi        :      0.85s CPU      0.86s WALL (     811 calls)

     Called by h_psi:
     h_psi:calbec :     17.45s CPU     17.52s WALL (    1004 calls)
     vloc_psi     :    139.81s CPU    141.12s WALL (    1004 calls)
     add_vuspsi   :     15.55s CPU     15.63s WALL (    1004 calls)

     General routines
     calbec       :     25.47s CPU     25.57s WALL (    1295 calls)
     fft          :    122.98s CPU    142.28s WALL (   13731 calls)
     ffts         :    558.12s CPU    679.40s WALL (  298126 calls)
     fftw         :     88.94s CPU     89.68s WALL (  116534 calls)
     interpolate  :      2.58s CPU      2.93s WALL (     206 calls)
 
     Parallel routines
 
     PWSCF        :  33m17.58s CPU  36m31.98s WALL

 
   This run was terminated on:  15:34:43   1Nov2023            

=------------------------------------------------------------------------------=
   JOB DONE.
=------------------------------------------------------------------------------=
