
     Program PWSCF v.7.2 starts on  1Nov2023 at 22:15:20 

     This program is part of the open-source Quantum ESPRESSO suite
     for quantum simulation of materials; please cite
         "P. Giannozzi et al., J. Phys.:Condens. Matter 21 395502 (2009);
         "P. Giannozzi et al., J. Phys.:Condens. Matter 29 465901 (2017);
         "P. Giannozzi et al., J. Chem. Phys. 152 154105 (2020);
          URL http://www.quantum-espresso.org", 
     in publications or presentations arising from this work. More details at
     http://www.quantum-espresso.org/quote

     Parallel version (MPI & OpenMP), running on      48 processor cores
     Number of MPI processes:                48
     Threads/MPI process:                     1

     MPI processes distributed on     1 nodes
     56825 MiB available memory on the printing compute node when the environment starts
 
     Waiting for input...
     Reading input from standard input
Warning: card &CELL ignored
Warning: card CELL_DYNAMICS = 'BFGS', ignored
Warning: card CELL_DOFREE = '2DXY' ignored
Warning: card / ignored

     Current dimensions of program PWSCF are:
     Max number of different atomic species (ntypx) = 10
     Max number of k-points (npk) =  40000
     Max angular momentum in pseudopotentials (lmaxx) =  4
     file O.pbe-n-kjpaw_psl.0.1.UPF: wavefunction(s)  2P renormalized

     IMPORTANT: XC functional enforced from input :
     Exchange-correlation= RVV10
                           (   1   4  13   4  26   0   0)
     Any further DFT definition will be discarded
     Please, verify this is what you really want


     gamma-point specific algorithms are used
     signal trapping enabled: kill the code with -SIGUSR1 to stop cleanly the simulation 
 
     R & G space division:  proc/nbgrp/npool/nimage =      48
     Subspace diagonalization in iterative solution of the eigenvalue problem:
     one sub-group per band group will be used
     scalapack distributed-memory algorithm (size of sub-group:  2*  2 procs)

 
     Parallelization info
     --------------------
     sticks:   dense  smooth     PW     G-vecs:    dense   smooth      PW
     Min         396     194     47               101632    35090    4376
     Max         398     196     50               101674    35128    4410
     Sum       19091    9389   2349              4879585  1685513  210763
 
     Using Slab Decomposition
 


     bravais-lattice index     =            0
     lattice parameter (alat)  =      17.8707  a.u.
     unit-cell volume          =   17436.2743 (a.u.)^3
     number of atoms/cell      =           36
     number of atomic types    =            3
     number of electrons       =       312.00
     number of Kohn-Sham states=          187
     kinetic-energy cutoff     =      80.0000  Ry
     charge density cutoff     =     650.0000  Ry
     scf convergence threshold =      1.0E-06
     mixing beta               =       0.7000
     number of iterations used =            8  local-TF  mixing
     energy convergence thresh.=      1.0E-04
     force convergence thresh. =      1.0E-02
     Exchange-correlation= RVV10
                           (   1   4  13   4  26   0   0)
     nstep                     =          200


     celldm(1)=  17.870686  celldm(2)=   0.000000  celldm(3)=   0.000000
     celldm(4)=   0.000000  celldm(5)=   0.000000  celldm(6)=   0.000000

     crystal axes: (cart. coord. in units of alat)
               a(1) = (   1.000000   0.000000   0.000000 )  
               a(2) = (   0.000000   1.155671   0.000000 )  
               a(3) = (   0.000000   0.000000   2.643601 )  

     reciprocal axes: (cart. coord. in units 2 pi/alat)
               b(1) = (  1.000000  0.000000  0.000000 )  
               b(2) = (  0.000000  0.865298  0.000000 )  
               b(3) = (  0.000000  0.000000  0.378272 )  


     PseudoPot. # 1 for Mo read from file:
     ../pseudo/Mo_ONCV_PBE-1.0.oncvpsp.upf
     MD5 check sum: 1b5d28e075c9ccadda658a603575cd1f
     Pseudo is Norm-conserving, Zval = 14.0
     Generated using ONCVPSP code by D. R. Hamann
     Using radial grid of 1526 points,  6 beta functions with: 
                l(1) =   0
                l(2) =   0
                l(3) =   1
                l(4) =   1
                l(5) =   2
                l(6) =   2

     PseudoPot. # 2 for S  read from file:
     ../pseudo/s_pbe_v1.4.uspp.F.UPF
     MD5 check sum: 88d86576ff6df21479756cfb9bdac1df
     Pseudo is Ultrasoft + core correction, Zval =  6.0
     Generated by new atomic code, or converted to UPF format
     Using radial grid of  907 points,  6 beta functions with: 
                l(1) =   0
                l(2) =   0
                l(3) =   1
                l(4) =   1
                l(5) =   2
                l(6) =   2
     Q(r) pseudized with  8 coefficients,  rinner =    1.300   1.300   1.300
                                                       1.300   1.300

     PseudoPot. # 3 for O  read from file:
     ../pseudo/O.pbe-n-kjpaw_psl.0.1.UPF
     MD5 check sum: 0234752ac141de4415c5fc33072bef88
     Pseudo is Projector augmented-wave + core cor, Zval =  6.0
     Generated using "atomic" code by A. Dal Corso  v.5.0.99 svn rev. 10869
     Shape of augmentation charge: BESSEL
     Using radial grid of 1095 points,  4 beta functions with: 
                l(1) =   0
                l(2) =   0
                l(3) =   1
                l(4) =   1
     Q(r) pseudized with 0 coefficients 


     atomic species   valence    mass     pseudopotential
        Mo            14.00    95.94000     Mo( 1.00)
        S              6.00    32.06500     S ( 1.00)
        O              6.00    15.99940     O ( 1.00)

     No symmetry found



   Cartesian axes

     site n.     atom                  positions (alat units)
         1           Mo  tau(   1) = (   0.6952221   0.1890506   0.2985846  )
         2           S   tau(   2) = (   0.8646417   0.0856217   0.4689279  )
         3           S   tau(   3) = (   0.8663890   0.0857843   0.1351291  )
         4           Mo  tau(   4) = (   0.8560186   0.4753274   0.2873942  )
         5           S   tau(   5) = (   0.6873294   0.3936244   0.4596353  )
         6           S   tau(   6) = (   0.6929804   0.3713468   0.1185692  )
         7           Mo  tau(   7) = (   0.6862796   0.7633098   0.2825370  )
         8           S   tau(   8) = (   0.8545980   0.6708292   0.4486168  )
         9           S   tau(   9) = (   0.8545123   0.6666874   0.1146125  )
        10           Mo  tau(  10) = (   0.8629403   1.0471007   0.3006803  )
        11           S   tau(  11) = (   0.6868280   0.9456650   0.4634891  )
        12           S   tau(  12) = (   0.6998113   0.9568511   0.1205389  )
        13           Mo  tau(  13) = (   0.3618216   0.1847309   0.2935964  )
        14           S   tau(  14) = (   0.5260962   0.0863870   0.4600448  )
        15           S   tau(  15) = (   0.5348379   0.0894875   0.1297123  )
        16           Mo  tau(  16) = (   0.5265817   0.4772436   0.2784130  )
        17           S   tau(  17) = (   0.3624753   0.3882513   0.4525556  )
        18           S   tau(  18) = (   0.3635411   0.3752055   0.1119148  )
        19           Mo  tau(  19) = (   0.3652268   0.7630864   0.2781795  )
        20           S   tau(  20) = (   0.5269494   0.6690381   0.1096838  )
        21           Mo  tau(  21) = (   0.5300192   1.0470394   0.2900995  )
        22           S   tau(  22) = (   0.3670346   0.9457522   0.4574073  )
        23           S   tau(  23) = (   0.3604225   0.9585725   0.1159032  )
        24           Mo  tau(  24) = (   0.0313099   0.1847895   0.3013130  )
        25           S   tau(  25) = (   0.1956761   0.0838230   0.4650863  )
        26           S   tau(  26) = (   0.1967693   0.0903508   0.1278874  )
        27           Mo  tau(  27) = (   0.1967578   0.4753919   0.2813011  )
        28           S   tau(  28) = (   0.0287851   0.3864324   0.4586755  )
        29           S   tau(  29) = (   0.0244514   0.3729871   0.1239344  )
        30           Mo  tau(  30) = (   0.0286728   0.7631204   0.2856894  )
        31           S   tau(  31) = (   0.2011512   0.6675435   0.4465001  )
        32           S   tau(  32) = (   0.1969214   0.6672839   0.1104564  )
        33           Mo  tau(  33) = (   0.1950294   1.0511147   0.2932237  )
        34           S   tau(  34) = (   0.0312912   0.9612169   0.4667423  )
        35           S   tau(  35) = (   0.0292670   0.9563028   0.1216485  )
        36           O   tau(  36) = (   0.7777778   1.0272628   0.5656742  )

     number of k points=     1  Gaussian smearing, width (Ry)=  0.0100
                       cart. coord. in units 2pi/alat
        k(    1) = (   0.0000000   0.0000000   0.0000000), wk =   2.0000000

     Dense  grid:  2439793 G-vectors     FFT dimensions: ( 150, 180, 384)

     Smooth grid:   842757 G-vectors     FFT dimensions: ( 108, 120, 270)

     Estimated max dynamical RAM per process >     269.22 MB

     Estimated total dynamical RAM >      12.62 GB

     Initial potential from superposition of free atoms

     starting charge     311.9873, renormalised to     312.0000

     negative rho (up, down):  2.744E-04 0.000E+00


---------------------------------------------------------------------------------
Carrying out rVV10 run using the following parameters:
Nqs =      20    Nr_points =    1024   r_max =   100.000
b_value =  6.30000    beta =  0.00901
     q_mesh =  0.00010000  0.00030000  0.00058939  0.00100810
               0.00161396  0.00249058  0.00375900  0.00559430
               0.00824984  0.01209221  0.01765183  0.02569619
               0.03733578  0.05417739  0.07854596  0.11380545
               0.16482331  0.23864234  0.34545298  0.50000000

Gradients computed in Reciprocal space

---------------------------------------------------------------------------------


     Starting wfcs are  216 randomized atomic wfcs
     Checking if some PAW data can be deallocated... 

     total cpu time spent up to now is        6.0 secs

     Self-consistent Calculation

     iteration #  1     ecut=    80.00 Ry     beta= 0.70
     Davidson diagonalization with overlap
     ethr =  1.00E-02,  avg # of iterations =  2.0

     Threshold (ethr) on eigenvalues was too large:
     Diagonalizing with lowered threshold

     Davidson diagonalization with overlap
     ethr =  4.43E-04,  avg # of iterations =  2.0

     negative rho (up, down):  3.280E-08 0.000E+00

     total cpu time spent up to now is       24.6 secs

     total energy              =   -2246.23561617 Ry
     estimated scf accuracy    <       1.63894842 Ry

     iteration #  2     ecut=    80.00 Ry     beta= 0.70
     Davidson diagonalization with overlap
     ethr =  5.25E-04,  avg # of iterations =  3.0

     total cpu time spent up to now is       29.1 secs

     total energy              =   -2246.24424114 Ry
     estimated scf accuracy    <       0.66105267 Ry

     iteration #  3     ecut=    80.00 Ry     beta= 0.70
     Davidson diagonalization with overlap
     ethr =  2.12E-04,  avg # of iterations =  4.0

     total cpu time spent up to now is       33.0 secs

     total energy              =   -2246.23285408 Ry
     estimated scf accuracy    <       0.22412812 Ry

     iteration #  4     ecut=    80.00 Ry     beta= 0.70
     Davidson diagonalization with overlap
     ethr =  7.18E-05,  avg # of iterations =  2.0

     total cpu time spent up to now is       36.9 secs

     total energy              =   -2246.26574118 Ry
     estimated scf accuracy    <       0.03367491 Ry

     iteration #  5     ecut=    80.00 Ry     beta= 0.70
     Davidson diagonalization with overlap
     c_bands:  1 eigenvalues not converged
     ethr =  1.08E-05,  avg # of iterations = 20.0

     total cpu time spent up to now is       42.2 secs

     total energy              =   -2246.26831237 Ry
     estimated scf accuracy    <       0.01873470 Ry

     iteration #  6     ecut=    80.00 Ry     beta= 0.70
     Davidson diagonalization with overlap
     ethr =  6.00E-06,  avg # of iterations =  2.0

     total cpu time spent up to now is       45.8 secs

     total energy              =   -2246.26803396 Ry
     estimated scf accuracy    <       0.01291137 Ry

     iteration #  7     ecut=    80.00 Ry     beta= 0.70
     Davidson diagonalization with overlap
     ethr =  4.14E-06,  avg # of iterations =  1.0

     total cpu time spent up to now is       49.4 secs

     total energy              =   -2246.26693052 Ry
     estimated scf accuracy    <       0.00899556 Ry

     iteration #  8     ecut=    80.00 Ry     beta= 0.70
     Davidson diagonalization with overlap
     ethr =  2.88E-06,  avg # of iterations =  2.0

     negative rho (up, down):  4.255E-04 0.000E+00

     total cpu time spent up to now is       55.7 secs

     total energy              =   -2246.26542837 Ry
     estimated scf accuracy    <       0.00539898 Ry

     iteration #  9     ecut=    80.00 Ry     beta= 0.70
     Davidson diagonalization with overlap
     c_bands:  1 eigenvalues not converged
     ethr =  1.73E-06,  avg # of iterations = 20.0

     negative rho (up, down):  1.276E-02 0.000E+00

     total cpu time spent up to now is       62.4 secs

     total energy              =   -2246.26522825 Ry
     estimated scf accuracy    <       0.00285162 Ry

     iteration # 10     ecut=    80.00 Ry     beta= 0.70
     Davidson diagonalization with overlap
     ethr =  9.14E-07,  avg # of iterations =  1.0

     negative rho (up, down):  2.109E-02 0.000E+00

     total cpu time spent up to now is       68.5 secs

     total energy              =   -2246.26506932 Ry
     estimated scf accuracy    <       0.00151458 Ry

     iteration # 11     ecut=    80.00 Ry     beta= 0.70
     Davidson diagonalization with overlap
     ethr =  4.85E-07,  avg # of iterations =  2.0

     negative rho (up, down):  2.395E-02 0.000E+00

     total cpu time spent up to now is       75.8 secs

     total energy              =   -2246.26516900 Ry
     estimated scf accuracy    <       0.00062869 Ry

     iteration # 12     ecut=    80.00 Ry     beta= 0.70
     Davidson diagonalization with overlap
     ethr =  2.02E-07,  avg # of iterations =  2.0

     negative rho (up, down):  1.129E-02 0.000E+00

     total cpu time spent up to now is       83.5 secs

     total energy              =   -2246.26512190 Ry
     estimated scf accuracy    <       0.00013247 Ry

     iteration # 13     ecut=    80.00 Ry     beta= 0.70
     Davidson diagonalization with overlap
     ethr =  4.25E-08,  avg # of iterations =  2.0

     negative rho (up, down):  2.254E-03 0.000E+00

     total cpu time spent up to now is       92.4 secs

     total energy              =   -2246.26517462 Ry
     estimated scf accuracy    <       0.00002096 Ry

     iteration # 14     ecut=    80.00 Ry     beta= 0.70
     Davidson diagonalization with overlap
     ethr =  6.72E-09,  avg # of iterations =  6.0

     negative rho (up, down):  1.136E-03 0.000E+00

     total cpu time spent up to now is      101.8 secs

     total energy              =   -2246.26518329 Ry
     estimated scf accuracy    <       0.00000829 Ry

     iteration # 15     ecut=    80.00 Ry     beta= 0.70
     Davidson diagonalization with overlap
     ethr =  2.66E-09,  avg # of iterations =  2.0

     negative rho (up, down):  2.921E-04 0.000E+00

     total cpu time spent up to now is      108.7 secs

     total energy              =   -2246.26518282 Ry
     estimated scf accuracy    <       0.00000130 Ry

     iteration # 16     ecut=    80.00 Ry     beta= 0.70
     Davidson diagonalization with overlap
     ethr =  4.17E-10,  avg # of iterations =  4.0

     negative rho (up, down):  2.006E-04 0.000E+00

     total cpu time spent up to now is      112.4 secs

     End of self-consistent calculation

          k = 0.0000 0.0000 0.0000 (105382 PWs)   bands (ev):

   -62.9436 -62.9249 -62.9156 -62.9117 -62.9042 -62.9003 -62.8958 -62.8605
   -62.8554 -62.8313 -62.8203 -62.7876 -37.3138 -37.2532 -37.2169 -37.1901
   -37.1735 -37.1677 -37.1466 -37.1308 -37.1272 -37.1151 -37.1088 -37.1075
   -37.1046 -37.0931 -37.0876 -37.0746 -37.0594 -37.0558 -37.0466 -37.0444
   -37.0404 -37.0191 -37.0098 -37.0067 -36.9974 -36.9796 -36.9713 -36.9596
   -36.9532 -36.9291 -36.9158 -36.8966 -36.8810 -36.8536 -36.8223 -36.8058
   -22.9268 -15.9775 -15.1976 -15.1908 -15.0061 -14.9757 -14.7729 -14.5752
   -14.5350 -14.5149 -14.4629 -14.4214 -14.3899 -14.3522 -14.2884 -14.1894
   -14.1656 -14.1431 -14.0963 -13.9438 -13.9017 -13.8994 -13.8716 -13.6611
    -8.3910  -8.0720  -7.8174  -7.5452  -7.4639  -7.3199  -7.2821  -7.2479
    -7.1451  -7.0739  -7.0036  -6.8453  -6.8075  -6.7557  -6.6532  -6.6404
    -6.5579  -6.4610  -6.3981  -6.3196  -6.0815  -6.0515  -6.0225  -5.9165
    -5.8417  -5.8107  -5.7717  -5.7400  -5.7229  -5.6972  -5.6448  -5.5874
    -5.5600  -5.5524  -5.4317  -5.3250  -5.2864  -5.1524  -5.1363  -5.0899
    -4.9973  -4.9778  -4.9220  -4.9007  -4.7674  -4.6543  -4.4160  -4.4087
    -4.3320  -4.2560  -4.2093  -4.1800  -4.0861  -4.0052  -3.8589  -3.8297
    -3.8002  -3.7229  -3.7158  -3.6273  -3.6051  -3.5688  -3.5322  -3.4708
    -3.4623  -3.4135  -3.3678  -3.2668  -3.1792  -3.0827  -2.9914  -2.9026
    -2.8162  -2.7798  -2.7535  -2.7278  -2.7125  -2.6417  -2.4932  -2.3237
    -2.1383  -2.0596  -1.9814  -1.5318  -1.1156  -0.8328  -0.5134  -0.2231
    -0.1645  -0.1323  -0.0636  -0.0069   0.0842   0.1356   0.2002   0.2321
     0.2677   0.3449   0.3835   0.4202   0.4716   0.5079   0.5331   0.5608
     0.6214   0.6892   0.7277   0.7327   0.7650   0.7876   0.8641   0.8848
     0.9906   1.0943   1.2387

     the Fermi energy is    -1.3237 ev

!    total energy              =   -2246.26518358 Ry
     estimated scf accuracy    <       0.00000042 Ry
     smearing contrib. (-TS)   =      -0.00108732 Ry
     internal energy E=F+TS    =   -2246.26409626 Ry

     The total energy is F=E-TS. E is the sum of the following terms:
     one-electron contribution =  -18462.80014731 Ry
     hartree contribution      =    9219.59270764 Ry
     xc contribution           =    -392.16733174 Ry
     ewald contribution        =    7398.96924079 Ry
     one-center paw contrib.   =      -9.85856564 Ry

     convergence has been achieved in  16 iterations

     negative rho (up, down):  2.006E-04 0.000E+00

     Forces acting on atoms (cartesian axes, Ry/au):

     atom    1 type  1   force =     0.01235653   -0.03201812    0.00546193
     atom    2 type  2   force =     0.00597796    0.05272318   -0.02216618
     atom    3 type  2   force =    -0.00989444    0.00578867   -0.00240262
     atom    4 type  1   force =     0.00403713    0.00177334   -0.00037613
     atom    5 type  2   force =     0.00135331   -0.00790194   -0.00718522
     atom    6 type  2   force =     0.00118450    0.01155068   -0.00011880
     atom    7 type  1   force =     0.03497755   -0.01782298    0.00789827
     atom    8 type  2   force =     0.00405496   -0.00722607    0.01942841
     atom    9 type  2   force =     0.00828326    0.00257155    0.00700886
     atom   10 type  1   force =     0.01626368    0.00759071   -0.09550665
     atom   11 type  2   force =    -0.06121385   -0.02912075   -0.05777039
     atom   12 type  2   force =    -0.00121290    0.00124537    0.00562983
     atom   13 type  1   force =     0.00394444    0.00573450   -0.00690054
     atom   14 type  2   force =     0.00652849   -0.00032099    0.01505458
     atom   15 type  2   force =    -0.01150080    0.00309799   -0.01136309
     atom   16 type  1   force =    -0.00699681    0.01142132    0.00497839
     atom   17 type  2   force =     0.00669926    0.00192539    0.00069553
     atom   18 type  2   force =    -0.00183165   -0.00670975    0.01385782
     atom   19 type  1   force =     0.00634398   -0.00786274   -0.00607912
     atom   20 type  2   force =     0.00301983   -0.00331460   -0.00165539
     atom   21 type  1   force =     0.00666237    0.02473640    0.00904951
     atom   22 type  2   force =    -0.01259054   -0.00360375   -0.00236490
     atom   23 type  2   force =    -0.00500574   -0.00151261    0.00808782
     atom   24 type  1   force =    -0.00912043    0.00932653   -0.02162282
     atom   25 type  2   force =     0.01577090    0.01799451    0.00833105
     atom   26 type  2   force =    -0.00876245   -0.00192623   -0.00632188
     atom   27 type  1   force =    -0.00158402   -0.00144718    0.00679631
     atom   28 type  2   force =     0.00090432   -0.00160305   -0.00381673
     atom   29 type  2   force =     0.00223472    0.00082664   -0.00285517
     atom   30 type  1   force =    -0.00472660    0.01629868   -0.00808276
     atom   31 type  2   force =     0.00126286   -0.00079009    0.01691108
     atom   32 type  2   force =    -0.00895151    0.00658578    0.00874440
     atom   33 type  1   force =     0.01164832   -0.00512926   -0.01119616
     atom   34 type  2   force =     0.02563070   -0.04453909   -0.01867332
     atom   35 type  2   force =    -0.01226910    0.01151886    0.01649297
     atom   36 type  3   force =    -0.02347823   -0.01986088    0.13203111
     The non-local contrib.  to forces
     atom    1 type  1   force =     0.00390360    0.04161683   -0.00882073
     atom    2 type  2   force =    -0.00234662    0.05031248   -0.26574485
     atom    3 type  2   force =    -0.01854496   -0.00726752    0.27275943
     atom    4 type  1   force =     0.00200533    0.00138644    0.00411413
     atom    5 type  2   force =     0.00470936   -0.03480612   -0.25392596
     atom    6 type  2   force =     0.00044613    0.01299202    0.26237531
     atom    7 type  1   force =    -0.03652037    0.01042711   -0.02111996
     atom    8 type  2   force =    -0.00055755    0.00224467   -0.25661787
     atom    9 type  2   force =    -0.00351337   -0.00770869    0.28221882
     atom   10 type  1   force =     0.00250764   -0.00190010   -0.00220238
     atom   11 type  2   force =     0.25328798    0.23188872    0.11171445
     atom   12 type  2   force =    -0.01560687   -0.02151197    0.25745493
     atom   13 type  1   force =    -0.00413094    0.02208974   -0.00693721
     atom   14 type  2   force =     0.01192917   -0.01060187   -0.26595376
     atom   15 type  2   force =    -0.01572096   -0.00938736    0.26082782
     atom   16 type  1   force =     0.00454610    0.02796402   -0.02775277
     atom   17 type  2   force =     0.00262338   -0.02865603   -0.25027292
     atom   18 type  2   force =    -0.00228105   -0.00362802    0.27148272
     atom   19 type  1   force =     0.00147225   -0.00629252   -0.01525163
     atom   20 type  2   force =     0.00094518   -0.02177538    0.26629370
     atom   21 type  1   force =     0.00961448    0.00542684    0.01642319
     atom   22 type  2   force =    -0.02084748   -0.00516454   -0.25561233
     atom   23 type  2   force =     0.00701330   -0.01550144    0.26639183
     atom   24 type  1   force =     0.00298870    0.00709888   -0.00739701
     atom   25 type  2   force =     0.01117642    0.00711370   -0.25963198
     atom   26 type  2   force =     0.00093111   -0.01535588    0.26147406
     atom   27 type  1   force =    -0.00371869    0.00835777    0.01173502
     atom   28 type  2   force =    -0.00835282   -0.02122635   -0.27302261
     atom   29 type  2   force =     0.00566570    0.00451700    0.26212806
     atom   30 type  1   force =     0.00134217    0.01958803    0.00941374
     atom   31 type  2   force =    -0.00709982    0.00102182   -0.25485573
     atom   32 type  2   force =    -0.00154494   -0.00598872    0.27494679
     atom   33 type  1   force =    -0.00833238    0.00679446    0.00449112
     atom   34 type  2   force =     0.04961191   -0.05296528   -0.27505066
     atom   35 type  2   force =    -0.00912149   -0.00859561    0.27664228
     atom   36 type  3   force =    -1.32003935   -1.15073433   -1.28504550
     The ionic contribution  to forces
     atom    1 type  1   force =    -0.06062160    1.97632772    3.55993342
     atom    2 type  2   force =     0.50497183    3.34203609   37.85687515
     atom    3 type  2   force =    -0.04697017    0.33098755  -37.05584779
     atom    4 type  1   force =     0.23507737    0.42154913   -0.48709819
     atom    5 type  2   force =    -1.07852567    1.73904235   38.50242567
     atom    6 type  2   force =     0.30825325   -0.40523345  -38.58813495
     atom    7 type  1   force =    -3.22844896   -4.62943745   -0.07104540
     atom    8 type  2   force =    -0.72722275   -1.13639700   36.85949321
     atom    9 type  2   force =     0.39382766   -0.27053361  -38.69278174
     atom   10 type  1   force =     0.78392685    0.14248508   -0.96054339
     atom   11 type  2   force =    -5.54302602   -6.11037784   33.40547419
     atom   12 type  2   force =     0.31044978    0.55751480  -39.03107286
     atom   13 type  1   force =     0.16189002    1.64082209    1.66729032
     atom   14 type  2   force =    -1.04540971    1.05184702   37.89519294
     atom   15 type  2   force =    -0.03005618    0.15990197  -37.58433173
     atom   16 type  1   force =    -0.30395389    3.82854961   -0.56129091
     atom   17 type  2   force =     0.72044978    1.61400380   37.74524257
     atom   18 type  2   force =    -0.19505446   -0.59279837  -39.04192274
     atom   19 type  1   force =     2.33995576   -3.09697848   -0.67339300
     atom   20 type  2   force =     0.12579814   -0.37217178  -39.08284720
     atom   21 type  1   force =    -1.95950822    0.23962834   -1.97304355
     atom   22 type  2   force =    -0.12051280   -1.95260593   38.02259471
     atom   23 type  2   force =    -0.18742629    0.60798493  -38.98027402
     atom   24 type  1   force =     0.21886521    2.25715859    4.26629609
     atom   25 type  2   force =     1.01446833    0.71723677   38.96988394
     atom   26 type  2   force =    -0.20827129    0.21321207  -37.95432782
     atom   27 type  1   force =     0.15656467    0.32790854   -3.17407016
     atom   28 type  2   force =     0.24706980    1.19404523   37.99515642
     atom   29 type  2   force =    -0.19310026   -0.35177250  -37.78452701
     atom   30 type  1   force =     0.57162228   -2.05629442   -1.88380468
     atom   31 type  2   force =     1.38464371   -0.40767052   37.07801322
     atom   32 type  2   force =    -0.43351087   -0.13429845  -39.16624894
     atom   33 type  1   force =     1.48176309   -0.74944307    0.36992651
     atom   34 type  2   force =     2.54998834   -2.09412699   38.28918975
     atom   35 type  2   force =    -0.05916680    0.38471697  -38.71380337
     atom   36 type  3   force =     1.91120008    1.61318121   48.97742131
     The local contribution  to forces
     atom    1 type  1   force =     0.06915954   -2.05014660   -3.54620188
     atom    2 type  2   force =    -0.49627576   -3.33659142  -37.63435973
     atom    3 type  2   force =     0.05472572   -0.31824743   36.80130057
     atom    4 type  1   force =    -0.23297700   -0.42112501    0.48188732
     atom    5 type  2   force =     1.07573192   -1.71410183  -38.27615991
     atom    6 type  2   force =    -0.30765327    0.40490755   38.34598458
     atom    7 type  1   force =     3.29988300    4.60145272    0.09971383
     atom    8 type  2   force =     0.73158563    1.12695978  -36.60401905
     atom    9 type  2   force =    -0.38244578    0.28039790   38.43837587
     atom   10 type  1   force =    -0.77042667   -0.13310592    0.86682657
     atom   11 type  2   force =     5.24285794    5.86231796  -33.57546777
     atom   12 type  2   force =    -0.29734933   -0.53633142   38.79950282
     atom   13 type  1   force =    -0.15376960   -1.65725364   -1.66789463
     atom   14 type  2   force =     1.04067580   -1.04181380  -37.63506709
     atom   15 type  2   force =     0.03347726   -0.14800782   37.33226734
     atom   16 type  1   force =     0.29246293   -3.84492408    0.59335936
     atom   17 type  2   force =    -0.71633733   -1.58499217  -37.51459815
     atom   18 type  2   force =     0.19549381    0.59017219   38.80472556
     atom   19 type  1   force =    -2.33489804    3.09547786    0.68199726
     atom   20 type  2   force =    -0.12377480    0.38985590   38.83566580
     atom   21 type  1   force =     1.95681219   -0.22044087    1.96524471
     atom   22 type  2   force =     0.12814809    1.95419134  -37.78977397
     atom   23 type  2   force =     0.17596158   -0.59534172   38.74236416
     atom   24 type  1   force =    -0.23108795   -2.25501401   -4.28113455
     atom   25 type  2   force =    -1.00966821   -0.70586127  -38.72266013
     atom   26 type  2   force =     0.19893938   -0.20060598   37.70684432
     atom   27 type  1   force =    -0.15452645   -0.33773209    3.16833830
     atom   28 type  2   force =    -0.23830934   -1.17606119  -37.74694066
     atom   29 type  2   force =     0.19016395    0.34883481   37.53957494
     atom   30 type  1   force =    -0.57783511    2.05311024    1.86570122
     atom   31 type  2   force =    -1.37671960    0.40583601  -36.82693369
     atom   32 type  2   force =     0.42628019    0.14649016   38.92067924
     atom   33 type  1   force =    -1.46180765    0.73748655   -0.38620693
     atom   34 type  2   force =    -2.57172732    2.10048584  -38.05440067
     atom   35 type  2   force =     0.05572432   -0.36544159   38.47458310
     atom   36 type  3   force =    -0.62913651   -0.49496056  -47.57363410
     The core correction contribution to forces
     atom    1 type  1   force =     0.00000000    0.00000000    0.00000000
     atom    2 type  2   force =    -0.00042029   -0.00313493    0.02098236
     atom    3 type  2   force =     0.00086993    0.00026502   -0.02099397
     atom    4 type  1   force =     0.00000000    0.00000000    0.00000000
     atom    5 type  2   force =    -0.00053909    0.00191832    0.02043115
     atom    6 type  2   force =     0.00017018   -0.00115592   -0.02083914
     atom    7 type  1   force =     0.00000000    0.00000000    0.00000000
     atom    8 type  2   force =     0.00020134    0.00010031    0.02050206
     atom    9 type  2   force =     0.00041939    0.00043853   -0.02123416
     atom   10 type  1   force =     0.00000000    0.00000000    0.00000000
     atom   11 type  2   force =    -0.01431569   -0.01295317    0.00039289
     atom   12 type  2   force =     0.00133298    0.00159699   -0.02059389
     atom   13 type  1   force =     0.00000000    0.00000000    0.00000000
     atom   14 type  2   force =    -0.00060955    0.00015816    0.02083581
     atom   15 type  2   force =     0.00081332    0.00057467   -0.02056005
     atom   16 type  1   force =     0.00000000    0.00000000    0.00000000
     atom   17 type  2   force =    -0.00004635    0.00151670    0.02027445
     atom   18 type  2   force =    -0.00002462   -0.00049887   -0.02093156
     atom   19 type  1   force =     0.00000000    0.00000000    0.00000000
     atom   20 type  2   force =     0.00007434    0.00081646   -0.02122986
     atom   21 type  1   force =     0.00000000    0.00000000    0.00000000
     atom   22 type  2   force =     0.00069146   -0.00001136    0.02038646
     atom   23 type  2   force =    -0.00055246    0.00136260   -0.02082848
     atom   24 type  1   force =     0.00000000    0.00000000    0.00000000
     atom   25 type  2   force =    -0.00021666   -0.00055072    0.02068299
     atom   26 type  2   force =    -0.00036513    0.00080878   -0.02076374
     atom   27 type  1   force =     0.00000000    0.00000000    0.00000000
     atom   28 type  2   force =     0.00046823    0.00162134    0.02089845
     atom   29 type  2   force =    -0.00050213   -0.00076567   -0.02048914
     atom   30 type  1   force =     0.00000000    0.00000000    0.00000000
     atom   31 type  2   force =     0.00041703    0.00008457    0.02061273
     atom   32 type  2   force =    -0.00020703    0.00038288   -0.02109799
     atom   33 type  1   force =     0.00000000    0.00000000    0.00000000
     atom   34 type  2   force =    -0.00233270    0.00207511    0.02152538
     atom   35 type  2   force =     0.00024435    0.00085402   -0.02132237
     atom   36 type  3   force =     0.01434671    0.01249088    0.01297731
     The Hubbard contrib.    to forces
     atom    1 type  1   force =     0.00000000    0.00000000    0.00000000
     atom    2 type  2   force =     0.00000000    0.00000000    0.00000000
     atom    3 type  2   force =     0.00000000    0.00000000    0.00000000
     atom    4 type  1   force =     0.00000000    0.00000000    0.00000000
     atom    5 type  2   force =     0.00000000    0.00000000    0.00000000
     atom    6 type  2   force =     0.00000000    0.00000000    0.00000000
     atom    7 type  1   force =     0.00000000    0.00000000    0.00000000
     atom    8 type  2   force =     0.00000000    0.00000000    0.00000000
     atom    9 type  2   force =     0.00000000    0.00000000    0.00000000
     atom   10 type  1   force =     0.00000000    0.00000000    0.00000000
     atom   11 type  2   force =     0.00000000    0.00000000    0.00000000
     atom   12 type  2   force =     0.00000000    0.00000000    0.00000000
     atom   13 type  1   force =     0.00000000    0.00000000    0.00000000
     atom   14 type  2   force =     0.00000000    0.00000000    0.00000000
     atom   15 type  2   force =     0.00000000    0.00000000    0.00000000
     atom   16 type  1   force =     0.00000000    0.00000000    0.00000000
     atom   17 type  2   force =     0.00000000    0.00000000    0.00000000
     atom   18 type  2   force =     0.00000000    0.00000000    0.00000000
     atom   19 type  1   force =     0.00000000    0.00000000    0.00000000
     atom   20 type  2   force =     0.00000000    0.00000000    0.00000000
     atom   21 type  1   force =     0.00000000    0.00000000    0.00000000
     atom   22 type  2   force =     0.00000000    0.00000000    0.00000000
     atom   23 type  2   force =     0.00000000    0.00000000    0.00000000
     atom   24 type  1   force =     0.00000000    0.00000000    0.00000000
     atom   25 type  2   force =     0.00000000    0.00000000    0.00000000
     atom   26 type  2   force =     0.00000000    0.00000000    0.00000000
     atom   27 type  1   force =     0.00000000    0.00000000    0.00000000
     atom   28 type  2   force =     0.00000000    0.00000000    0.00000000
     atom   29 type  2   force =     0.00000000    0.00000000    0.00000000
     atom   30 type  1   force =     0.00000000    0.00000000    0.00000000
     atom   31 type  2   force =     0.00000000    0.00000000    0.00000000
     atom   32 type  2   force =     0.00000000    0.00000000    0.00000000
     atom   33 type  1   force =     0.00000000    0.00000000    0.00000000
     atom   34 type  2   force =     0.00000000    0.00000000    0.00000000
     atom   35 type  2   force =     0.00000000    0.00000000    0.00000000
     atom   36 type  3   force =     0.00000000    0.00000000    0.00000000
     The SCF correction term to forces
     atom    1 type  1   force =    -0.00008680    0.00018407    0.00054085
     atom    2 type  2   force =     0.00004702    0.00010110    0.00007061
     atom    3 type  2   force =     0.00002326    0.00005119    0.00036888
     atom    4 type  1   force =    -0.00007034   -0.00003708    0.00071033
     atom    5 type  2   force =    -0.00002498    0.00004548    0.00003356
     atom    6 type  2   force =    -0.00003356    0.00004062    0.00048511
     atom    7 type  1   force =     0.00006210   -0.00026522    0.00033952
     atom    8 type  2   force =     0.00004651   -0.00013369    0.00005978
     atom    9 type  2   force =    -0.00000641   -0.00002243    0.00041979
     atom   10 type  1   force =     0.00025408    0.00011180    0.00040227
     atom   11 type  2   force =    -0.00001983    0.00000371    0.00010558
     atom   12 type  2   force =    -0.00004123   -0.00002288    0.00032855
     atom   13 type  1   force =    -0.00004681    0.00007645    0.00063070
     atom   14 type  2   force =    -0.00005898    0.00008965    0.00003641
     atom   15 type  2   force =    -0.00001602    0.00001667    0.00042326
     atom   16 type  1   force =    -0.00005374   -0.00016809    0.00065243
     atom   17 type  2   force =     0.00000801    0.00005323    0.00003931
     atom   18 type  2   force =     0.00003289    0.00004347    0.00049356
     atom   19 type  1   force =    -0.00018776   -0.00006946    0.00055798
     atom   20 type  2   force =    -0.00002481   -0.00003967    0.00045189
     atom   21 type  1   force =    -0.00025786    0.00012224    0.00041488
     atom   22 type  2   force =    -0.00007159   -0.00001312    0.00002995
     atom   23 type  2   force =    -0.00000365   -0.00001685    0.00042405
     atom   24 type  1   force =     0.00011183    0.00008321    0.00060238
     atom   25 type  2   force =     0.00000925    0.00005617    0.00004595
     atom   26 type  2   force =     0.00000171    0.00001491    0.00044102
     atom   27 type  1   force =     0.00009467    0.00001874    0.00078288
     atom   28 type  2   force =     0.00002667    0.00001807    0.00008140
     atom   29 type  2   force =     0.00000568    0.00001314    0.00044772
     atom   30 type  1   force =     0.00014227   -0.00010503    0.00059669
     atom   31 type  2   force =     0.00001976   -0.00006183    0.00006427
     atom   32 type  2   force =     0.00002937    0.00000006    0.00045502
     atom   33 type  1   force =     0.00002348    0.00003294    0.00058286
     atom   34 type  2   force =     0.00008869   -0.00000763    0.00005261
     atom   35 type  2   force =     0.00004875   -0.00001480    0.00038305
     atom   36 type  3   force =     0.00014906    0.00016205    0.00030182

     Total force =     0.226585     Total SCF correction =     0.002637

     BFGS Geometry Optimization
     Energy error            =      0.0E+00 Ry
     Gradient error          =      1.3E-01 Ry/Bohr

     number of scf cycles    =   1
     number of bfgs steps    =   0

     energy             new  =   -2246.2651835777 Ry

     new trust radius        =       0.1355650951 bohr
     new conv_thr            =       0.0000010000 Ry


ATOMIC_POSITIONS (angstrom)
Mo            6.5810872009        1.7708629681        2.8265333621
S             8.1798727368        0.8376039275        4.4228085151
S             8.1879971751        0.8143049767        1.2766120164
Mo            8.0972989242        4.4959953571        2.7176193517
S             6.5006253969        3.7182299594        4.3428583933
S             6.5539766091        3.5178499103        1.1212173608
Mo            6.5084910196        7.2090057670        2.6760640690
S             8.0838735195        6.3400471217        4.2527426329
S             8.0853009611        6.3060631234        1.0875719271
Mo            8.1692254178        9.9061972457        2.7929218205
S             6.4627746229        8.9275167753        4.3525347601
S             6.6173053611        9.0493702350        1.1428864803
Mo            3.4237469728        1.7499904177        2.7728195546
S             4.9786202192        0.8167713506        4.3584996354
S             5.0517477914        0.8479014964        1.2206453733
Mo            4.9760541273        4.5192219070        2.6355189983
S             3.4313867593        3.6726185557        4.2800776389
S             3.4369513144        3.5446780530        1.0656849256
Mo            3.4572188317        7.2121637557        2.6274599288
S             4.9848322170        6.3251782724        1.0363777354
Mo            5.0157894970        9.9146899930        2.7481897570
S             3.4642954878        8.9418442440        4.3243398600
S             3.4057802414        9.0641895429        1.1003481887
Mo            0.2912641627        1.7524449180        2.8380024067
S             1.8588078145        0.8022162903        4.4026180407
S             1.8561631438        0.8534065995        1.2060554586
Mo            1.8598530809        4.4949009468        2.6637938330
S             0.2726923946        3.6535505310        4.3355643743
S             0.2324137705        3.5276866676        1.1705069952
Mo            0.2686509428        7.2252709833        2.6974192146
S             1.9029065224        6.3123807362        4.2313930807
S             1.8575012769        6.3138288565        1.0491866179
Mo            1.8505106870        9.9374248652        2.7670214977
S             0.3094760826        9.0664287541        4.4039879701
S             0.2702788727        9.0496212330        1.1591284831
O             7.3428336340        9.7040678513        5.4193125617



     Writing config-only to output data dir ./MoS2-V-O.save/
     NEW-OLD atomic charge density approx. for the potential

     negative rho (up, down):  1.470E-04 0.000E+00

     total cpu time spent up to now is      119.7 secs

     Self-consistent Calculation

     iteration #  1     ecut=    80.00 Ry     beta= 0.70
     Davidson diagonalization with overlap
     ethr =  1.00E-06,  avg # of iterations =  9.0

     negative rho (up, down):  9.428E-04 0.000E+00

     total cpu time spent up to now is      135.6 secs

     total energy              =   -2246.29856503 Ry
     estimated scf accuracy    <       0.00894743 Ry

     iteration #  2     ecut=    80.00 Ry     beta= 0.70
     Davidson diagonalization with overlap
     ethr =  2.87E-06,  avg # of iterations =  4.0

     negative rho (up, down):  1.676E-03 0.000E+00

     total cpu time spent up to now is      149.7 secs

     total energy              =   -2246.29878527 Ry
     estimated scf accuracy    <       0.00228676 Ry

     iteration #  3     ecut=    80.00 Ry     beta= 0.70
     Davidson diagonalization with overlap
     ethr =  7.33E-07,  avg # of iterations =  3.0

     negative rho (up, down):  2.552E-03 0.000E+00

     total cpu time spent up to now is      164.6 secs

     total energy              =   -2246.29883091 Ry
     estimated scf accuracy    <       0.00085846 Ry

     iteration #  4     ecut=    80.00 Ry     beta= 0.70
     Davidson diagonalization with overlap
     ethr =  2.75E-07,  avg # of iterations =  2.0

     negative rho (up, down):  2.615E-03 0.000E+00

     total cpu time spent up to now is      176.1 secs

     total energy              =   -2246.29887589 Ry
     estimated scf accuracy    <       0.00021715 Ry

     iteration #  5     ecut=    80.00 Ry     beta= 0.70
     Davidson diagonalization with overlap
     ethr =  6.96E-08,  avg # of iterations =  5.0

     negative rho (up, down):  2.415E-03 0.000E+00

     total cpu time spent up to now is      186.1 secs

     total energy              =   -2246.29889078 Ry
     estimated scf accuracy    <       0.00005166 Ry

     iteration #  6     ecut=    80.00 Ry     beta= 0.70
     Davidson diagonalization with overlap
     ethr =  1.66E-08,  avg # of iterations =  5.0

     negative rho (up, down):  2.009E-03 0.000E+00

     total cpu time spent up to now is      196.5 secs

     total energy              =   -2246.29889550 Ry
     estimated scf accuracy    <       0.00001177 Ry

     iteration #  7     ecut=    80.00 Ry     beta= 0.70
     Davidson diagonalization with overlap
     ethr =  3.77E-09,  avg # of iterations =  5.0

     negative rho (up, down):  1.409E-03 0.000E+00

     total cpu time spent up to now is      206.9 secs

     total energy              =   -2246.29889313 Ry
     estimated scf accuracy    <       0.00000463 Ry

     iteration #  8     ecut=    80.00 Ry     beta= 0.70
     Davidson diagonalization with overlap
     ethr =  1.48E-09,  avg # of iterations =  3.0

     negative rho (up, down):  9.652E-04 0.000E+00

     total cpu time spent up to now is      217.3 secs

     total energy              =   -2246.29889120 Ry
     estimated scf accuracy    <       0.00000158 Ry

     iteration #  9     ecut=    80.00 Ry     beta= 0.70
     Davidson diagonalization with overlap
     ethr =  5.07E-10,  avg # of iterations =  2.0

     negative rho (up, down):  1.980E-04 0.000E+00

     total cpu time spent up to now is      220.7 secs

     End of self-consistent calculation

          k = 0.0000 0.0000 0.0000 (105382 PWs)   bands (ev):

   -62.9811 -62.9616 -62.9590 -62.9458 -62.9431 -62.9263 -62.8927 -62.8901
   -62.8765 -62.8603 -62.8527 -62.8409 -37.3549 -37.2943 -37.2425 -37.2247
   -37.2052 -37.1945 -37.1737 -37.1655 -37.1604 -37.1487 -37.1426 -37.1389
   -37.1248 -37.1226 -37.1033 -37.0960 -37.0886 -37.0876 -37.0807 -37.0772
   -37.0734 -37.0475 -37.0446 -37.0383 -37.0265 -37.0118 -37.0109 -37.0078
   -36.9788 -36.9629 -36.9467 -36.9278 -36.9132 -36.8901 -36.8559 -36.8523
   -21.7317 -16.0137 -15.2384 -15.2225 -15.0380 -15.0032 -14.8056 -14.5826
   -14.5556 -14.5499 -14.5009 -14.4598 -14.4258 -14.3877 -14.3261 -14.2078
   -14.2023 -14.1804 -14.1293 -13.9602 -13.9387 -13.9298 -13.9044 -13.7911
    -8.0627  -7.8455  -7.6389  -7.5452  -7.4451  -7.3563  -7.2973  -7.2934
    -7.1777  -7.0527  -6.9764  -6.8779  -6.8266  -6.7897  -6.6728  -6.6424
    -6.5872  -6.4827  -6.4253  -6.3453  -6.0901  -6.0689  -6.0598  -5.9284
    -5.8767  -5.8417  -5.8042  -5.7661  -5.7575  -5.7278  -5.6862  -5.6077
    -5.5952  -5.5539  -5.4527  -5.3296  -5.2920  -5.1688  -5.1336  -5.1230
    -5.0361  -5.0101  -4.9487  -4.9026  -4.7812  -4.6636  -4.4263  -4.4193
    -4.3320  -4.2997  -4.2474  -4.2008  -4.1030  -4.0160  -3.8880  -3.8562
    -3.8182  -3.7492  -3.7375  -3.6506  -3.6399  -3.5952  -3.5720  -3.4972
    -3.4937  -3.4440  -3.3752  -3.2948  -3.1611  -3.0944  -3.0052  -2.9380
    -2.8631  -2.8181  -2.7967  -2.7748  -2.7419  -2.6780  -2.5124  -2.3571
    -2.1749  -2.0970  -2.0206  -1.6032  -1.1339  -0.8674  -0.5178  -0.2376
    -0.1903  -0.1684  -0.0900  -0.0120   0.0628   0.0988   0.1748   0.2099
     0.2471   0.3278   0.3543   0.4024   0.4462   0.4862   0.5102   0.5535
     0.5831   0.6566   0.6738   0.7044   0.7325   0.7631   0.8426   0.8981
     0.9433   1.0525   1.2286

     the Fermi energy is    -1.3686 ev

!    total energy              =   -2246.29888862 Ry
     estimated scf accuracy    <       0.00000061 Ry
     smearing contrib. (-TS)   =      -0.00057653 Ry
     internal energy E=F+TS    =   -2246.29831209 Ry

     The total energy is F=E-TS. E is the sum of the following terms:
     one-electron contribution =  -18454.35128525 Ry
     hartree contribution      =    9215.10345716 Ry
     xc contribution           =    -392.08844098 Ry
     ewald contribution        =    7394.90090367 Ry
     one-center paw contrib.   =      -9.86294669 Ry

     convergence has been achieved in   9 iterations

     negative rho (up, down):  1.980E-04 0.000E+00

     Forces acting on atoms (cartesian axes, Ry/au):

     atom    1 type  1   force =     0.00284231   -0.01549617   -0.00109139
     atom    2 type  2   force =     0.00203409    0.02174134   -0.01759182
     atom    3 type  2   force =    -0.00771403    0.01105157   -0.01560499
     atom    4 type  1   force =     0.00467108    0.00264090    0.00078342
     atom    5 type  2   force =     0.00091858   -0.00833464   -0.00671119
     atom    6 type  2   force =    -0.00046499    0.00752507    0.00278378
     atom    7 type  1   force =     0.01538832   -0.01701799    0.00046961
     atom    8 type  2   force =     0.00746210   -0.00622599    0.01687390
     atom    9 type  2   force =     0.01019710    0.00149527    0.00264692
     atom   10 type  1   force =     0.00824400    0.00729903   -0.03507572
     atom   11 type  2   force =     0.02667055    0.03485938    0.02222854
     atom   12 type  2   force =    -0.00431850   -0.00105940   -0.00179339
     atom   13 type  1   force =     0.00488169    0.00238199   -0.00288202
     atom   14 type  2   force =     0.00544374    0.00108297    0.01242071
     atom   15 type  2   force =    -0.00817848    0.00373530   -0.00988043
     atom   16 type  1   force =    -0.00077287    0.00757915    0.00409231
     atom   17 type  2   force =     0.00538956    0.00165503    0.00163909
     atom   18 type  2   force =    -0.00137511   -0.00386224    0.01072748
     atom   19 type  1   force =     0.00473747   -0.00506744   -0.00040739
     atom   20 type  2   force =     0.00578419   -0.00211288   -0.00136739
     atom   21 type  1   force =    -0.00441363    0.01522972    0.00316566
     atom   22 type  2   force =    -0.00859858   -0.00237883   -0.00506006
     atom   23 type  2   force =    -0.00072177   -0.00187946    0.00515546
     atom   24 type  1   force =    -0.00259945    0.00674097   -0.01380251
     atom   25 type  2   force =     0.01050001    0.01430602    0.00070228
     atom   26 type  2   force =    -0.00580354   -0.00079820   -0.00663469
     atom   27 type  1   force =    -0.00155825    0.00049647    0.00630042
     atom   28 type  2   force =     0.00034395   -0.00126904   -0.00384048
     atom   29 type  2   force =     0.00205872    0.00317582   -0.00435909
     atom   30 type  1   force =    -0.00146432    0.00543886    0.00146368
     atom   31 type  2   force =     0.00050660   -0.00020689    0.01047262
     atom   32 type  2   force =    -0.00713004    0.00531481    0.00671433
     atom   33 type  1   force =     0.00617863   -0.00241122   -0.00218515
     atom   34 type  2   force =     0.00833376   -0.02963879   -0.02336882
     atom   35 type  2   force =    -0.00240163    0.00874093    0.00059504
     atom   36 type  3   force =    -0.07507129   -0.06473144    0.04242131
     The non-local contrib.  to forces
     atom    1 type  1   force =     0.00674147    0.03412409   -0.00894683
     atom    2 type  2   force =    -0.00587963    0.02821261   -0.26515180
     atom    3 type  2   force =    -0.01473718   -0.00599349    0.26421243
     atom    4 type  1   force =     0.00345379    0.00197891    0.00356854
     atom    5 type  2   force =     0.00439102   -0.03558633   -0.25660437
     atom    6 type  2   force =    -0.00072083    0.00909564    0.26636367
     atom    7 type  1   force =    -0.03124050    0.01015713   -0.02220153
     atom    8 type  2   force =     0.00304383    0.00240950   -0.25742853
     atom    9 type  2   force =    -0.00091672   -0.00962096    0.27810716
     atom   10 type  1   force =     0.00598691    0.00057526    0.00430765
     atom   11 type  2   force =     0.29135888    0.25017899    0.17307685
     atom   12 type  2   force =    -0.01556506   -0.02091087    0.25725684
     atom   13 type  1   force =    -0.00251233    0.02289363   -0.00693347
     atom   14 type  2   force =     0.00935198   -0.00774410   -0.26745661
     atom   15 type  2   force =    -0.01326357   -0.00872004    0.25991183
     atom   16 type  1   force =     0.00295014    0.02668860   -0.02992970
     atom   17 type  2   force =     0.00154321   -0.02788100   -0.24972615
     atom   18 type  2   force =    -0.00158251   -0.00142747    0.27006397
     atom   19 type  1   force =    -0.00046838   -0.00481960   -0.01520877
     atom   20 type  2   force =     0.00301659   -0.01992070    0.26728451
     atom   21 type  1   force =     0.00860042    0.00830041    0.01339360
     atom   22 type  2   force =    -0.01424568   -0.00223259   -0.26011667
     atom   23 type  2   force =     0.01083168   -0.01596403    0.26536076
     atom   24 type  1   force =    -0.00000556    0.00881311   -0.00688691
     atom   25 type  2   force =     0.00759025    0.00427080   -0.26520482
     atom   26 type  2   force =     0.00293265   -0.01466107    0.26148082
     atom   27 type  1   force =    -0.00477462    0.00741415    0.01099611
     atom   28 type  2   force =    -0.00844839   -0.01971414   -0.27439040
     atom   29 type  2   force =     0.00481087    0.00571592    0.26154482
     atom   30 type  1   force =     0.00038039    0.02162477    0.00804362
     atom   31 type  2   force =    -0.00735714    0.00203763   -0.26075551
     atom   32 type  2   force =     0.00074877   -0.00662868    0.27492326
     atom   33 type  1   force =    -0.00941992    0.00516587    0.00450982
     atom   34 type  2   force =     0.03498442   -0.04068693   -0.28056234
     atom   35 type  2   force =    -0.00265268   -0.00994397    0.26688087
     atom   36 type  3   force =    -1.19262214   -1.02552887   -1.25187115
     The ionic contribution  to forces
     atom    1 type  1   force =    -0.34544881    2.28890723    3.76173707
     atom    2 type  2   force =     0.53259143    2.69263781   37.85423331
     atom    3 type  2   force =    -0.06061200    0.52967181  -37.18568140
     atom    4 type  1   force =     0.13975897    0.34231108   -0.42189610
     atom    5 type  2   force =    -1.10244156    1.69489069   38.39940694
     atom    6 type  2   force =     0.23586727   -0.45002992  -38.46029911
     atom    7 type  1   force =    -3.53821779   -4.41819414    0.16894440
     atom    8 type  2   force =    -0.65878904   -1.08100703   37.07749744
     atom    9 type  2   force =     0.38604789   -0.34142977  -38.72666618
     atom   10 type  1   force =     0.52020649    0.14165124   -1.78451679
     atom   11 type  2   force =    -4.55739218   -5.33320040   33.47198786
     atom   12 type  2   force =     0.01372469    0.39309612  -38.97064561
     atom   13 type  1   force =     0.14582592    1.56165726    1.62995500
     atom   14 type  2   force =    -1.06045475    1.07885461   38.04624885
     atom   15 type  2   force =    -0.04326142    0.21180586  -37.65536858
     atom   16 type  1   force =    -0.15901403    3.68307176   -0.38641337
     atom   17 type  2   force =     0.72347951    1.57123169   37.77822378
     atom   18 type  2   force =    -0.16651872   -0.53984637  -38.97327777
     atom   19 type  1   force =     2.45790339   -2.97878680   -0.76509237
     atom   20 type  2   force =     0.15740176   -0.30434292  -39.06477349
     atom   21 type  1   force =    -2.01810971    0.02541179   -1.64548159
     atom   22 type  2   force =    -0.08445110   -1.94431463   37.98287329
     atom   23 type  2   force =    -0.06385268    0.56846197  -38.89377439
     atom   24 type  1   force =     0.50000804    2.02983568    4.00095302
     atom   25 type  2   force =     0.85768885    0.63044401   38.95119834
     atom   26 type  2   force =    -0.13933467    0.22324680  -37.91971543
     atom   27 type  1   force =     0.17257772    0.43491113   -2.93209598
     atom   28 type  2   force =     0.25749941    1.14885106   38.02557004
     atom   29 type  2   force =    -0.17073547   -0.26860540  -37.83275854
     atom   30 type  1   force =     0.70099622   -2.26913860   -1.84923109
     atom   31 type  2   force =     1.36747571   -0.37292460   37.13404307
     atom   32 type  2   force =    -0.39388229   -0.17900480  -39.09461885
     atom   33 type  1   force =     1.45521750   -0.48217570    0.47386898
     atom   34 type  2   force =     2.11980139   -1.76848505   38.21322664
     atom   35 type  2   force =     0.17225444    0.28903855  -38.76232100
     atom   36 type  3   force =     1.64618961    1.19149795   48.35465961
     The local contribution  to forces
     atom    1 type  1   force =     0.34190751   -2.33878894   -3.75327744
     atom    2 type  2   force =    -0.52454698   -2.69659370  -37.62740697
     atom    3 type  2   force =     0.06696572   -0.51311552   36.92670571
     atom    4 type  1   force =    -0.13830837   -0.34172626    0.41954876
     atom    5 type  2   force =     1.09953760   -1.66956786  -38.16956351
     atom    6 type  2   force =    -0.23577821    0.44951755   38.21749734
     atom    7 type  1   force =     3.58521080    4.39077650   -0.14592010
     atom    8 type  2   force =     0.66312995    1.07221900  -36.82351214
     atom    9 type  2   force =    -0.37519274    0.35209678   38.47234685
     atom   10 type  1   force =    -0.51782509   -0.13483315    1.74500602
     atom   11 type  2   force =     4.30930030    5.13217669  -33.61920092
     atom   12 type  2   force =    -0.00330184   -0.37455561   38.73209159
     atom   13 type  1   force =    -0.13854423   -1.58183874   -1.62551125
     atom   14 type  2   force =     1.05712335   -1.07002472  -37.78701442
     atom   15 type  2   force =     0.04768865   -0.19989622   37.40608895
     atom   16 type  1   force =     0.15499607   -3.70221003    0.42075761
     atom   17 type  2   force =    -0.71970810   -1.54308923  -37.54678197
     atom   18 type  2   force =     0.16673588    0.53801980   38.73483979
     atom   19 type  1   force =    -2.45307234    2.97825990    0.78013225
     atom   20 type  2   force =    -0.15474425    0.32123589   38.81724835
     atom   21 type  1   force =     2.00527436   -0.01808183    1.63569358
     atom   22 type  2   force =     0.08958832    1.94432124  -37.74797395
     atom   23 type  2   force =     0.05280459   -0.55579145   38.65420449
     atom   24 type  1   force =    -0.50289029   -2.03167077   -4.00746719
     atom   25 type  2   force =    -0.85464904   -0.61987457  -38.70567236
     atom   26 type  2   force =     0.13097743   -0.21011546   37.67225339
     atom   27 type  1   force =    -0.16932865   -0.44199240    2.92785143
     atom   28 type  2   force =    -0.24913364   -1.13189558  -37.77568786
     atom   29 type  2   force =     0.16845829    0.26680157   37.58738949
     atom   30 type  1   force =    -0.70289634    2.25311777    1.84294409
     atom   31 type  2   force =    -1.36002141    0.37050129  -36.88321904
     atom   32 type  2   force =     0.38634119    0.19054683   38.84744082
     atom   33 type  1   force =    -1.43990556    0.47435682   -0.48032972
     atom   34 type  2   force =    -2.14447623    1.77777665  -37.97750695
     atom   35 type  2   force =    -0.17223635   -0.27116909   38.51717978
     atom   36 type  3   force =    -0.54186187   -0.24205716  -47.07310220
     The core correction contribution to forces
     atom    1 type  1   force =     0.00000000    0.00000000    0.00000000
     atom    2 type  2   force =    -0.00018448   -0.00242841    0.02105180
     atom    3 type  2   force =     0.00067361    0.00040924   -0.02077789
     atom    4 type  1   force =     0.00000000    0.00000000    0.00000000
     atom    5 type  2   force =    -0.00053030    0.00189730    0.02049389
     atom    6 type  2   force =     0.00019227   -0.00104320   -0.02090284
     atom    7 type  1   force =     0.00000000    0.00000000    0.00000000
     atom    8 type  2   force =     0.00013771    0.00010073    0.02063058
     atom    9 type  2   force =     0.00031798    0.00046983   -0.02116258
     atom   10 type  1   force =     0.00000000    0.00000000    0.00000000
     atom   11 type  2   force =    -0.01644236   -0.01421006   -0.00319284
     atom   12 type  2   force =     0.00104886    0.00141222   -0.02061416
     atom   13 type  1   force =     0.00000000    0.00000000    0.00000000
     atom   14 type  2   force =    -0.00051415    0.00006958    0.02100402
     atom   15 type  2   force =     0.00070803    0.00059665   -0.02056320
     atom   16 type  1   force =     0.00000000    0.00000000    0.00000000
     atom   17 type  2   force =    -0.00000497    0.00143629    0.02027835
     atom   18 type  2   force =    -0.00006125   -0.00057300   -0.02092515
     atom   19 type  1   force =     0.00000000    0.00000000    0.00000000
     atom   20 type  2   force =     0.00004925    0.00078851   -0.02127265
     atom   21 type  1   force =     0.00000000    0.00000000    0.00000000
     atom   22 type  2   force =     0.00039607   -0.00017020    0.02058730
     atom   23 type  2   force =    -0.00064300    0.00138327   -0.02078886
     atom   24 type  1   force =     0.00000000    0.00000000    0.00000000
     atom   25 type  2   force =    -0.00013140   -0.00042918    0.02082822
     atom   26 type  2   force =    -0.00043358    0.00077345   -0.02073381
     atom   27 type  1   force =     0.00000000    0.00000000    0.00000000
     atom   28 type  2   force =     0.00046595    0.00149948    0.02100764
     atom   29 type  2   force =    -0.00044705   -0.00075713   -0.02051041
     atom   30 type  1   force =     0.00000000    0.00000000    0.00000000
     atom   31 type  2   force =     0.00038096    0.00008203    0.02079955
     atom   32 type  2   force =    -0.00034085    0.00037394   -0.02110293
     atom   33 type  1   force =     0.00000000    0.00000000    0.00000000
     atom   34 type  2   force =    -0.00196142    0.00168220    0.02181484
     atom   35 type  2   force =     0.00013842    0.00083278   -0.02109005
     atom   36 type  3   force =     0.01334526    0.01147270    0.01317862
     The Hubbard contrib.    to forces
     atom    1 type  1   force =     0.00000000    0.00000000    0.00000000
     atom    2 type  2   force =     0.00000000    0.00000000    0.00000000
     atom    3 type  2   force =     0.00000000    0.00000000    0.00000000
     atom    4 type  1   force =     0.00000000    0.00000000    0.00000000
     atom    5 type  2   force =     0.00000000    0.00000000    0.00000000
     atom    6 type  2   force =     0.00000000    0.00000000    0.00000000
     atom    7 type  1   force =     0.00000000    0.00000000    0.00000000
     atom    8 type  2   force =     0.00000000    0.00000000    0.00000000
     atom    9 type  2   force =     0.00000000    0.00000000    0.00000000
     atom   10 type  1   force =     0.00000000    0.00000000    0.00000000
     atom   11 type  2   force =     0.00000000    0.00000000    0.00000000
     atom   12 type  2   force =     0.00000000    0.00000000    0.00000000
     atom   13 type  1   force =     0.00000000    0.00000000    0.00000000
     atom   14 type  2   force =     0.00000000    0.00000000    0.00000000
     atom   15 type  2   force =     0.00000000    0.00000000    0.00000000
     atom   16 type  1   force =     0.00000000    0.00000000    0.00000000
     atom   17 type  2   force =     0.00000000    0.00000000    0.00000000
     atom   18 type  2   force =     0.00000000    0.00000000    0.00000000
     atom   19 type  1   force =     0.00000000    0.00000000    0.00000000
     atom   20 type  2   force =     0.00000000    0.00000000    0.00000000
     atom   21 type  1   force =     0.00000000    0.00000000    0.00000000
     atom   22 type  2   force =     0.00000000    0.00000000    0.00000000
     atom   23 type  2   force =     0.00000000    0.00000000    0.00000000
     atom   24 type  1   force =     0.00000000    0.00000000    0.00000000
     atom   25 type  2   force =     0.00000000    0.00000000    0.00000000
     atom   26 type  2   force =     0.00000000    0.00000000    0.00000000
     atom   27 type  1   force =     0.00000000    0.00000000    0.00000000
     atom   28 type  2   force =     0.00000000    0.00000000    0.00000000
     atom   29 type  2   force =     0.00000000    0.00000000    0.00000000
     atom   30 type  1   force =     0.00000000    0.00000000    0.00000000
     atom   31 type  2   force =     0.00000000    0.00000000    0.00000000
     atom   32 type  2   force =     0.00000000    0.00000000    0.00000000
     atom   33 type  1   force =     0.00000000    0.00000000    0.00000000
     atom   34 type  2   force =     0.00000000    0.00000000    0.00000000
     atom   35 type  2   force =     0.00000000    0.00000000    0.00000000
     atom   36 type  3   force =     0.00000000    0.00000000    0.00000000
     The SCF correction term to forces
     atom    1 type  1   force =    -0.00035740    0.00026164   -0.00057921
     atom    2 type  2   force =     0.00005420   -0.00008678   -0.00029317
     atom    3 type  2   force =    -0.00000373    0.00007971   -0.00003886
     atom    4 type  1   force =    -0.00023286    0.00007736   -0.00041279
     atom    5 type  2   force =    -0.00003774    0.00003175   -0.00041916
     atom    6 type  2   force =    -0.00002504   -0.00001481    0.00014972
     atom    7 type  1   force =    -0.00036373    0.00024271   -0.00032818
     atom    8 type  2   force =    -0.00005990    0.00005200   -0.00028846
     atom    9 type  2   force =    -0.00005885   -0.00002041    0.00004665
     atom   10 type  1   force =    -0.00012386   -0.00009413    0.00015240
     atom   11 type  2   force =    -0.00015365   -0.00008564   -0.00041743
     atom   12 type  2   force =    -0.00022470   -0.00010108    0.00014293
     atom   13 type  1   force =     0.00011278   -0.00032996   -0.00036731
     atom   14 type  2   force =    -0.00006224   -0.00007221   -0.00033613
     atom   15 type  2   force =    -0.00004971   -0.00005077    0.00007556
     atom   16 type  1   force =     0.00029541    0.00002901   -0.00029723
     atom   17 type  2   force =     0.00008036   -0.00004253   -0.00032994
     atom   18 type  2   force =     0.00005195   -0.00003502    0.00005163
     atom   19 type  1   force =     0.00037525    0.00027926   -0.00021352
     atom   20 type  2   force =     0.00006129    0.00012652    0.00017087
     atom   21 type  1   force =    -0.00017824   -0.00040046   -0.00041494
     atom   22 type  2   force =     0.00011425    0.00001754   -0.00040505
     atom   23 type  2   force =     0.00013810    0.00003098    0.00017845
     atom   24 type  1   force =     0.00028882   -0.00023686   -0.00037643
     atom   25 type  2   force =     0.00000181   -0.00010485   -0.00042210
     atom   26 type  2   force =     0.00005509   -0.00004172    0.00010533
     atom   27 type  1   force =    -0.00003225    0.00016377   -0.00042615
     atom   28 type  2   force =    -0.00003892   -0.00000967   -0.00031492
     atom   29 type  2   force =    -0.00002747    0.00002105    0.00000053
     atom   30 type  1   force =     0.00005586   -0.00016488   -0.00026795
     atom   31 type  2   force =     0.00002894    0.00009696   -0.00037046
     atom   32 type  2   force =     0.00000360    0.00002771    0.00009701
     atom   33 type  1   force =     0.00028706    0.00024197   -0.00020925
     atom   34 type  2   force =    -0.00001395    0.00007452   -0.00031601
     atom   35 type  2   force =     0.00009499   -0.00001715   -0.00002958
     atom   36 type  3   force =    -0.00012170   -0.00011586   -0.00041859

     Total force =     0.147850     Total SCF correction =     0.002226
     Energy error            =      3.4E-02 Ry
     Gradient error          =      7.5E-02 Ry/Bohr

     number of scf cycles    =   2
     number of bfgs steps    =   1

     energy             old  =   -2246.2651835777 Ry
     energy             new  =   -2246.2988886214 Ry

     CASE: energy            _new < energy            _old

     new trust radius        =       0.2322280439 bohr
     new conv_thr            =       0.0000000751 Ry


ATOMIC_POSITIONS (angstrom)
Mo            6.5879829652        1.7465271421        2.8277140592
S             8.1837330114        0.8746737202        4.4005013054
S             8.1781499688        0.8252667809        1.2632985307
Mo            8.1025286590        4.4987611219        2.7181013966
S             6.5018636662        3.7086365134        4.3348250848
S             6.5540510657        3.5281680764        1.1233870260
Mo            6.5338511510        7.1887841402        2.6794002687
S             8.0913299256        6.3323844277        4.2734518562
S             8.0965188455        6.3082170668        1.0923063436
Mo            8.1818832930        9.9148502246        2.7291975759
S             6.4610269052        8.9443207205        4.3485455028
S             6.6134154496        9.0489947303        1.1435717804
Mo            3.4291094627        1.7540360967        2.7679387659
S             4.9853990522        0.8175123458        4.3740261410
S             5.0409286102        0.8520346316        1.2085241126
Mo            4.9728148556        4.5295345715        2.6406414490
S             3.4381865530        3.6746571873        4.2816422712
S             3.4351704889        3.5390891622        1.0794157177
Mo            3.4633666836        7.2051837545        2.6248555868
S             4.9905657304        6.3222543605        1.0346691651
Mo            5.0147779627        9.9360824767        2.7541022398
S             3.4527333869        8.9386003339        4.3194279927
S             3.4033284728        9.0621272294        1.1074826296
Mo            0.2857754467        1.7613051236        2.8189130484
S             1.8730752810        0.8203451478        4.4063016446
S             1.8482601642        0.8520491741        1.1984068424
Mo            1.8580194707        4.4947529979        2.6713545245
S             0.2733051908        3.6519398226        4.3310779754
S             0.2348895345        3.5305228008        1.1659687748
Mo            0.2657132526        7.2357107703        2.6955515522
S             1.9037831792        6.3119198104        4.2460664461
S             1.8484722774        6.3205266246        1.0578072733
Mo            1.8597945131        9.9335829692        2.7610836954
S             0.3257189571        9.0261471877        4.3783959103
S             0.2637664222        9.0608945651        1.1657883539
O             7.2743149351        9.6451303792        5.5025799767



     Writing config-only to output data dir ./MoS2-V-O.save/
     NEW-OLD atomic charge density approx. for the potential

     negative rho (up, down):  1.943E-04 0.000E+00

     total cpu time spent up to now is      227.9 secs

     Self-consistent Calculation

     iteration #  1     ecut=    80.00 Ry     beta= 0.70
     Davidson diagonalization with overlap
     c_bands:  1 eigenvalues not converged
     ethr =  1.00E-06,  avg # of iterations = 20.0

     negative rho (up, down):  4.517E-04 0.000E+00

     total cpu time spent up to now is      245.0 secs

     total energy              =   -2246.32570326 Ry
     estimated scf accuracy    <       0.02464813 Ry

     iteration #  2     ecut=    80.00 Ry     beta= 0.70
     Davidson diagonalization with overlap
     ethr =  7.90E-06,  avg # of iterations =  6.0

     negative rho (up, down):  7.533E-04 0.000E+00

     total cpu time spent up to now is      256.5 secs

     total energy              =   -2246.33114164 Ry
     estimated scf accuracy    <       0.01344069 Ry

     iteration #  3     ecut=    80.00 Ry     beta= 0.70
     Davidson diagonalization with overlap
     ethr =  4.31E-06,  avg # of iterations =  3.0

     negative rho (up, down):  1.268E-03 0.000E+00

     total cpu time spent up to now is      269.2 secs

     total energy              =   -2246.33177310 Ry
     estimated scf accuracy    <       0.00123239 Ry

     iteration #  4     ecut=    80.00 Ry     beta= 0.70
     Davidson diagonalization with overlap
     ethr =  3.95E-07,  avg # of iterations =  5.0

     negative rho (up, down):  1.390E-03 0.000E+00

     total cpu time spent up to now is      282.8 secs

     total energy              =   -2246.33199708 Ry
     estimated scf accuracy    <       0.00032341 Ry

     iteration #  5     ecut=    80.00 Ry     beta= 0.70
     Davidson diagonalization with overlap
     ethr =  1.04E-07,  avg # of iterations =  2.0

     negative rho (up, down):  1.393E-03 0.000E+00

     total cpu time spent up to now is      295.3 secs

     total energy              =   -2246.33199037 Ry
     estimated scf accuracy    <       0.00010537 Ry

     iteration #  6     ecut=    80.00 Ry     beta= 0.70
     Davidson diagonalization with overlap
     ethr =  3.38E-08,  avg # of iterations =  5.0

     negative rho (up, down):  1.266E-03 0.000E+00

     total cpu time spent up to now is      306.9 secs

     total energy              =   -2246.33200846 Ry
     estimated scf accuracy    <       0.00001337 Ry

     iteration #  7     ecut=    80.00 Ry     beta= 0.70
     Davidson diagonalization with overlap
     ethr =  4.28E-09,  avg # of iterations = 11.0

     negative rho (up, down):  1.040E-03 0.000E+00

     total cpu time spent up to now is      319.5 secs

     total energy              =   -2246.33200935 Ry
     estimated scf accuracy    <       0.00000630 Ry

     iteration #  8     ecut=    80.00 Ry     beta= 0.70
     Davidson diagonalization with overlap
     ethr =  2.02E-09,  avg # of iterations =  2.0

     negative rho (up, down):  7.532E-04 0.000E+00

     total cpu time spent up to now is      330.2 secs

     total energy              =   -2246.33200858 Ry
     estimated scf accuracy    <       0.00000163 Ry

     iteration #  9     ecut=    80.00 Ry     beta= 0.70
     Davidson diagonalization with overlap
     ethr =  5.24E-10,  avg # of iterations =  3.0

     negative rho (up, down):  5.893E-04 0.000E+00

     total cpu time spent up to now is      341.6 secs

     total energy              =   -2246.33200808 Ry
     estimated scf accuracy    <       0.00000077 Ry

     iteration # 10     ecut=    80.00 Ry     beta= 0.70
     Davidson diagonalization with overlap
     ethr =  2.48E-10,  avg # of iterations =  2.0

     negative rho (up, down):  3.719E-04 0.000E+00

     total cpu time spent up to now is      351.2 secs

     total energy              =   -2246.33200767 Ry
     estimated scf accuracy    <       0.00000019 Ry

     iteration # 11     ecut=    80.00 Ry     beta= 0.70
     Davidson diagonalization with overlap
     ethr =  6.23E-11,  avg # of iterations =  5.0

     negative rho (up, down):  3.150E-04 0.000E+00

     total cpu time spent up to now is      360.0 secs

     total energy              =   -2246.33200765 Ry
     estimated scf accuracy    <       0.00000009 Ry

     iteration # 12     ecut=    80.00 Ry     beta= 0.70
     Davidson diagonalization with overlap
     ethr =  2.82E-11,  avg # of iterations =  3.0

     negative rho (up, down):  1.971E-04 0.000E+00

     total cpu time spent up to now is      363.4 secs

     End of self-consistent calculation

          k = 0.0000 0.0000 0.0000 (105382 PWs)   bands (ev):

   -63.0163 -63.0001 -62.9904 -62.9767 -62.9686 -62.9361 -62.9237 -62.9040
   -62.8979 -62.8918 -62.8834 -62.8108 -37.3817 -37.3261 -37.2621 -37.2594
   -37.2338 -37.2105 -37.2005 -37.1914 -37.1873 -37.1780 -37.1711 -37.1604
   -37.1553 -37.1434 -37.1337 -37.1224 -37.1118 -37.1074 -37.1047 -37.1013
   -37.0891 -37.0766 -37.0724 -37.0688 -37.0494 -37.0344 -37.0286 -37.0054
   -36.9959 -36.9774 -36.9676 -36.9395 -36.9288 -36.9175 -36.8887 -36.8678
   -21.6239 -16.0467 -15.2784 -15.2413 -15.0651 -15.0138 -14.8361 -14.6059
   -14.5732 -14.5432 -14.5286 -14.5037 -14.4390 -14.4087 -14.3546 -14.2450
   -14.2186 -14.1993 -14.1551 -13.9879 -13.9737 -13.9591 -13.9253 -13.7632
    -7.9532  -7.7850  -7.5746  -7.5569  -7.4686  -7.3834  -7.3368  -7.3134
    -7.2121  -7.0592  -6.9735  -6.9048  -6.8540  -6.8272  -6.7062  -6.6560
    -6.6089  -6.5021  -6.4562  -6.3722  -6.1254  -6.1036  -6.0813  -5.9332
    -5.9171  -5.8632  -5.8370  -5.8008  -5.7898  -5.7562  -5.7381  -5.6331
    -5.6202  -5.5460  -5.4604  -5.3290  -5.3099  -5.1872  -5.1643  -5.1318
    -5.0907  -5.0481  -4.9864  -4.8974  -4.7937  -4.6814  -4.4610  -4.4543
    -4.3544  -4.3301  -4.2795  -4.2197  -4.1032  -4.0509  -3.9203  -3.8936
    -3.8264  -3.7684  -3.7640  -3.6879  -3.6702  -3.6035  -3.6031  -3.5293
    -3.5103  -3.4735  -3.3792  -3.3290  -3.1544  -3.0622  -3.0375  -2.9601
    -2.9094  -2.8566  -2.8362  -2.7954  -2.7509  -2.7076  -2.5563  -2.3902
    -2.2395  -2.1137  -2.0526  -1.7395  -1.1418  -0.8976  -0.4833  -0.2492
    -0.2148  -0.1898  -0.1007  -0.0037   0.0436   0.0540   0.1595   0.1932
     0.2309   0.3021   0.3203   0.3846   0.4290   0.4679   0.4930   0.5434
     0.5592   0.6239   0.6509   0.6791   0.7104   0.7591   0.8425   0.8830
     0.9438   1.0045   1.2119

     the Fermi energy is    -1.4407 ev

!    total energy              =   -2246.33200768 Ry
     estimated scf accuracy    <       0.00000002 Ry
     smearing contrib. (-TS)   =      -0.00009054 Ry
     internal energy E=F+TS    =   -2246.33191713 Ry

     The total energy is F=E-TS. E is the sum of the following terms:
     one-electron contribution =  -18441.56247339 Ry
     hartree contribution      =    9208.50449942 Ry
     xc contribution           =    -392.08854560 Ry
     ewald contribution        =    7388.67664492 Ry
     one-center paw contrib.   =      -9.86204248 Ry

     convergence has been achieved in  12 iterations

     negative rho (up, down):  1.971E-04 0.000E+00

     Forces acting on atoms (cartesian axes, Ry/au):

     atom    1 type  1   force =    -0.00967616    0.00829476   -0.01151906
     atom    2 type  2   force =     0.00093071   -0.01055808   -0.00589060
     atom    3 type  2   force =    -0.00431665    0.01644998   -0.02844362
     atom    4 type  1   force =     0.00561788    0.00272788    0.00248946
     atom    5 type  2   force =     0.00049683   -0.00750368   -0.00511520
     atom    6 type  2   force =    -0.00265145    0.00258108    0.00531310
     atom    7 type  1   force =    -0.01041207   -0.00450710    0.00261313
     atom    8 type  2   force =     0.00886242   -0.00469066    0.01078327
     atom    9 type  2   force =     0.01060387    0.00066498   -0.00219690
     atom   10 type  1   force =    -0.00719663    0.00657463    0.02619655
     atom   11 type  2   force =     0.05994956    0.04467008    0.01978628
     atom   12 type  2   force =    -0.00891004   -0.00442462   -0.00659495
     atom   13 type  1   force =     0.00471501   -0.00196866    0.00222073
     atom   14 type  2   force =     0.00267788    0.00302329    0.00734533
     atom   15 type  2   force =    -0.00386122    0.00312223   -0.00682485
     atom   16 type  1   force =     0.00719178    0.00161576    0.00277062
     atom   17 type  2   force =     0.00356751    0.00113767    0.00262108
     atom   18 type  2   force =    -0.00055424    0.00140863    0.00609141
     atom   19 type  1   force =     0.00340919   -0.00157539    0.00528262
     atom   20 type  2   force =     0.00800369   -0.00055182   -0.00107742
     atom   21 type  1   force =    -0.00866775   -0.00193685    0.00226427
     atom   22 type  2   force =     0.00130502   -0.00052044   -0.00579532
     atom   23 type  2   force =     0.00353103   -0.00228982    0.00069243
     atom   24 type  1   force =     0.00518383    0.00159907   -0.00574115
     atom   25 type  2   force =     0.00200713    0.00794205   -0.00807657
     atom   26 type  2   force =    -0.00018387    0.00063254   -0.00442857
     atom   27 type  1   force =    -0.00090132    0.00235202    0.00409685
     atom   28 type  2   force =    -0.00013911   -0.00121438   -0.00268500
     atom   29 type  2   force =     0.00195143    0.00711385   -0.00574634
     atom   30 type  1   force =     0.00282431   -0.01021652    0.00802607
     atom   31 type  2   force =     0.00036145    0.00020631    0.00228686
     atom   32 type  2   force =    -0.00314433    0.00318703    0.00433417
     atom   33 type  1   force =    -0.00156934    0.00275133    0.00371696
     atom   34 type  2   force =    -0.01088212   -0.00673617   -0.01886752
     atom   35 type  2   force =     0.01322639    0.00139026   -0.01962253
     atom   36 type  3   force =    -0.07335062   -0.06075122    0.01969440
     The non-local contrib.  to forces
     atom    1 type  1   force =     0.00870651    0.02161071   -0.00901031
     atom    2 type  2   force =    -0.00501509    0.00930169   -0.26484773
     atom    3 type  2   force =    -0.00858472   -0.00388737    0.25348304
     atom    4 type  1   force =     0.00598486    0.00286542    0.00293071
     atom    5 type  2   force =     0.00418630   -0.03505727   -0.25923524
     atom    6 type  2   force =    -0.00210078    0.00369555    0.27071276
     atom    7 type  1   force =    -0.02484421    0.00906793   -0.02292031
     atom    8 type  2   force =     0.00499114    0.00231721   -0.25886733
     atom    9 type  2   force =     0.00054121   -0.01219178    0.27229402
     atom   10 type  1   force =     0.00268434    0.00003204    0.01777796
     atom   11 type  2   force =     0.26588256    0.21841581    0.20201362
[...]
     atom   28 type  2   force =    -0.00178026   -0.01174523   -0.27686676
     atom   29 type  2   force =     0.00000771   -0.00979638    0.26879485
     atom   30 type  1   force =     0.00076858    0.02097197    0.00354105
     atom   31 type  2   force =    -0.00743370    0.00419189   -0.26844636
     atom   32 type  2   force =     0.00592431   -0.01197332    0.27043023
     atom   33 type  1   force =    -0.00255647    0.00699857    0.00965055
     atom   34 type  2   force =     0.00176658   -0.00759745   -0.27885578
     atom   35 type  2   force =     0.00093224   -0.01340016    0.26166886
     atom   36 type  3   force =     0.02031383   -0.03412346   -2.31474455
     The ionic contribution  to forces
     atom    1 type  1   force =    -0.10384940    1.62550884    0.94499244
     atom    2 type  2   force =     0.36128997    1.13933261   38.15825752
     atom    3 type  2   force =     0.09387858    0.15315267  -38.38964310
     atom    4 type  1   force =     0.20328231   -0.25507645   -0.02476266
     atom    5 type  2   force =    -0.81482942    1.02592273   38.12595110
     atom    6 type  2   force =     0.23883860   -0.32197797  -38.44328316
     atom    7 type  1   force =    -2.87142614   -2.78033078   -0.92153660
     atom    8 type  2   force =    -0.53938383   -0.91214479   37.80090611
     atom    9 type  2   force =     0.48404046   -0.09062474  -38.64848658
     atom   10 type  1   force =     0.62432674    0.24488271   -1.53428856
     atom   11 type  2   force =    -0.44830747   -1.61035331   28.40832550
     atom   12 type  2   force =     0.20132823    0.18402349  -38.56093113
     atom   13 type  1   force =    -0.31004456    1.22473903    1.05206238
     atom   14 type  2   force =    -0.57702177    1.04139662   37.90311167
     atom   15 type  2   force =    -0.02274106    0.08029523  -38.46262204
     atom   16 type  1   force =    -0.38051423    2.93859628    1.10973609
     atom   17 type  2   force =     0.66801097    1.09142782   38.16726221
     atom   18 type  2   force =    -0.27318697   -0.25774263  -38.41524676
     atom   19 type  1   force =     2.11150445   -2.47553471    1.67710799
     atom   20 type  2   force =    -0.13135194   -0.09239323  -39.27954321
     atom   21 type  1   force =    -1.05206752    0.21043918   -3.26259491
     atom   22 type  2   force =    -0.60377602   -1.44678886   37.76664442
     atom   23 type  2   force =    -0.25427965    0.20315294  -38.67220913
     atom   24 type  1   force =     0.46041864    1.00592549    0.64475324
     atom   25 type  2   force =     0.16564446    0.39669710   38.41263030
     atom   26 type  2   force =    -0.09089931    0.05083808  -38.06926908
     atom   27 type  1   force =     0.16949600    0.16393954    0.09751886
     atom   28 type  2   force =     0.12852957    0.41416291   37.99469950
     atom   29 type  2   force =     0.04357183   -0.04578921  -38.04638759
     atom   30 type  1   force =     0.66436322   -1.28237386    1.12392711
     atom   31 type  2   force =     1.16431985   -0.16470330   38.07331371
     atom   32 type  2   force =    -0.34472891   -0.09630358  -38.21426884
     atom   33 type  1   force =     0.46218046   -0.06848059    1.45172572
     atom   34 type  2   force =     1.04144302   -0.43610938   38.20501503
     atom   35 type  2   force =     0.10222547    0.02606483  -38.28177774
     atom   36 type  3   force =    -0.57028465   -0.88377073   50.10891022
     The local contribution  to forces
     atom    1 type  1   force =     0.10771890   -1.64422548   -0.93855774
     atom    2 type  2   force =    -0.35925770   -1.12930206  -37.90654725
     atom    3 type  2   force =    -0.09232719   -0.14281853   38.14560225
     atom    4 type  1   force =    -0.21155422    0.25045557    0.02314865
     atom    5 type  2   force =     0.81019802   -1.00383665  -37.88984173
     atom    6 type  2   force =    -0.23922148    0.32623999   38.19671678
     atom    7 type  1   force =     2.88623519    2.76521192    0.93065180
     atom    8 type  2   force =     0.53765417    0.90583523  -37.55112004
     atom    9 type  2   force =    -0.47699868    0.10408991   38.40128434
     atom   10 type  1   force =    -0.61678892   -0.24973529    1.51642438
     atom   11 type  2   force =     0.46313365    1.59491203  -28.69637732
     atom   12 type  2   force =    -0.19379960   -0.17136274   38.30681156
     atom   13 type  1   force =     0.30721067   -1.24940899   -1.04662073
     atom   14 type  2   force =     0.57662428   -1.03540523  -37.65092842
     atom   15 type  2   force =     0.02228898   -0.07059459   38.22181655
     atom   16 type  1   force =     0.38583368   -2.96616271   -1.07640256
     atom   17 type  2   force =    -0.66436265   -1.07134666  -37.93102726
     atom   18 type  2   force =     0.27374914    0.26080089   38.17038546
     atom   19 type  1   force =    -2.12603473    2.46946550   -1.65411234
     atom   20 type  2   force =     0.12967186    0.10517204   39.03697524
     atom   21 type  1   force =     1.04324913   -0.22362034    3.23829198
     atom   22 type  2   force =     0.60788725    1.44142407  -37.52277484
     atom   23 type  2   force =     0.24646558   -0.18861654   38.42907891
     atom   24 type  1   force =    -0.46117698   -1.02296087   -0.64797621
     atom   25 type  2   force =    -0.16611979   -0.38516631  -38.16271777
     atom   26 type  2   force =     0.08866322   -0.03819362   37.82109411
     atom   27 type  1   force =    -0.16386733   -0.16889471   -0.09912410
     atom   28 type  2   force =    -0.12729802   -0.40300357  -37.73891946
     atom   29 type  2   force =    -0.04343826    0.05421206   37.79938019
     atom   30 type  1   force =    -0.66506869    1.26079406   -1.12797358
     atom   31 type  2   force =    -1.15667345    0.16175266  -37.82651530
     atom   32 type  2   force =     0.33916726    0.10732140   37.96482366
     atom   33 type  1   force =    -0.46026421    0.06161080   -1.46125396
     atom   34 type  2   force =    -1.04312730    0.44253152  -37.94803561
     atom   35 type  2   force =    -0.10213539   -0.01398103   38.03953084
     atom   36 type  3   force =     0.55002494    0.91651483  -47.81964427
     The core correction contribution to forces
     atom    1 type  1   force =     0.00000000    0.00000000    0.00000000
     atom    2 type  2   force =     0.00006396    0.00043200    0.02127303
     atom    3 type  2   force =    -0.00001959    0.00040962   -0.02076822
     atom    4 type  1   force =     0.00000000    0.00000000    0.00000000
     atom    5 type  2   force =    -0.00040263    0.00100431    0.02053695
     atom    6 type  2   force =     0.00019097   -0.00017751   -0.02090409
     atom    7 type  1   force =     0.00000000    0.00000000    0.00000000
     atom    8 type  2   force =    -0.00007679   -0.00000570    0.02126700
     atom    9 type  2   force =     0.00077570    0.00076461   -0.02101471
     atom   10 type  1   force =     0.00000000    0.00000000    0.00000000
     atom   11 type  2   force =     0.00093686   -0.00103846   -0.00994432
     atom   12 type  2   force =     0.00065746    0.00081684   -0.02125279
     atom   13 type  1   force =     0.00000000    0.00000000    0.00000000
     atom   14 type  2   force =    -0.00000571    0.00002500    0.02129647
     atom   15 type  2   force =     0.00000676    0.00050935   -0.02069203
     atom   16 type  1   force =     0.00000000    0.00000000    0.00000000
     atom   17 type  2   force =     0.00032508    0.00087266    0.02053213
     atom   18 type  2   force =    -0.00015858   -0.00022017   -0.02083982
     atom   19 type  1   force =     0.00000000    0.00000000    0.00000000
     atom   20 type  2   force =    -0.00019998    0.00059997   -0.02119205
     atom   21 type  1   force =     0.00000000    0.00000000    0.00000000
     atom   22 type  2   force =     0.00011349   -0.00041746    0.02104801
     atom   23 type  2   force =    -0.00057294    0.00088984   -0.02083171
     atom   24 type  1   force =     0.00000000    0.00000000    0.00000000
     atom   25 type  2   force =    -0.00004871    0.00051933    0.02100873
     atom   26 type  2   force =    -0.00010111    0.00050370   -0.02097301
     atom   27 type  1   force =     0.00000000    0.00000000    0.00000000
     atom   28 type  2   force =     0.00007534    0.00070387    0.02130244
     atom   29 type  2   force =    -0.00002352    0.00036055   -0.02087332
     atom   30 type  1   force =     0.00000000    0.00000000    0.00000000
     atom   31 type  2   force =     0.00037557    0.00006383    0.02100666
     atom   32 type  2   force =    -0.00061190    0.00068506   -0.02101785
     atom   33 type  1   force =     0.00000000    0.00000000    0.00000000
     atom   34 type  2   force =    -0.00011191    0.00033682    0.02164170
     atom   35 type  2   force =     0.00000889    0.00065751   -0.02076232
     atom   36 type  3   force =    -0.00020502    0.00033791    0.02454968
     The Hubbard contrib.    to forces
     atom    1 type  1   force =     0.00000000    0.00000000    0.00000000
     atom    2 type  2   force =     0.00000000    0.00000000    0.00000000
     atom    3 type  2   force =     0.00000000    0.00000000    0.00000000
     atom    4 type  1   force =     0.00000000    0.00000000    0.00000000
     atom    5 type  2   force =     0.00000000    0.00000000    0.00000000
     atom    6 type  2   force =     0.00000000    0.00000000    0.00000000
     atom    7 type  1   force =     0.00000000    0.00000000    0.00000000
     atom    8 type  2   force =     0.00000000    0.00000000    0.00000000
     atom    9 type  2   force =     0.00000000    0.00000000    0.00000000
     atom   10 type  1   force =     0.00000000    0.00000000    0.00000000
     atom   11 type  2   force =     0.00000000    0.00000000    0.00000000
     atom   12 type  2   force =     0.00000000    0.00000000    0.00000000
     atom   13 type  1   force =     0.00000000    0.00000000    0.00000000
     atom   14 type  2   force =     0.00000000    0.00000000    0.00000000
     atom   15 type  2   force =     0.00000000    0.00000000    0.00000000
     atom   16 type  1   force =     0.00000000    0.00000000    0.00000000
     atom   17 type  2   force =     0.00000000    0.00000000    0.00000000
     atom   18 type  2   force =     0.00000000    0.00000000    0.00000000
     atom   19 type  1   force =     0.00000000    0.00000000    0.00000000
     atom   20 type  2   force =     0.00000000    0.00000000    0.00000000
     atom   21 type  1   force =     0.00000000    0.00000000    0.00000000
     atom   22 type  2   force =     0.00000000    0.00000000    0.00000000
     atom   23 type  2   force =     0.00000000    0.00000000    0.00000000
     atom   24 type  1   force =     0.00000000    0.00000000    0.00000000
     atom   25 type  2   force =     0.00000000    0.00000000    0.00000000
     atom   26 type  2   force =     0.00000000    0.00000000    0.00000000
     atom   27 type  1   force =     0.00000000    0.00000000    0.00000000
     atom   28 type  2   force =     0.00000000    0.00000000    0.00000000
     atom   29 type  2   force =     0.00000000    0.00000000    0.00000000
     atom   30 type  1   force =     0.00000000    0.00000000    0.00000000
     atom   31 type  2   force =     0.00000000    0.00000000    0.00000000
     atom   32 type  2   force =     0.00000000    0.00000000    0.00000000
     atom   33 type  1   force =     0.00000000    0.00000000    0.00000000
     atom   34 type  2   force =     0.00000000    0.00000000    0.00000000
     atom   35 type  2   force =     0.00000000    0.00000000    0.00000000
     atom   36 type  3   force =     0.00000000    0.00000000    0.00000000
     The SCF correction term to forces
     atom    1 type  1   force =    -0.00000321    0.00000726   -0.00006804
     atom    2 type  2   force =    -0.00000415   -0.00000164   -0.00003357
     atom    3 type  2   force =    -0.00000009   -0.00000542   -0.00002620
     atom    4 type  1   force =     0.00001324   -0.00000086   -0.00006923
     atom    5 type  2   force =    -0.00000963   -0.00000320   -0.00003440
     atom    6 type  2   force =     0.00000131   -0.00000709   -0.00000557
     atom    7 type  1   force =     0.00000654    0.00003813   -0.00006346
     atom    8 type  2   force =     0.00001010   -0.00000303   -0.00004645
     atom    9 type  2   force =     0.00001414    0.00000680   -0.00000499
     atom   10 type  1   force =    -0.00003169   -0.00001646   -0.00008164
     atom   11 type  2   force =     0.00000079    0.00000887   -0.00007192
     atom   12 type  2   force =     0.00000618    0.00000331    0.00000542
     atom   13 type  1   force =     0.00000622   -0.00000096   -0.00006600
     atom   14 type  2   force =    -0.00001013    0.00000670   -0.00003438
     atom   15 type  2   force =    -0.00000596    0.00000656   -0.00000986
     atom   16 type  1   force =    -0.00000716   -0.00001824   -0.00004785
     atom   17 type  2   force =    -0.00000027   -0.00000120   -0.00003689
     atom   18 type  2   force =    -0.00001054   -0.00000636   -0.00000025
     atom   19 type  1   force =    -0.00000947   -0.00000257   -0.00006927
     atom   20 type  2   force =    -0.00000777   -0.00000147   -0.00000710
     atom   21 type  1   force =     0.00001793   -0.00001041   -0.00005814
     atom   22 type  2   force =     0.00000168    0.00000039   -0.00004105
     atom   23 type  2   force =    -0.00000690   -0.00000081   -0.00001402
     atom   24 type  1   force =     0.00001599   -0.00000446   -0.00008766
     atom   25 type  2   force =     0.00001806    0.00000167   -0.00004218
     atom   26 type  2   force =    -0.00000016   -0.00000838   -0.00001190
     atom   27 type  1   force =     0.00000127    0.00000842   -0.00006126
     atom   28 type  2   force =     0.00000755    0.00001349   -0.00003789
     atom   29 type  2   force =     0.00000709    0.00000296   -0.00001701
     atom   30 type  1   force =     0.00001356   -0.00001275   -0.00007567
     atom   31 type  2   force =    -0.00000604   -0.00001156   -0.00004394
     atom   32 type  2   force =    -0.00001280    0.00000046   -0.00000342
     atom   33 type  1   force =    -0.00001834    0.00001581   -0.00009317
     atom   34 type  2   force =     0.00000388   -0.00000712   -0.00004261
     atom   35 type  2   force =     0.00000796    0.00000517   -0.00002059
     atom   36 type  3   force =     0.00001371    0.00004417   -0.00005015

     Total force =     0.006761     Total SCF correction =     0.000310
     Energy error            =      9.4E-05 Ry
     Gradient error          =      2.0E-03 Ry/Bohr

     bfgs converged in  20 scf cycles and  19 bfgs steps
     (criteria: energy <  1.0E-04 Ry, force <  1.0E-02 Ry/Bohr)

     End of BFGS Geometry Optimization

     Final energy             =   -2246.4457157538 Ry

     File ./MoS2-V-O.bfgs deleted, as requested
Begin final coordinates

ATOMIC_POSITIONS (angstrom)
Mo            6.5851660660        1.7743884614        2.7549221972
S             8.1654486774        0.8743062453        4.3605378080
S             8.1623774788        0.8776207763        1.1598337877
Mo            8.1445637489        4.5230278807        2.7217821885
S             6.5439045877        3.6798635955        4.3136979788
S             6.5764418019        3.5909979930        1.1161204176
Mo            6.5394057514        7.1703856671        2.6627081772
S             8.0906151447        6.3292919025        4.3235041579
S             8.1706736974        6.3406752745        1.1109779710
Mo            8.1895866107        9.9777185826        2.7487843191
S             6.5708341197        8.9907799058        4.2333082751
S             6.6157365654        9.0469581960        1.1383612674
Mo            3.4512259585        1.7763360076        2.7484795461
S             5.0155419550        0.8356392807        4.3405039399
S             5.0157287029        0.8757682685        1.1458827311
Mo            5.0166047913        4.5515344015        2.6628230728
S             3.4868804676        3.6759796720        4.3109860548
S             3.4510101461        3.5871474687        1.1154744572
Mo            3.4949459787        7.2011112488        2.6793254768
S             5.0017459211        6.3210416864        1.0451153015
Mo            5.0040552510        9.9475590659        2.7106853756
S             3.5052744599        8.9754821492        4.3236368552
S             3.4178998687        9.0321207244        1.1193516027
Mo            0.2888845142        1.7705443452        2.7540966478
S             1.8773327425        0.8707097074        4.3559449823
S             1.8742559552        0.8569295239        1.1656502750
Mo            1.8874471614        4.5167752162        2.7200192804
S             0.2891500877        3.6256287825        4.3187682438
S             0.2877439801        3.5939581206        1.1481278342
Mo            0.2814842029        7.2391922368        2.7507498006
S             1.9241220122        6.3253279499        4.3145050370
S             1.8690742808        6.3484619200        1.1264674483
Mo            1.8823078247        9.9479372228        2.7644092788
S             0.2906635886        9.0579655316        4.3614451550
S             0.3031771129        9.0622001447        1.1669916484
O             6.5562935756        9.0241590324        5.7323442287
End final coordinates



     Writing all to output data dir ./MoS2-V-O.save/
 
     init_run     :      5.37s CPU      5.87s WALL (       1 calls)
     electrons    :   1825.88s CPU   2062.31s WALL (      20 calls)
     update_pot   :     57.95s CPU     61.65s WALL (      19 calls)
     forces       :     54.49s CPU     62.15s WALL (      20 calls)

     Called by init_run:
     wfcinit      :      0.48s CPU      0.53s WALL (       1 calls)
     potinit      :      3.12s CPU      3.37s WALL (       1 calls)
     hinit0       :      0.44s CPU      0.47s WALL (       1 calls)

     Called by electrons:
     c_bands      :    273.74s CPU    280.20s WALL (     188 calls)
     sum_band     :    105.70s CPU    135.65s WALL (     188 calls)
     v_of_rho     :    176.73s CPU    214.61s WALL (     201 calls)
     newd         :     62.30s CPU     90.89s WALL (     201 calls)
     PAW_pot      :      8.02s CPU      8.06s WALL (     220 calls)
     mix_rho      :   1220.26s CPU   1355.35s WALL (     188 calls)

     Called by c_bands:
     init_us_2    :      4.33s CPU      4.66s WALL (     396 calls)
     init_us_2:cp :      4.33s CPU      4.65s WALL (     396 calls)
     regterg      :    259.55s CPU    265.64s WALL (     188 calls)

     Called by *egterg:
     rdiaghg      :     18.37s CPU     18.55s WALL (    1023 calls)
     h_psi        :    168.10s CPU    169.59s WALL (    1050 calls)
     s_psi        :     16.00s CPU     16.05s WALL (    1050 calls)
     g_psi        :      0.82s CPU      0.83s WALL (     861 calls)

     Called by h_psi:
     h_psi:calbec :     18.06s CPU     18.16s WALL (    1050 calls)
     vloc_psi     :    132.17s CPU    133.45s WALL (    1050 calls)
     add_vuspsi   :     15.78s CPU     15.88s WALL (    1050 calls)

     General routines
     calbec       :     25.97s CPU     26.13s WALL (    1337 calls)
     fft          :    121.89s CPU    141.12s WALL (   13427 calls)
     ffts         :    544.47s CPU    675.01s WALL (  298790 calls)
     fftw         :     84.67s CPU     85.36s WALL (  116426 calls)
     interpolate  :      2.51s CPU      2.94s WALL (     201 calls)
 
     Parallel routines
 
     PWSCF        :  32m32.43s CPU  36m44.79s WALL

 
   This run was terminated on:  22:52: 5   1Nov2023            

=------------------------------------------------------------------------------=
   JOB DONE.
=------------------------------------------------------------------------------=
