
     Program PWSCF v.7.2 starts on  1Nov2023 at 19:54:22 

     This program is part of the open-source Quantum ESPRESSO suite
     for quantum simulation of materials; please cite
         "P. Giannozzi et al., J. Phys.:Condens. Matter 21 395502 (2009);
         "P. Giannozzi et al., J. Phys.:Condens. Matter 29 465901 (2017);
         "P. Giannozzi et al., J. Chem. Phys. 152 154105 (2020);
          URL http://www.quantum-espresso.org", 
     in publications or presentations arising from this work. More details at
     http://www.quantum-espresso.org/quote

     Parallel version (MPI & OpenMP), running on      48 processor cores
     Number of MPI processes:                48
     Threads/MPI process:                     1

     MPI processes distributed on     1 nodes
     44520 MiB available memory on the printing compute node when the environment starts
 
     Waiting for input...
     Reading input from standard input
Warning: card &CELL ignored
Warning: card CELL_DYNAMICS = 'BFGS', ignored
Warning: card CELL_DOFREE = '2DXY' ignored
Warning: card / ignored

     Current dimensions of program PWSCF are:
     Max number of different atomic species (ntypx) = 10
     Max number of k-points (npk) =  40000
     Max angular momentum in pseudopotentials (lmaxx) =  4
     file O.pbe-n-kjpaw_psl.0.1.UPF: wavefunction(s)  2P renormalized

     IMPORTANT: XC functional enforced from input :
     Exchange-correlation= RVV10
                           (   1   4  13   4  26   0   0)
     Any further DFT definition will be discarded
     Please, verify this is what you really want


     gamma-point specific algorithms are used
     signal trapping enabled: kill the code with -SIGUSR1 to stop cleanly the simulation 
 
     R & G space division:  proc/nbgrp/npool/nimage =      48
     Subspace diagonalization in iterative solution of the eigenvalue problem:
     one sub-group per band group will be used
     scalapack distributed-memory algorithm (size of sub-group:  2*  2 procs)

 
     Parallelization info
     --------------------
     sticks:   dense  smooth     PW     G-vecs:    dense   smooth      PW
     Min         396     194     47               101632    35090    4376
     Max         398     196     50               101674    35128    4410
     Sum       19091    9389   2349              4879585  1685513  210763
 
     Using Slab Decomposition
 


     bravais-lattice index     =            0
     lattice parameter (alat)  =      17.8707  a.u.
     unit-cell volume          =   17436.2743 (a.u.)^3
     number of atoms/cell      =           36
     number of atomic types    =            3
     number of electrons       =       312.00
     number of Kohn-Sham states=          187
     kinetic-energy cutoff     =      80.0000  Ry
     charge density cutoff     =     650.0000  Ry
     scf convergence threshold =      1.0E-06
     mixing beta               =       0.7000
     number of iterations used =            8  local-TF  mixing
     energy convergence thresh.=      1.0E-04
     force convergence thresh. =      1.0E-02
     Exchange-correlation= RVV10
                           (   1   4  13   4  26   0   0)
     nstep                     =          200


     celldm(1)=  17.870686  celldm(2)=   0.000000  celldm(3)=   0.000000
     celldm(4)=   0.000000  celldm(5)=   0.000000  celldm(6)=   0.000000

     crystal axes: (cart. coord. in units of alat)
               a(1) = (   1.000000   0.000000   0.000000 )  
               a(2) = (   0.000000   1.155671   0.000000 )  
               a(3) = (   0.000000   0.000000   2.643601 )  

     reciprocal axes: (cart. coord. in units 2 pi/alat)
               b(1) = (  1.000000  0.000000  0.000000 )  
               b(2) = (  0.000000  0.865298  0.000000 )  
               b(3) = (  0.000000  0.000000  0.378272 )  


     PseudoPot. # 1 for Mo read from file:
     ../pseudo/Mo_ONCV_PBE-1.0.oncvpsp.upf
     MD5 check sum: 1b5d28e075c9ccadda658a603575cd1f
     Pseudo is Norm-conserving, Zval = 14.0
     Generated using ONCVPSP code by D. R. Hamann
     Using radial grid of 1526 points,  6 beta functions with: 
                l(1) =   0
                l(2) =   0
                l(3) =   1
                l(4) =   1
                l(5) =   2
                l(6) =   2

     PseudoPot. # 2 for S  read from file:
     ../pseudo/s_pbe_v1.4.uspp.F.UPF
     MD5 check sum: 88d86576ff6df21479756cfb9bdac1df
     Pseudo is Ultrasoft + core correction, Zval =  6.0
     Generated by new atomic code, or converted to UPF format
     Using radial grid of  907 points,  6 beta functions with: 
                l(1) =   0
                l(2) =   0
                l(3) =   1
                l(4) =   1
                l(5) =   2
                l(6) =   2
     Q(r) pseudized with  8 coefficients,  rinner =    1.300   1.300   1.300
                                                       1.300   1.300

     PseudoPot. # 3 for O  read from file:
     ../pseudo/O.pbe-n-kjpaw_psl.0.1.UPF
     MD5 check sum: 0234752ac141de4415c5fc33072bef88
     Pseudo is Projector augmented-wave + core cor, Zval =  6.0
     Generated using "atomic" code by A. Dal Corso  v.5.0.99 svn rev. 10869
     Shape of augmentation charge: BESSEL
     Using radial grid of 1095 points,  4 beta functions with: 
                l(1) =   0
                l(2) =   0
                l(3) =   1
                l(4) =   1
     Q(r) pseudized with 0 coefficients 


     atomic species   valence    mass     pseudopotential
        Mo            14.00    95.94000     Mo( 1.00)
        S              6.00    32.06500     S ( 1.00)
        O              6.00    15.99940     O ( 1.00)

     No symmetry found



   Cartesian axes

     site n.     atom                  positions (alat units)
         1           Mo  tau(   1) = (   0.6952221   0.1890506   0.2985846  )
         2           S   tau(   2) = (   0.8646417   0.0856217   0.4689279  )
         3           S   tau(   3) = (   0.8663890   0.0857843   0.1351291  )
         4           Mo  tau(   4) = (   0.8560186   0.4753274   0.2873942  )
         5           S   tau(   5) = (   0.6873294   0.3936244   0.4596353  )
         6           S   tau(   6) = (   0.6929804   0.3713468   0.1185692  )
         7           Mo  tau(   7) = (   0.6862796   0.7633098   0.2825370  )
         8           S   tau(   8) = (   0.8545980   0.6708292   0.4486168  )
         9           S   tau(   9) = (   0.8545123   0.6666874   0.1146125  )
        10           Mo  tau(  10) = (   0.8629403   1.0471007   0.3006803  )
        11           S   tau(  11) = (   0.6868280   0.9456650   0.4634891  )
        12           S   tau(  12) = (   0.6998113   0.9568511   0.1205389  )
        13           Mo  tau(  13) = (   0.3618216   0.1847309   0.2935964  )
        14           S   tau(  14) = (   0.5260962   0.0863870   0.4600448  )
        15           S   tau(  15) = (   0.5348379   0.0894875   0.1297123  )
        16           Mo  tau(  16) = (   0.5265817   0.4772436   0.2784130  )
        17           S   tau(  17) = (   0.3624753   0.3882513   0.4525556  )
        18           S   tau(  18) = (   0.3635411   0.3752055   0.1119148  )
        19           Mo  tau(  19) = (   0.3652268   0.7630864   0.2781795  )
        20           S   tau(  20) = (   0.5269494   0.6690381   0.1096838  )
        21           Mo  tau(  21) = (   0.5300192   1.0470394   0.2900995  )
        22           S   tau(  22) = (   0.3670346   0.9457522   0.4574073  )
        23           S   tau(  23) = (   0.3604225   0.9585725   0.1159032  )
        24           Mo  tau(  24) = (   0.0313099   0.1847895   0.3013130  )
        25           S   tau(  25) = (   0.1956761   0.0838230   0.4650863  )
        26           S   tau(  26) = (   0.1967693   0.0903508   0.1278874  )
        27           Mo  tau(  27) = (   0.1967578   0.4753919   0.2813011  )
        28           S   tau(  28) = (   0.0287851   0.3864324   0.4586755  )
        29           S   tau(  29) = (   0.0244514   0.3729871   0.1239344  )
        30           Mo  tau(  30) = (   0.0286728   0.7631204   0.2856894  )
        31           S   tau(  31) = (   0.2011512   0.6675435   0.4465001  )
        32           S   tau(  32) = (   0.1969214   0.6672839   0.1104564  )
        33           Mo  tau(  33) = (   0.1950294   1.0511147   0.2932237  )
        34           S   tau(  34) = (   0.0312912   0.9612169   0.4667423  )
        35           S   tau(  35) = (   0.0292670   0.9563028   0.1216485  )
        36           O   tau(  36) = (   0.8888889   0.7704471   0.5656742  )

     number of k points=     1  Gaussian smearing, width (Ry)=  0.0100
                       cart. coord. in units 2pi/alat
        k(    1) = (   0.0000000   0.0000000   0.0000000), wk =   2.0000000

     Dense  grid:  2439793 G-vectors     FFT dimensions: ( 150, 180, 384)

     Smooth grid:   842757 G-vectors     FFT dimensions: ( 108, 120, 270)

     Estimated max dynamical RAM per process >     269.22 MB

     Estimated total dynamical RAM >      12.62 GB

     Initial potential from superposition of free atoms

     starting charge     311.9873, renormalised to     312.0000

     negative rho (up, down):  2.751E-04 0.000E+00


---------------------------------------------------------------------------------
Carrying out rVV10 run using the following parameters:
Nqs =      20    Nr_points =    1024   r_max =   100.000
b_value =  6.30000    beta =  0.00901
     q_mesh =  0.00010000  0.00030000  0.00058939  0.00100810
               0.00161396  0.00249058  0.00375900  0.00559430
               0.00824984  0.01209221  0.01765183  0.02569619
               0.03733578  0.05417739  0.07854596  0.11380545
               0.16482331  0.23864234  0.34545298  0.50000000

Gradients computed in Reciprocal space

---------------------------------------------------------------------------------


     Starting wfcs are  216 randomized atomic wfcs
     Checking if some PAW data can be deallocated... 

     total cpu time spent up to now is        5.2 secs

     Self-consistent Calculation

     iteration #  1     ecut=    80.00 Ry     beta= 0.70
     Davidson diagonalization with overlap
     ethr =  1.00E-02,  avg # of iterations =  2.0

     Threshold (ethr) on eigenvalues was too large:
     Diagonalizing with lowered threshold

     Davidson diagonalization with overlap
     ethr =  4.41E-04,  avg # of iterations =  4.0

     negative rho (up, down):  3.311E-08 0.000E+00

     total cpu time spent up to now is       21.7 secs

     total energy              =   -2246.29181083 Ry
     estimated scf accuracy    <       1.62744857 Ry

     iteration #  2     ecut=    80.00 Ry     beta= 0.70
     Davidson diagonalization with overlap
     ethr =  5.22E-04,  avg # of iterations =  3.0

     total cpu time spent up to now is       26.4 secs

     total energy              =   -2246.28593699 Ry
     estimated scf accuracy    <       0.55898884 Ry

     iteration #  3     ecut=    80.00 Ry     beta= 0.70
     Davidson diagonalization with overlap
     ethr =  1.79E-04,  avg # of iterations =  2.0

     total cpu time spent up to now is       30.5 secs

     total energy              =   -2246.29464513 Ry
     estimated scf accuracy    <       0.12719878 Ry

     iteration #  4     ecut=    80.00 Ry     beta= 0.70
     Davidson diagonalization with overlap
     c_bands:  1 eigenvalues not converged
     ethr =  4.08E-05,  avg # of iterations = 20.0

     total cpu time spent up to now is       35.4 secs

     total energy              =   -2246.31595447 Ry
     estimated scf accuracy    <       0.02403340 Ry

     iteration #  5     ecut=    80.00 Ry     beta= 0.70
     Davidson diagonalization with overlap
     ethr =  7.70E-06,  avg # of iterations = 10.0

     total cpu time spent up to now is       39.4 secs

     total energy              =   -2246.31522919 Ry
     estimated scf accuracy    <       0.01482737 Ry

     iteration #  6     ecut=    80.00 Ry     beta= 0.70
     Davidson diagonalization with overlap
     ethr =  4.75E-06,  avg # of iterations =  2.0

     total cpu time spent up to now is       43.1 secs

     total energy              =   -2246.31441498 Ry
     estimated scf accuracy    <       0.00896211 Ry

     iteration #  7     ecut=    80.00 Ry     beta= 0.70
     Davidson diagonalization with overlap
     ethr =  2.87E-06,  avg # of iterations =  2.0

     negative rho (up, down):  6.876E-05 0.000E+00

     total cpu time spent up to now is       50.2 secs

     total energy              =   -2246.31341540 Ry
     estimated scf accuracy    <       0.00530051 Ry

     iteration #  8     ecut=    80.00 Ry     beta= 0.70
     Davidson diagonalization with overlap
     ethr =  1.70E-06,  avg # of iterations =  8.0

     negative rho (up, down):  1.213E-02 0.000E+00

     total cpu time spent up to now is       56.8 secs

     total energy              =   -2246.31296898 Ry
     estimated scf accuracy    <       0.00299132 Ry

     iteration #  9     ecut=    80.00 Ry     beta= 0.70
     Davidson diagonalization with overlap
     ethr =  9.59E-07,  avg # of iterations =  2.0

     negative rho (up, down):  2.462E-02 0.000E+00

     total cpu time spent up to now is       62.7 secs

     total energy              =   -2246.31280570 Ry
     estimated scf accuracy    <       0.00167032 Ry

     iteration # 10     ecut=    80.00 Ry     beta= 0.70
     Davidson diagonalization with overlap
     ethr =  5.35E-07,  avg # of iterations =  2.0

     negative rho (up, down):  2.249E-02 0.000E+00

     total cpu time spent up to now is       68.7 secs

     total energy              =   -2246.31284794 Ry
     estimated scf accuracy    <       0.00066248 Ry

     iteration # 11     ecut=    80.00 Ry     beta= 0.70
     Davidson diagonalization with overlap
     ethr =  2.12E-07,  avg # of iterations =  2.0

     negative rho (up, down):  1.221E-02 0.000E+00

     total cpu time spent up to now is       75.9 secs

     total energy              =   -2246.31282989 Ry
     estimated scf accuracy    <       0.00010907 Ry

     iteration # 12     ecut=    80.00 Ry     beta= 0.70
     Davidson diagonalization with overlap
     ethr =  3.50E-08,  avg # of iterations =  5.0

     negative rho (up, down):  3.988E-03 0.000E+00

     total cpu time spent up to now is       83.2 secs

     total energy              =   -2246.31287810 Ry
     estimated scf accuracy    <       0.00003890 Ry

     iteration # 13     ecut=    80.00 Ry     beta= 0.70
     Davidson diagonalization with overlap
     ethr =  1.25E-08,  avg # of iterations =  2.0

     negative rho (up, down):  7.968E-04 0.000E+00

     total cpu time spent up to now is       90.7 secs

     total energy              =   -2246.31289257 Ry
     estimated scf accuracy    <       0.00000906 Ry

     iteration # 14     ecut=    80.00 Ry     beta= 0.70
     Davidson diagonalization with overlap
     ethr =  2.90E-09,  avg # of iterations =  2.0

     negative rho (up, down):  3.935E-04 0.000E+00

     total cpu time spent up to now is      101.6 secs

     total energy              =   -2246.31289363 Ry
     estimated scf accuracy    <       0.00000202 Ry

     iteration # 15     ecut=    80.00 Ry     beta= 0.70
     Davidson diagonalization with overlap
     ethr =  6.48E-10,  avg # of iterations =  4.0

     negative rho (up, down):  2.052E-04 0.000E+00

     total cpu time spent up to now is      105.2 secs

     End of self-consistent calculation

          k = 0.0000 0.0000 0.0000 (105382 PWs)   bands (ev):

   -63.0235 -62.9637 -62.9492 -62.9450 -62.9232 -62.9024 -62.8925 -62.8837
   -62.8683 -62.8318 -62.7949 -62.7138 -37.3331 -37.2697 -37.2673 -37.2310
   -37.2258 -37.1949 -37.1897 -37.1620 -37.1568 -37.1473 -37.1314 -37.1260
   -37.1242 -37.1124 -37.1042 -37.0810 -37.0762 -37.0661 -37.0614 -37.0546
   -37.0468 -37.0372 -37.0209 -37.0092 -36.9941 -36.9878 -36.9804 -36.9665
   -36.9408 -36.9221 -36.8999 -36.8736 -36.8668 -36.8435 -36.8186 -36.7642
   -22.8118 -16.0053 -15.2806 -15.1447 -15.0306 -14.9502 -14.8120 -14.5939
   -14.5427 -14.5097 -14.4866 -14.4053 -14.3923 -14.3545 -14.2943 -14.2217
   -14.2155 -14.1782 -14.1115 -13.9805 -13.9449 -13.9186 -13.8816 -13.6686
    -8.2590  -7.9616  -7.7961  -7.5974  -7.4596  -7.3183  -7.2694  -7.2568
    -7.1859  -7.1048  -7.0210  -6.8822  -6.8194  -6.7660  -6.7191  -6.6747
    -6.5085  -6.4361  -6.3408  -6.3080  -6.1548  -6.1025  -5.9985  -5.9668
    -5.8734  -5.8662  -5.7810  -5.7714  -5.7493  -5.7082  -5.6563  -5.6116
    -5.5946  -5.5778  -5.5187  -5.3187  -5.2607  -5.2023  -5.1326  -5.0838
    -5.0470  -5.0014  -4.9051  -4.8259  -4.7443  -4.6746  -4.4024  -4.3814
    -4.3310  -4.3148  -4.2051  -4.1458  -4.0636  -4.0129  -3.9474  -3.8345
    -3.8051  -3.7420  -3.7275  -3.6340  -3.6061  -3.5884  -3.5606  -3.5195
    -3.4980  -3.4631  -3.3617  -3.2421  -3.0991  -3.0268  -2.9693  -2.9169
    -2.8753  -2.8542  -2.7785  -2.7568  -2.7120  -2.6713  -2.6201  -2.3542
    -2.2267  -2.0618  -2.0270  -1.8305  -1.0844  -0.8745  -0.4592  -0.2442
    -0.2149  -0.1144  -0.0584  -0.0191   0.0789   0.1372   0.1729   0.2091
     0.2232   0.2805   0.3426   0.4541   0.4747   0.4928   0.5142   0.5570
     0.6394   0.6759   0.7001   0.7165   0.7704   0.7989   0.8424   0.9073
     0.9212   0.9991   1.2348

     the Fermi energy is    -1.4575 ev

!    total energy              =   -2246.31289577 Ry
     estimated scf accuracy    <       0.00000074 Ry
     smearing contrib. (-TS)   =      -0.00000613 Ry
     internal energy E=F+TS    =   -2246.31288964 Ry

     The total energy is F=E-TS. E is the sum of the following terms:
     one-electron contribution =  -18454.92105979 Ry
     hartree contribution      =    9215.49009044 Ry
     xc contribution           =    -392.15339848 Ry
     ewald contribution        =    7395.12837125 Ry
     one-center paw contrib.   =      -9.85689306 Ry

     convergence has been achieved in  15 iterations

     negative rho (up, down):  2.052E-04 0.000E+00

     Forces acting on atoms (cartesian axes, Ry/au):

     atom    1 type  1   force =     0.01213141   -0.02555509    0.00759464
     atom    2 type  2   force =    -0.01367248    0.01779393    0.00046713
     atom    3 type  2   force =    -0.01178626    0.01354682   -0.00520641
     atom    4 type  1   force =     0.01488894   -0.01558838    0.02789549
     atom    5 type  2   force =    -0.00554082   -0.01248549   -0.00906678
     atom    6 type  2   force =     0.00101670    0.00901743   -0.00259846
     atom    7 type  1   force =    -0.00527573   -0.01190687   -0.01898494
     atom    8 type  2   force =    -0.00372377    0.05653149   -0.08063855
     atom    9 type  2   force =     0.01276602    0.00568686    0.01362296
     atom   10 type  1   force =    -0.00851817    0.00720208   -0.02262933
     atom   11 type  2   force =     0.00239410   -0.00300991   -0.01056063
     atom   12 type  2   force =     0.00024083    0.00229766    0.00751478
     atom   13 type  1   force =     0.00534403    0.00607948   -0.00827177
     atom   14 type  2   force =     0.00751872   -0.00156567    0.01169773
     atom   15 type  2   force =    -0.01222460    0.00335594   -0.00782714
     atom   16 type  1   force =    -0.00297348    0.01495862    0.00717573
     atom   17 type  2   force =     0.00497373   -0.00047751    0.00103939
     atom   18 type  2   force =    -0.00254432   -0.00634626    0.01358455
     atom   19 type  1   force =     0.00167327   -0.01184638   -0.00652444
     atom   20 type  2   force =     0.00083741   -0.00668191   -0.00117099
     atom   21 type  1   force =    -0.00400715    0.00413827   -0.00328149
     atom   22 type  2   force =    -0.00086590   -0.00187656   -0.00114281
     atom   23 type  2   force =    -0.00023197   -0.00067879    0.00856839
     atom   24 type  1   force =    -0.01143004   -0.00548974   -0.01924238
     atom   25 type  2   force =     0.01663984    0.01683375    0.00740193
     atom   26 type  2   force =    -0.01098222    0.00012439   -0.00236240
     atom   27 type  1   force =     0.00371133    0.00286130    0.00550069
     atom   28 type  2   force =     0.00401517   -0.00643568   -0.00379281
     atom   29 type  2   force =    -0.00024418   -0.00030952   -0.00627607
     atom   30 type  1   force =     0.01084068   -0.00266325   -0.05661439
     atom   31 type  2   force =     0.00177790    0.00176327    0.01716169
     atom   32 type  2   force =    -0.00774845    0.00682174    0.01011046
     atom   33 type  1   force =     0.01207331   -0.00021683   -0.01501366
     atom   34 type  2   force =     0.01067371   -0.02681334   -0.02207544
     atom   35 type  2   force =    -0.00911266    0.00877888    0.01655603
     atom   36 type  3   force =    -0.01263490   -0.03784473    0.14738929
     The non-local contrib.  to forces
     atom    1 type  1   force =    -0.00785991    0.02413035   -0.01233407
     atom    2 type  2   force =    -0.01183893    0.00453733   -0.27318825
     atom    3 type  2   force =    -0.01441964    0.00040166    0.27074157
     atom    4 type  1   force =    -0.00354142    0.02240928   -0.00744524
     atom    5 type  2   force =     0.00893045   -0.03370769   -0.25293763
     atom    6 type  2   force =    -0.00070506    0.00951369    0.26506179
     atom    7 type  1   force =    -0.01028102   -0.00850592   -0.00058474
     atom    8 type  2   force =     0.08195888    0.16329391    0.21971116
     atom    9 type  2   force =     0.00559498   -0.01027342    0.28058226
     atom   10 type  1   force =     0.00832215    0.00188237    0.00094568
     atom   11 type  2   force =     0.00257469    0.01192369   -0.25916700
     atom   12 type  2   force =    -0.01019734   -0.01505901    0.26071116
     atom   13 type  1   force =    -0.00150427    0.01829360   -0.00593456
     atom   14 type  2   force =     0.01298152   -0.01147688   -0.26676156
     atom   15 type  2   force =    -0.01245795   -0.00385662    0.25949962
     atom   16 type  1   force =    -0.00450818    0.02587426   -0.03075239
     atom   17 type  2   force =     0.00456277   -0.02704622   -0.25114580
     atom   18 type  2   force =    -0.00320368   -0.00103104    0.27403836
     atom   19 type  1   force =     0.00775155    0.00197827   -0.01693118
     atom   20 type  2   force =    -0.00312906   -0.02499090    0.26547246
     atom   21 type  1   force =     0.00158956    0.02498782    0.00876703
     atom   22 type  2   force =    -0.00727920    0.00206283   -0.26006336
     atom   23 type  2   force =     0.00974973   -0.01776302    0.26753448
     atom   24 type  1   force =     0.01699804    0.00944002   -0.01155462
     atom   25 type  2   force =     0.00513994    0.00562516   -0.26447804
     atom   26 type  2   force =    -0.00427122   -0.00993695    0.26074617
     atom   27 type  1   force =    -0.00427708    0.01072065    0.00975172
     atom   28 type  2   force =    -0.01004276   -0.02002561   -0.27629904
     atom   29 type  2   force =    -0.00222133    0.00145312    0.26791351
     atom   30 type  1   force =    -0.01643973    0.00402223    0.03769161
     atom   31 type  2   force =    -0.00325199   -0.00190086   -0.25844508
     atom   32 type  2   force =    -0.00145060   -0.01144188    0.27280375
     atom   33 type  1   force =    -0.00543220    0.00093490    0.01159490
     atom   34 type  2   force =    -0.00089306   -0.01098033   -0.26424604
     atom   35 type  2   force =    -0.00538561   -0.00817647    0.26881787
     atom   36 type  3   force =    -0.53271409   -1.47127079   -1.43467853
     The ionic contribution  to forces
     atom    1 type  1   force =     0.10567182    0.24463926    4.65181870
     atom    2 type  2   force =    -0.70370845    0.92632120   39.01630519
     atom    3 type  2   force =    -0.17571547    0.16058360  -36.67548623
     atom    4 type  1   force =    -0.11326088   -1.30342277   -1.77764951
     atom    5 type  2   force =    -1.36484778    0.75227318   38.40684990
     atom    6 type  2   force =     0.25498441   -0.67697320  -38.62550713
     atom    7 type  1   force =    -4.70542808   -2.85558125   -1.23658933
     atom    8 type  2   force =    -2.93028742   -5.66043762   30.59375410
     atom    9 type  2   force =     0.28635084   -0.22403066  -39.14930519
     atom   10 type  1   force =    -1.29773528    1.86543416    2.95115918
     atom   11 type  2   force =    -2.30052029   -0.00845674   38.11317761
     atom   12 type  2   force =     0.25448710    0.92233267  -38.72912368
     atom   13 type  1   force =     0.52765755    1.00629953    1.97518504
     atom   14 type  2   force =    -0.10294933    0.21629099   38.32493877
     atom   15 type  2   force =     0.09657345    0.02055233  -37.29938635
     atom   16 type  1   force =    -0.53426770    3.21292053   -0.87352708
     atom   17 type  2   force =     0.86186413    1.19408104   37.71435991
     atom   18 type  2   force =    -0.14707713   -0.75737221  -39.07141038
     atom   19 type  1   force =     2.90189926   -2.46679740   -0.94262017
     atom   20 type  2   force =     0.08091352   -0.28642326  -39.19785588
     atom   21 type  1   force =    -0.55147116    0.84268378   -0.22265635
     atom   22 type  2   force =     0.56429491   -1.36726261   38.12009604
     atom   23 type  2   force =    -0.05722544    0.79175099  -38.90851072
     atom   24 type  1   force =    -0.31078123    1.18254775    4.75899790
     atom   25 type  2   force =     0.86833293    0.55596360   39.06998055
     atom   26 type  2   force =    -0.21680601    0.15503220  -37.84094657
     atom   27 type  1   force =     0.69326505   -0.47962142   -3.74694240
     atom   28 type  2   force =     0.38243160    0.14025330   37.82733674
     atom   29 type  2   force =    -0.18945921   -0.62895515  -37.89596675
     atom   30 type  1   force =     1.76300557   -1.01409013   -5.07798388
     atom   31 type  2   force =     2.50471329   -0.57067872   36.62279436
     atom   32 type  2   force =    -0.29105554   -0.11003600  -39.41468906
     atom   33 type  1   force =     1.55273192    0.10235046    0.53305995
     atom   34 type  2   force =     1.97634850    0.96092792   38.01411007
     atom   35 type  2   force =    -0.13662352    0.73327596  -38.75383720
     atom   36 type  3   force =     0.45369402    2.42362466   48.74606985
     The local contribution  to forces
     atom    1 type  1   force =    -0.08557709   -0.29428780   -4.63285419
     atom    2 type  2   force =     0.70153198   -0.91281047  -38.76382693
     atom    3 type  2   force =     0.17767296   -0.14733022   36.41995055
     atom    4 type  1   force =     0.13179822    1.26559113    1.81209772
     atom    5 type  2   force =     1.35129800   -0.73271273  -38.18355584
     atom    6 type  2   force =    -0.25348778    0.67751423   38.37832142
     atom    7 type  1   force =     4.71049970    2.85227347    1.21733847
     atom    8 type  2   force =     2.84916073    5.56314231  -30.88935856
     atom    9 type  2   force =    -0.27915711    0.23942342   38.90316014
     atom   10 type  1   force =     1.28084457   -1.86034373   -2.97565840
     atom   11 type  2   force =     2.30016386   -0.00550370  -37.88577336
     atom   12 type  2   force =    -0.24505895   -0.90629450   38.49620532
     atom   13 type  1   force =    -0.52078649   -1.01849339   -1.97853339
     atom   14 type  2   force =     0.09819913   -0.20653076  -38.06760413
     atom   15 type  2   force =    -0.09699198   -0.01364766   37.05201862
     atom   16 type  1   force =     0.53582885   -3.22362342    0.91048559
     atom   17 type  2   force =    -0.86135912   -1.16888342  -37.48276585
     atom   18 type  2   force =     0.14769676    0.75270535   38.83149352
     atom   19 type  1   force =    -2.90799960    2.45306599    0.95215000
     atom   20 type  2   force =    -0.07723796    0.30375519   38.95186899
     atom   21 type  1   force =     0.54596422   -0.86380965    0.20961727
     atom   22 type  2   force =    -0.55805744    1.36359896  -37.88210614
     atom   23 type  2   force =     0.04795333   -0.77616884   38.66994076
     atom   24 type  1   force =     0.28223339   -1.19739410   -4.76760866
     atom   25 type  2   force =    -0.85695275   -0.54432122  -38.81925228
     atom   26 type  2   force =     0.21016134   -0.14552422   37.59803705
     atom   27 type  1   force =    -0.68538575    0.47199395    3.74173527
     atom   28 type  2   force =    -0.36907504   -0.12804695  -37.57611770
     atom   29 type  2   force =     0.19156451    0.62785458   37.64203676
     atom   30 type  1   force =    -1.73575000    1.00742807    4.98277798
     atom   31 type  2   force =    -2.49991015    0.57409149  -36.36825898
     atom   32 type  2   force =     0.28505211    0.12760453   39.17249305
     atom   33 type  1   force =    -1.53524295   -0.10383182   -0.56061991
     atom   34 type  2   force =    -1.96475844   -0.97611933  -37.79332239
     atom   35 type  2   force =     0.13279625   -0.71707984   38.52205609
     atom   36 type  3   force =     0.06055422   -1.00616208  -47.17862485
     The core correction contribution to forces
     atom    1 type  1   force =     0.00000000    0.00000000    0.00000000
     atom    2 type  2   force =     0.00033187   -0.00033352    0.02091566
     atom    3 type  2   force =     0.00065895   -0.00018619   -0.02093089
     atom    4 type  1   force =     0.00000000    0.00000000    0.00000000
     atom    5 type  2   force =    -0.00085576    0.00174604    0.02035199
     atom    6 type  2   force =     0.00025585   -0.00102824   -0.02099294
     atom    7 type  1   force =     0.00000000    0.00000000    0.00000000
     atom    8 type  2   force =    -0.00462179   -0.00951063   -0.00491040
     atom    9 type  2   force =    -0.00005635    0.00062749   -0.02127931
     atom   10 type  1   force =     0.00000000    0.00000000    0.00000000
     atom   11 type  2   force =     0.00020210   -0.00105706    0.02092666
     atom   12 type  2   force =     0.00102875    0.00125529   -0.02073494
     atom   13 type  1   force =     0.00000000    0.00000000    0.00000000
     atom   14 type  2   force =    -0.00067114    0.00007888    0.02084907
     atom   15 type  2   force =     0.00067419    0.00024943   -0.02051063
     atom   16 type  1   force =     0.00000000    0.00000000    0.00000000
     atom   17 type  2   force =    -0.00014219    0.00144393    0.02031537
     atom   18 type  2   force =     0.00001256   -0.00060956   -0.02106704
     atom   19 type  1   force =     0.00000000    0.00000000    0.00000000
     atom   20 type  2   force =     0.00030124    0.00105762   -0.02116602
     atom   21 type  1   force =     0.00000000    0.00000000    0.00000000
     atom   22 type  2   force =     0.00017346   -0.00037387    0.02065766
     atom   23 type  2   force =    -0.00070760    0.00144429   -0.02086213
     atom   24 type  1   force =     0.00000000    0.00000000    0.00000000
     atom   25 type  2   force =     0.00009640   -0.00051563    0.02091495
     atom   26 type  2   force =    -0.00006963    0.00050000   -0.02075411
     atom   27 type  1   force =     0.00000000    0.00000000    0.00000000
     atom   28 type  2   force =     0.00066835    0.00150099    0.02102431
     atom   29 type  2   force =    -0.00013225   -0.00061050   -0.02076032
     atom   30 type  1   force =     0.00000000    0.00000000    0.00000000
     atom   31 type  2   force =     0.00023097    0.00028171    0.02082942
     atom   32 type  2   force =    -0.00028124    0.00072109   -0.02097502
     atom   33 type  1   force =     0.00000000    0.00000000    0.00000000
     atom   34 type  2   force =    -0.00004788   -0.00067897    0.02113733
     atom   35 type  2   force =     0.00007092    0.00074437   -0.02097111
     atom   36 type  3   force =     0.00576489    0.01576259    0.01433631
     The Hubbard contrib.    to forces
     atom    1 type  1   force =     0.00000000    0.00000000    0.00000000
     atom    2 type  2   force =     0.00000000    0.00000000    0.00000000
     atom    3 type  2   force =     0.00000000    0.00000000    0.00000000
     atom    4 type  1   force =     0.00000000    0.00000000    0.00000000
     atom    5 type  2   force =     0.00000000    0.00000000    0.00000000
     atom    6 type  2   force =     0.00000000    0.00000000    0.00000000
     atom    7 type  1   force =     0.00000000    0.00000000    0.00000000
     atom    8 type  2   force =     0.00000000    0.00000000    0.00000000
     atom    9 type  2   force =     0.00000000    0.00000000    0.00000000
     atom   10 type  1   force =     0.00000000    0.00000000    0.00000000
     atom   11 type  2   force =     0.00000000    0.00000000    0.00000000
     atom   12 type  2   force =     0.00000000    0.00000000    0.00000000
     atom   13 type  1   force =     0.00000000    0.00000000    0.00000000
     atom   14 type  2   force =     0.00000000    0.00000000    0.00000000
     atom   15 type  2   force =     0.00000000    0.00000000    0.00000000
     atom   16 type  1   force =     0.00000000    0.00000000    0.00000000
     atom   17 type  2   force =     0.00000000    0.00000000    0.00000000
     atom   18 type  2   force =     0.00000000    0.00000000    0.00000000
     atom   19 type  1   force =     0.00000000    0.00000000    0.00000000
     atom   20 type  2   force =     0.00000000    0.00000000    0.00000000
     atom   21 type  1   force =     0.00000000    0.00000000    0.00000000
     atom   22 type  2   force =     0.00000000    0.00000000    0.00000000
     atom   23 type  2   force =     0.00000000    0.00000000    0.00000000
     atom   24 type  1   force =     0.00000000    0.00000000    0.00000000
     atom   25 type  2   force =     0.00000000    0.00000000    0.00000000
     atom   26 type  2   force =     0.00000000    0.00000000    0.00000000
     atom   27 type  1   force =     0.00000000    0.00000000    0.00000000
     atom   28 type  2   force =     0.00000000    0.00000000    0.00000000
     atom   29 type  2   force =     0.00000000    0.00000000    0.00000000
     atom   30 type  1   force =     0.00000000    0.00000000    0.00000000
     atom   31 type  2   force =     0.00000000    0.00000000    0.00000000
     atom   32 type  2   force =     0.00000000    0.00000000    0.00000000
     atom   33 type  1   force =     0.00000000    0.00000000    0.00000000
     atom   34 type  2   force =     0.00000000    0.00000000    0.00000000
     atom   35 type  2   force =     0.00000000    0.00000000    0.00000000
     atom   36 type  3   force =     0.00000000    0.00000000    0.00000000
     The SCF correction term to forces
     atom    1 type  1   force =    -0.00010461   -0.00003796    0.00094150
     atom    2 type  2   force =     0.00000985    0.00007834    0.00023875
     atom    3 type  2   force =     0.00001575    0.00007692    0.00049589
     atom    4 type  1   force =    -0.00010818   -0.00016706    0.00086982
     atom    5 type  2   force =    -0.00006693   -0.00008534    0.00020211
     atom    6 type  2   force =    -0.00003193   -0.00001010    0.00049570
     atom    7 type  1   force =    -0.00006754   -0.00009422    0.00082795
     atom    8 type  2   force =     0.00006463    0.00004247    0.00014246
     atom    9 type  2   force =     0.00003247   -0.00006102    0.00044236
     atom   10 type  1   force =     0.00004919    0.00022823    0.00090152
     atom   11 type  2   force =    -0.00002746    0.00008286    0.00025275
     atom   12 type  2   force =    -0.00001993    0.00006216    0.00043423
     atom   13 type  1   force =    -0.00002395   -0.00002130    0.00098844
     atom   14 type  2   force =    -0.00004266    0.00007106    0.00025288
     atom   15 type  2   force =    -0.00002350    0.00005742    0.00052889
     atom   16 type  1   force =    -0.00002764   -0.00021381    0.00094690
     atom   17 type  2   force =     0.00004695   -0.00007388    0.00025306
     atom   18 type  2   force =     0.00002598   -0.00003984    0.00050739
     atom   19 type  1   force =     0.00002086   -0.00009429    0.00085421
     atom   20 type  2   force =    -0.00001153   -0.00008160    0.00048676
     atom   21 type  1   force =    -0.00009095    0.00027526    0.00096786
     atom   22 type  2   force =     0.00000117    0.00009709    0.00025028
     atom   23 type  2   force =    -0.00000318    0.00005674    0.00044329
     atom   24 type  1   force =     0.00011857   -0.00008446    0.00090029
     atom   25 type  2   force =     0.00002212    0.00008080    0.00021404
     atom   26 type  2   force =     0.00000211    0.00005231    0.00053237
     atom   27 type  1   force =     0.00010792   -0.00023293    0.00093339
     atom   28 type  2   force =     0.00003182   -0.00011847    0.00024018
     atom   29 type  2   force =     0.00000292   -0.00005261    0.00047803
     atom   30 type  1   force =     0.00002365   -0.00002447    0.00087720
     atom   31 type  2   force =    -0.00000542   -0.00003140    0.00021927
     atom   32 type  2   force =    -0.00001438   -0.00002703    0.00045504
     atom   33 type  1   force =     0.00001534    0.00032859    0.00092870
     atom   34 type  2   force =     0.00002339    0.00003632    0.00022288
     atom   35 type  2   force =     0.00002810    0.00001380    0.00046768
     atom   36 type  3   force =     0.00006487    0.00019984    0.00026381

     Total force =     0.216623     Total SCF correction =     0.003748

     BFGS Geometry Optimization
     Energy error            =      0.0E+00 Ry
     Gradient error          =      1.5E-01 Ry/Bohr

     number of scf cycles    =   1
     number of bfgs steps    =   0

     energy             new  =   -2246.3128957717 Ry

     new trust radius        =       0.1526940285 bohr
     new conv_thr            =       0.0000010000 Ry


ATOMIC_POSITIONS (angstrom)
Mo            6.5809680727        1.7742830590        2.8276619397
S             8.1694741715        0.8191201685        4.4347855475
S             8.1869960663        0.8184104111        1.2751283149
Mo            8.1030414519        4.4868079293        2.7325800522
S             6.4969771812        3.7158044491        4.3418627173
S             6.5538878138        3.5165093759        1.1199051816
Mo            6.4871898988        7.2121364413        2.6618380882
S             8.0797571927        6.3737861676        4.1997894827
S             8.0876731346        6.3077116706        1.0910719594
Mo            8.1561114263        9.9059915923        2.8314868377
S             6.4964344993        8.9413340399        4.3775170897
S             6.6180746422        9.0499270819        1.1438839521
Mo            3.4244876032        1.7501729716        2.7720939296
S             4.9791442254        0.8161126948        4.3567232631
S             5.0513647732        0.8480379977        1.2225165183
Mo            4.9781831854        4.5210937613        2.6366817797
S             3.4304736481        3.6713469989        4.2802596018
S             3.4365741840        3.5448704008        1.0655403173
Mo            3.4547471963        7.2100557052        2.6272242762
S             4.9836773328        6.3233963719        1.0366340713
Mo            5.0101434291        9.9037899277        2.7416644690
S             3.4704999008        8.9427582357        4.3249865605
S             3.4083064144        9.0646307843        1.1006024968
Mo            0.2900419719        1.7446044846        2.8392620775
S             1.8592676351        0.8016020458        4.4021263696
S             1.8549884951        0.8544917424        1.2081507281
Mo            1.8626552597        4.4971808955        2.6631082187
S             0.2743385832        3.6509932085        4.3355770309
S             0.2311019957        3.5270854370        1.1686967332
Mo            0.2768887900        7.2152367623        2.6717373827
S             1.9031790722        6.3137319153        4.2315256992
S             1.8581379108        6.3139537239        1.0499095101
Mo            1.8507355831        9.9400244144        2.7650013665
S             0.3015611837        9.0758088184        4.4021876441
S             0.2719491865        9.0481712976        1.1591618519
O             8.3993227900        7.2659067621        5.4274397605



     Writing config-only to output data dir ./MoS2-V-O.save/
     NEW-OLD atomic charge density approx. for the potential

     negative rho (up, down):  1.424E-04 0.000E+00

     total cpu time spent up to now is      112.5 secs

     Self-consistent Calculation

     iteration #  1     ecut=    80.00 Ry     beta= 0.70
     Davidson diagonalization with overlap
     ethr =  1.00E-06,  avg # of iterations = 14.0

     negative rho (up, down):  7.461E-04 0.000E+00

     total cpu time spent up to now is      132.4 secs

     total energy              =   -2246.34702421 Ry
     estimated scf accuracy    <       0.00479277 Ry

     iteration #  2     ecut=    80.00 Ry     beta= 0.70
     Davidson diagonalization with overlap
     ethr =  1.54E-06,  avg # of iterations =  4.0

     negative rho (up, down):  1.312E-03 0.000E+00

     total cpu time spent up to now is      144.2 secs

     total energy              =   -2246.34715976 Ry
     estimated scf accuracy    <       0.00213444 Ry

     iteration #  3     ecut=    80.00 Ry     beta= 0.70
     Davidson diagonalization with overlap
     ethr =  6.84E-07,  avg # of iterations =  3.0

     negative rho (up, down):  2.097E-03 0.000E+00

     total cpu time spent up to now is      159.0 secs

     total energy              =   -2246.34716774 Ry
     estimated scf accuracy    <       0.00042205 Ry

     iteration #  4     ecut=    80.00 Ry     beta= 0.70
     Davidson diagonalization with overlap
     ethr =  1.35E-07,  avg # of iterations =  4.0

     negative rho (up, down):  2.159E-03 0.000E+00

     total cpu time spent up to now is      169.1 secs

     total energy              =   -2246.34721391 Ry
     estimated scf accuracy    <       0.00017157 Ry

     iteration #  5     ecut=    80.00 Ry     beta= 0.70
     Davidson diagonalization with overlap
     ethr =  5.50E-08,  avg # of iterations =  2.0

     negative rho (up, down):  2.003E-03 0.000E+00

     total cpu time spent up to now is      179.9 secs

     total energy              =   -2246.34720546 Ry
     estimated scf accuracy    <       0.00006494 Ry

     iteration #  6     ecut=    80.00 Ry     beta= 0.70
     Davidson diagonalization with overlap
     ethr =  2.08E-08,  avg # of iterations =  5.0

     negative rho (up, down):  1.656E-03 0.000E+00

     total cpu time spent up to now is      191.0 secs

     total energy              =   -2246.34721319 Ry
     estimated scf accuracy    <       0.00003508 Ry

     iteration #  7     ecut=    80.00 Ry     beta= 0.70
     Davidson diagonalization with overlap
     ethr =  1.12E-08,  avg # of iterations =  4.0

     negative rho (up, down):  1.145E-03 0.000E+00

     total cpu time spent up to now is      201.3 secs

     total energy              =   -2246.34721539 Ry
     estimated scf accuracy    <       0.00000221 Ry

     iteration #  8     ecut=    80.00 Ry     beta= 0.70
     Davidson diagonalization with overlap
     ethr =  7.08E-10,  avg # of iterations =  5.0

     negative rho (up, down):  8.428E-04 0.000E+00

     total cpu time spent up to now is      211.8 secs

     total energy              =   -2246.34721430 Ry
     estimated scf accuracy    <       0.00000159 Ry

     iteration #  9     ecut=    80.00 Ry     beta= 0.70
     Davidson diagonalization with overlap
     ethr =  5.09E-10,  avg # of iterations =  2.0

     negative rho (up, down):  1.986E-04 0.000E+00

     total cpu time spent up to now is      215.1 secs

     End of self-consistent calculation

          k = 0.0000 0.0000 0.0000 (105382 PWs)   bands (ev):

   -63.0333 -62.9859 -62.9738 -62.9683 -62.9491 -62.9308 -62.9182 -62.9103
   -62.8953 -62.8551 -62.8405 -62.7528 -37.3549 -37.2903 -37.2858 -37.2554
   -37.2345 -37.2243 -37.2151 -37.1888 -37.1788 -37.1722 -37.1579 -37.1501
   -37.1481 -37.1359 -37.1290 -37.1097 -37.1022 -37.0941 -37.0891 -37.0797
   -37.0708 -37.0698 -37.0436 -37.0387 -37.0234 -37.0125 -37.0091 -37.0073
   -36.9845 -36.9482 -36.9332 -36.9051 -36.8985 -36.8864 -36.8607 -36.8065
   -21.9513 -16.0348 -15.2993 -15.1854 -15.0577 -14.9807 -14.8366 -14.6015
   -14.5665 -14.5288 -14.5183 -14.4424 -14.4245 -14.3870 -14.3240 -14.2433
   -14.2311 -14.2088 -14.1407 -14.0003 -13.9789 -13.9559 -13.9313 -13.7980
    -8.0612  -7.8231  -7.7093  -7.6026  -7.4642  -7.3425  -7.3082  -7.2857
    -7.2172  -7.0838  -7.0011  -6.9166  -6.8393  -6.7961  -6.7296  -6.6899
    -6.5299  -6.4674  -6.3794  -6.3355  -6.1676  -6.1011  -6.0186  -5.9903
    -5.9008  -5.8858  -5.8019  -5.7947  -5.7792  -5.7432  -5.6840  -5.6471
    -5.6132  -5.5851  -5.5357  -5.3146  -5.2654  -5.2162  -5.1577  -5.1076
    -5.0681  -5.0297  -4.9467  -4.8302  -4.7565  -4.6892  -4.4457  -4.3993
    -4.3619  -4.3286  -4.2136  -4.1666  -4.0797  -4.0295  -3.9550  -3.8526
    -3.8326  -3.7601  -3.7460  -3.6674  -3.6452  -3.6182  -3.5954  -3.5532
    -3.5166  -3.4790  -3.3839  -3.2701  -3.1228  -3.0534  -2.9958  -2.9388
    -2.8995  -2.8742  -2.8052  -2.7768  -2.7472  -2.7012  -2.6603  -2.3702
    -2.2989  -2.0895  -2.0682  -1.9215  -1.0683  -0.8976  -0.4219  -0.2738
    -0.2511  -0.1188  -0.0826  -0.0235   0.0509   0.1227   0.1644   0.2033
     0.2104   0.2595   0.3199   0.4282   0.4462   0.4608   0.4980   0.5446
     0.6242   0.6463   0.6772   0.6945   0.7375   0.7875   0.7978   0.8899
     0.9049   0.9716   1.2226

     the Fermi energy is    -1.4949 ev

!    total energy              =   -2246.34721245 Ry
     estimated scf accuracy    <       0.00000046 Ry
     smearing contrib. (-TS)   =      -0.00000061 Ry
     internal energy E=F+TS    =   -2246.34721184 Ry

     The total energy is F=E-TS. E is the sum of the following terms:
     one-electron contribution =  -18449.24832460 Ry
     hartree contribution      =    9212.38836333 Ry
     xc contribution           =    -392.11127295 Ry
     ewald contribution        =    7392.48456478 Ry
     one-center paw contrib.   =      -9.86054240 Ry

     convergence has been achieved in   9 iterations

     negative rho (up, down):  1.986E-04 0.000E+00

     Forces acting on atoms (cartesian axes, Ry/au):

     atom    1 type  1   force =     0.00207448   -0.01288937   -0.00023358
     atom    2 type  2   force =    -0.00875492    0.01032198   -0.00035209
     atom    3 type  2   force =    -0.01096147    0.00968706   -0.00976491
     atom    4 type  1   force =     0.00730786   -0.00807348    0.01119920
     atom    5 type  2   force =    -0.00356994   -0.01043438   -0.00425878
     atom    6 type  2   force =     0.00174910    0.00665241    0.00420292
     atom    7 type  1   force =    -0.01013531    0.00085949   -0.01368341
     atom    8 type  2   force =     0.02578407    0.09074740    0.01864336
     atom    9 type  2   force =     0.00950916   -0.00102082    0.00585586
     atom   10 type  1   force =    -0.00370282    0.00728215   -0.00948432
     atom   11 type  2   force =     0.00251676   -0.00385949   -0.01126187
     atom   12 type  2   force =    -0.00195430    0.00219964    0.00137302
     atom   13 type  1   force =     0.00424426    0.00345358   -0.00303935
     atom   14 type  2   force =     0.00499361   -0.00216162    0.00837209
     atom   15 type  2   force =    -0.00839247    0.00264520   -0.00647448
     atom   16 type  1   force =    -0.00054148    0.00849240    0.00424297
     atom   17 type  2   force =     0.00464753    0.00016204    0.00225612
     atom   18 type  2   force =    -0.00092143   -0.00314973    0.01085448
     atom   19 type  1   force =     0.00145629   -0.00844800   -0.00036763
     atom   20 type  2   force =    -0.00086511   -0.00711558   -0.00663139
     atom   21 type  1   force =    -0.00396949    0.00198202   -0.00032780
     atom   22 type  2   force =    -0.00062525   -0.00192041   -0.00309866
     atom   23 type  2   force =     0.00106370   -0.00142943    0.00354512
     atom   24 type  1   force =    -0.00481806   -0.00187333   -0.00959269
     atom   25 type  2   force =     0.01161304    0.01281510    0.00051885
     atom   26 type  2   force =    -0.00761915    0.00055259   -0.00456493
     atom   27 type  1   force =     0.00080598    0.00025565    0.00581702
     atom   28 type  2   force =     0.00509639   -0.00657132   -0.00123325
     atom   29 type  2   force =     0.00103026    0.00062746   -0.00366712
     atom   30 type  1   force =     0.01017983    0.00548703   -0.02043425
     atom   31 type  2   force =    -0.00058230    0.00250642    0.00840602
     atom   32 type  2   force =    -0.00180825    0.00209054    0.00149010
     atom   33 type  1   force =     0.00790096    0.00218427   -0.00356353
     atom   34 type  2   force =     0.00570357   -0.02622454   -0.02477070
     atom   35 type  2   force =    -0.00707221    0.01176392    0.00393358
     atom   36 type  3   force =    -0.03138289   -0.08759685    0.04609404
     The non-local contrib.  to forces
     atom    1 type  1   force =    -0.00553311    0.02147707   -0.01150421
     atom    2 type  2   force =    -0.00834573   -0.00087491   -0.27254325
     atom    3 type  2   force =    -0.01269166   -0.00361324    0.26668625
     atom    4 type  1   force =    -0.00077587    0.02163902   -0.00428228
     atom    5 type  2   force =     0.01059827   -0.03183066   -0.25260446
     atom    6 type  2   force =    -0.00104859    0.00680042    0.27041700
     atom    7 type  1   force =    -0.01336843   -0.00664857   -0.00450970
     atom    8 type  2   force =     0.08949427    0.17137404    0.29885595
     atom    9 type  2   force =     0.00458386   -0.01285541    0.27890095
     atom   10 type  1   force =     0.00722942    0.00205560   -0.00020645
     atom   11 type  2   force =     0.00316742    0.00872316   -0.26404819
     atom   12 type  2   force =    -0.01153649   -0.01725907    0.25857101
     atom   13 type  1   force =    -0.00076727    0.02016731   -0.00615632
     atom   14 type  2   force =     0.01104715   -0.01182708   -0.26883874
     atom   15 type  2   force =    -0.00956196   -0.00484839    0.26020413
     atom   16 type  1   force =    -0.00455241    0.02741066   -0.03241921
     atom   17 type  2   force =     0.00403407   -0.02550023   -0.25123186
     atom   18 type  2   force =    -0.00157748    0.00114152    0.27294619
     atom   19 type  1   force =     0.00778735    0.00245447   -0.01835345
     atom   20 type  2   force =    -0.00426745   -0.02406414    0.26088669
     atom   21 type  1   force =     0.00180708    0.02627204    0.00802363
     atom   22 type  2   force =    -0.00640705    0.00122713   -0.26241486
     atom   23 type  2   force =     0.01051617   -0.01901226    0.26529939
     atom   24 type  1   force =     0.01352649    0.00923477   -0.01040103
     atom   25 type  2   force =     0.00224571    0.00198823   -0.26888543
     atom   26 type  2   force =    -0.00184339   -0.00887817    0.26055017
     atom   27 type  1   force =    -0.00416657    0.01090269    0.00799005
     atom   28 type  2   force =    -0.00883298   -0.01952997   -0.27611191
     atom   29 type  2   force =     0.00086943    0.00031916    0.26854464
     atom   30 type  1   force =    -0.01006801    0.00461338    0.03584830
     atom   31 type  2   force =    -0.00251081   -0.00170823   -0.26427190
     atom   32 type  2   force =     0.00237031   -0.01419388    0.26699623
     atom   33 type  1   force =    -0.00492242    0.00030548    0.01009190
     atom   34 type  2   force =    -0.00407443   -0.01109851   -0.27131066
     atom   35 type  2   force =    -0.00343841   -0.00833998    0.26264178
     atom   36 type  3   force =    -0.48417162   -1.27783266   -1.51792208
     The ionic contribution  to forces
     atom    1 type  1   force =    -0.18646273    0.55952463    4.77545107
     atom    2 type  2   force =    -0.52609422    0.75580885   39.12048795
     atom    3 type  2   force =    -0.17587340    0.16465628  -36.79646905
     atom    4 type  1   force =    -0.27746655   -1.21745660   -0.90268221
     atom    5 type  2   force =    -1.37942595    0.79493559   38.34441419
     atom    6 type  2   force =     0.24160001   -0.66586753  -38.49733759
     atom    7 type  1   force =    -4.64230480   -2.67823854   -1.50455034
     atom    8 type  2   force =    -2.57985879   -4.77134828   30.34928361
     atom    9 type  2   force =     0.17609376   -0.40016828  -39.07968639
     atom   10 type  1   force =    -1.08226975    1.65749003    2.88990974
     atom   11 type  2   force =    -2.17121717   -0.09223271   38.03866290
     atom   12 type  2   force =     0.19730944    0.89552146  -38.68474022
     atom   13 type  1   force =     0.49678678    0.94637785    1.89651046
     atom   14 type  2   force =    -0.18824379    0.21282942   38.40574927
     atom   15 type  2   force =     0.12094314    0.07386959  -37.33431035
     atom   16 type  1   force =    -0.33643346    2.98212146   -0.61523389
     atom   17 type  2   force =     0.85133685    1.14949675   37.75110255
     atom   18 type  2   force =    -0.10936680   -0.73036175  -39.00029416
     atom   19 type  1   force =     2.89140698   -2.30330186   -0.88606529
     atom   20 type  2   force =     0.07738405   -0.31433951  -39.28968750
     atom   21 type  1   force =    -0.56253710    0.76929664   -0.11985460
     atom   22 type  2   force =     0.53425635   -1.37592017   38.12882808
     atom   23 type  2   force =    -0.01594060    0.76690185  -38.87383829
     atom   24 type  1   force =    -0.05208453    1.06135754    4.49782549
     atom   25 type  2   force =     0.76205595    0.48403590   39.05252711
     atom   26 type  2   force =    -0.17428606    0.18025732  -37.81239588
     atom   27 type  1   force =     0.62364183   -0.54649524   -3.45732742
     atom   28 type  2   force =     0.44306539    0.12153535   37.87891279
     atom   29 type  2   force =    -0.18852049   -0.56093246  -37.92333518
     atom   30 type  1   force =     1.63441948   -0.91679341   -5.89118251
     atom   31 type  2   force =     2.34658060   -0.46995166   36.74535586
     atom   32 type  2   force =    -0.17768282   -0.21772858  -39.44911914
     atom   33 type  1   force =     1.39712841    0.22625965    0.55050515
     atom   34 type  2   force =     1.83705363    0.87488075   37.81837805
     atom   35 type  2   force =    -0.12005916    0.84244349  -38.67227712
     atom   36 type  3   force =     0.31506551    1.74153620   48.54648288
     The local contribution  to forces
     atom    1 type  1   force =     0.19402159   -0.59414951   -4.76396084
     atom    2 type  2   force =     0.52538345   -0.74453617  -38.86900775
     atom    3 type  2   force =     0.17701280   -0.15142713   36.54084542
     atom    4 type  1   force =     0.28551156    1.18755165    0.91804835
     atom    5 type  2   force =     1.36614451   -0.77525302  -38.11620269
     atom    6 type  2   force =    -0.23914586    0.66661872   38.25207796
     atom    7 type  1   force =     4.64536464    2.68590459    1.49535874
     atom    8 type  2   force =     2.52127116    4.70123684  -30.61952907
     atom    9 type  2   force =    -0.17107518    0.41147240   38.82767924
     atom   10 type  1   force =     1.07130384   -1.65215281   -2.89901050
     atom   11 type  2   force =     2.17032546    0.08072925  -37.80674772
     atom   12 type  2   force =    -0.18876948   -0.87737583   38.44811208
     atom   13 type  1   force =    -0.49170631   -0.96318472   -1.89317625
     atom   14 type  2   force =     0.18281834   -0.20333222  -38.14921393
     atom   15 type  2   force =    -0.12035962   -0.06672855   37.08813177
     atom   16 type  1   force =     0.34026478   -3.00102735    0.65192101
     atom   17 type  2   force =    -0.85056249   -1.12518651  -37.51772763
     atom   18 type  2   force =     0.11012808    0.72674583   38.75919469
     atom   19 type  1   force =    -2.89769764    2.29245150    0.90420251
     atom   20 type  2   force =    -0.07430335    0.33026469   39.04310851
     atom   21 type  1   force =     0.55671184   -0.79346288    0.11171674
     atom   22 type  2   force =    -0.52861264    1.37321227  -37.89000231
     atom   23 type  2   force =     0.00720254   -0.75074387   38.63283831
     atom   24 type  1   force =     0.03375216   -1.07269784   -4.49683908
     atom   25 type  2   force =    -0.75283102   -0.47293618  -38.80386097
     atom   26 type  2   force =     0.16868855   -0.17132982   37.56797705
     atom   27 type  1   force =    -0.61842062    0.53582143    3.45524945
     atom   28 type  2   force =    -0.42977949   -0.11007520  -37.62490291
     atom   29 type  2   force =     0.18896520    0.56169986   37.67177848
     atom   30 type  1   force =    -1.61409309    0.91794288    5.83498401
     atom   31 type  2   force =    -2.34460405    0.47386167  -36.49349175
     atom   32 type  2   force =     0.17386592    0.23329486   39.20434012
     atom   33 type  1   force =    -1.38423609   -0.22437420   -0.56387882
     atom   34 type  2   force =    -1.82730048   -0.88925328  -37.59295547
     atom   35 type  2   force =     0.11643002   -0.82320397   38.43426996
     atom   36 type  3   force =     0.13245393   -0.56506655  -46.99784220
     The core correction contribution to forces
     atom    1 type  1   force =     0.00000000    0.00000000    0.00000000
     atom    2 type  2   force =     0.00028413   -0.00015243    0.02096180
     atom    3 type  2   force =     0.00056637    0.00003325   -0.02086349
     atom    4 type  1   force =     0.00000000    0.00000000    0.00000000
     atom    5 type  2   force =    -0.00098752    0.00163098    0.02035343
     atom    6 type  2   force =     0.00028146   -0.00089516   -0.02109471
     atom    7 type  1   force =     0.00000000    0.00000000    0.00000000
     atom    8 type  2   force =    -0.00506250   -0.01027675   -0.00954053
     atom    9 type  2   force =    -0.00010231    0.00055955   -0.02124421
     atom   10 type  1   force =     0.00000000    0.00000000    0.00000000
     atom   11 type  2   force =     0.00022817   -0.00096406    0.02116424
     atom   12 type  2   force =     0.00103878    0.00136427   -0.02067804
     atom   13 type  1   force =     0.00000000    0.00000000    0.00000000
     atom   14 type  2   force =    -0.00065120    0.00011355    0.02093297
     atom   15 type  2   force =     0.00057435    0.00032898   -0.02055208
     atom   16 type  1   force =     0.00000000    0.00000000    0.00000000
     atom   17 type  2   force =    -0.00012227    0.00133046    0.02033815
     atom   18 type  2   force =    -0.00004846   -0.00068028   -0.02106374
     atom   19 type  1   force =     0.00000000    0.00000000    0.00000000
     atom   20 type  2   force =     0.00031199    0.00098788   -0.02104904
     atom   21 type  1   force =     0.00000000    0.00000000    0.00000000
     atom   22 type  2   force =     0.00011755   -0.00037017    0.02075521
     atom   23 type  2   force =    -0.00070292    0.00146748   -0.02081032
     atom   24 type  1   force =     0.00000000    0.00000000    0.00000000
     atom   25 type  2   force =     0.00018427   -0.00034122    0.02102300
     atom   26 type  2   force =    -0.00015254    0.00047259   -0.02074625
     atom   27 type  1   force =     0.00000000    0.00000000    0.00000000
     atom   28 type  2   force =     0.00070525    0.00140470    0.02111561
     atom   29 type  2   force =    -0.00027972   -0.00047938   -0.02079137
     atom   30 type  1   force =     0.00000000    0.00000000    0.00000000
     atom   31 type  2   force =     0.00004596    0.00037241    0.02108473
     atom   32 type  2   force =    -0.00033717    0.00073759   -0.02085010
     atom   33 type  1   force =     0.00000000    0.00000000    0.00000000
     atom   34 type  2   force =     0.00004704   -0.00071326    0.02143720
     atom   35 type  2   force =    -0.00001173    0.00089370   -0.02077268
     atom   36 type  3   force =     0.00537916    0.01409199    0.01589413
     The Hubbard contrib.    to forces
     atom    1 type  1   force =     0.00000000    0.00000000    0.00000000
     atom    2 type  2   force =     0.00000000    0.00000000    0.00000000
     atom    3 type  2   force =     0.00000000    0.00000000    0.00000000
     atom    4 type  1   force =     0.00000000    0.00000000    0.00000000
     atom    5 type  2   force =     0.00000000    0.00000000    0.00000000
     atom    6 type  2   force =     0.00000000    0.00000000    0.00000000
     atom    7 type  1   force =     0.00000000    0.00000000    0.00000000
     atom    8 type  2   force =     0.00000000    0.00000000    0.00000000
     atom    9 type  2   force =     0.00000000    0.00000000    0.00000000
     atom   10 type  1   force =     0.00000000    0.00000000    0.00000000
     atom   11 type  2   force =     0.00000000    0.00000000    0.00000000
     atom   12 type  2   force =     0.00000000    0.00000000    0.00000000
     atom   13 type  1   force =     0.00000000    0.00000000    0.00000000
     atom   14 type  2   force =     0.00000000    0.00000000    0.00000000
     atom   15 type  2   force =     0.00000000    0.00000000    0.00000000
     atom   16 type  1   force =     0.00000000    0.00000000    0.00000000
     atom   17 type  2   force =     0.00000000    0.00000000    0.00000000
     atom   18 type  2   force =     0.00000000    0.00000000    0.00000000
     atom   19 type  1   force =     0.00000000    0.00000000    0.00000000
     atom   20 type  2   force =     0.00000000    0.00000000    0.00000000
     atom   21 type  1   force =     0.00000000    0.00000000    0.00000000
     atom   22 type  2   force =     0.00000000    0.00000000    0.00000000
     atom   23 type  2   force =     0.00000000    0.00000000    0.00000000
     atom   24 type  1   force =     0.00000000    0.00000000    0.00000000
     atom   25 type  2   force =     0.00000000    0.00000000    0.00000000
     atom   26 type  2   force =     0.00000000    0.00000000    0.00000000
     atom   27 type  1   force =     0.00000000    0.00000000    0.00000000
     atom   28 type  2   force =     0.00000000    0.00000000    0.00000000
     atom   29 type  2   force =     0.00000000    0.00000000    0.00000000
     atom   30 type  1   force =     0.00000000    0.00000000    0.00000000
     atom   31 type  2   force =     0.00000000    0.00000000    0.00000000
     atom   32 type  2   force =     0.00000000    0.00000000    0.00000000
     atom   33 type  1   force =     0.00000000    0.00000000    0.00000000
     atom   34 type  2   force =     0.00000000    0.00000000    0.00000000
     atom   35 type  2   force =     0.00000000    0.00000000    0.00000000
     atom   36 type  3   force =     0.00000000    0.00000000    0.00000000
     The SCF correction term to forces
     atom    1 type  1   force =     0.00004910    0.00026098   -0.00020964
     atom    2 type  2   force =     0.00001781    0.00007917   -0.00024088
     atom    3 type  2   force =     0.00002479    0.00004044    0.00004591
     atom    4 type  1   force =     0.00003908    0.00019497    0.00012531
     atom    5 type  2   force =     0.00010112    0.00008525   -0.00020929
     atom    6 type  2   force =     0.00006245   -0.00000151    0.00015021
     atom    7 type  1   force =     0.00017365   -0.00015546    0.00002786
     atom    8 type  2   force =    -0.00005970   -0.00023591   -0.00041664
     atom    9 type  2   force =     0.00000939   -0.00002655    0.00021624
     atom   10 type  1   force =     0.00003404   -0.00010813   -0.00016715
     atom   11 type  2   force =     0.00001325   -0.00011259   -0.00028315
     atom   12 type  2   force =     0.00000381   -0.00004867    0.00011814
     atom   13 type  1   force =    -0.00006859    0.00009566   -0.00020728
     atom   14 type  2   force =     0.00002348    0.00005724   -0.00024752
     atom   15 type  2   force =     0.00001199    0.00002609    0.00006201
     atom   16 type  1   force =     0.00017997   -0.00000984   -0.00001498
     atom   17 type  2   force =    -0.00003826    0.00002410   -0.00021512
     atom   18 type  2   force =    -0.00005640    0.00000748    0.00008146
     atom   19 type  1   force =    -0.00004004   -0.00004959   -0.00014144
     atom   20 type  2   force =     0.00001000    0.00003803    0.00011991
     atom   21 type  1   force =     0.00004905   -0.00012124   -0.00020361
     atom   22 type  2   force =     0.00002091   -0.00006694   -0.00025482
     atom   23 type  2   force =    -0.00001112   -0.00004010    0.00006600
     atom   24 type  1   force =    -0.00001183    0.00023474   -0.00016812
     atom   25 type  2   force =    -0.00004151    0.00007091   -0.00027490
     atom   26 type  2   force =    -0.00002535    0.00003319    0.00005993
     atom   27 type  1   force =    -0.00024829    0.00002930   -0.00008509
     atom   28 type  2   force =    -0.00006141    0.00009634   -0.00023685
     atom   29 type  2   force =    -0.00000381    0.00002280    0.00014627
     atom   30 type  1   force =    -0.00007819   -0.00027329   -0.00007409
     atom   31 type  2   force =    -0.00009363   -0.00006525   -0.00026096
     atom   32 type  2   force =    -0.00002413   -0.00001693    0.00013296
     atom   33 type  1   force =    -0.00006858   -0.00000412   -0.00027180
     atom   34 type  2   force =    -0.00002183   -0.00003772   -0.00030986
     atom   35 type  2   force =     0.00000743   -0.00002679    0.00008161
     atom   36 type  3   force =    -0.00010950   -0.00032330   -0.00050872

     Total force =     0.159592     Total SCF correction =     0.001510
     Energy error            =      3.4E-02 Ry
     Gradient error          =      9.1E-02 Ry/Bohr

     number of scf cycles    =   2
     number of bfgs steps    =   1

     energy             old  =   -2246.3128957717 Ry
     energy             new  =   -2246.3472124494 Ry

     CASE: energy            _new < energy            _old

     new trust radius        =       0.3347239525 bohr
     new conv_thr            =       0.0000000907 Ry


ATOMIC_POSITIONS (angstrom)
Mo            6.5903182930        1.7461985412        2.8320068178
S             8.1526181971        0.8400017217        4.4347202809
S             8.1691037934        0.8361084504        1.2623777222
Mo            8.1192054405        4.4694687903        2.7604102739
S             6.4901246014        3.6980099340        4.3322079502
S             6.5562223902        3.5284911469        1.1224780371
Mo            6.4740328630        7.2058102132        2.6369294937
S             8.1029005932        6.4971878755        4.1695703319
S             8.1047256800        6.3101322438        1.1050437329
Mo            8.1473345219        9.9174998611        2.8085172871
S             6.5003546125        8.9357209461        4.3600673385
S             6.6162955432        9.0534768700        1.1497625533
Mo            3.4318855623        1.7572354592        2.7641186934
S             4.9885899728        0.8130412806        4.3720127528
S             5.0357378426        0.8526639658        1.2114269539
Mo            4.9758588916        4.5384659952        2.6451818519
S             3.4380456030        3.6712189001        4.2831070436
S             3.4341343103        3.5379463713        1.0844105066
Mo            3.4571889782        7.1946019290        2.6229321177
S             4.9833300006        6.3123654502        1.0293995490
Mo            5.0038213120        9.9082342023        2.7393650128
S             3.4693626906        8.9397370339        4.3212472651
S             3.4092139838        9.0628145050        1.1092543919
Mo            0.2784129638        1.7394531243        2.8182260510
S             1.8807251343        0.8243598866        4.4070959903
S             1.8408713430        0.8551107383        1.2022331197
Mo            1.8656844457        4.4991561915        2.6721490584
S             0.2817750534        3.6406464756        4.3320780856
S             0.2319692832        3.5275167742        1.1613055729
Mo            0.2934418772        7.2190349029        2.6175147980
S             1.9036767223        6.3172618445        4.2501399802
S             1.8516900224        6.3201213127        1.0574669779
Mo            1.8657874524        9.9420443981        2.7524488495
S             0.3136064459        9.0338367812        4.3645010470
S             0.2594967288        9.0650420665        1.1730078121
O             8.3608127509        7.1568635608        5.5616075189



     Writing config-only to output data dir ./MoS2-V-O.save/
     NEW-OLD atomic charge density approx. for the potential

     negative rho (up, down):  2.159E-04 0.000E+00

     total cpu time spent up to now is      222.4 secs

     Self-consistent Calculation

     iteration #  1     ecut=    80.00 Ry     beta= 0.70
     Davidson diagonalization with overlap
     c_bands:  1 eigenvalues not converged
     ethr =  1.00E-06,  avg # of iterations = 20.0

     negative rho (up, down):  6.161E-04 0.000E+00

     total cpu time spent up to now is      243.9 secs

     total energy              =   -2246.37363734 Ry
     estimated scf accuracy    <       0.03969469 Ry

     iteration #  2     ecut=    80.00 Ry     beta= 0.70
     Davidson diagonalization with overlap
     ethr =  1.27E-05,  avg # of iterations =  6.0

     negative rho (up, down):  1.024E-03 0.000E+00

     total cpu time spent up to now is      257.4 secs

     total energy              =   -2246.38760875 Ry
     estimated scf accuracy    <       0.03704771 Ry

     iteration #  3     ecut=    80.00 Ry     beta= 0.70
     Davidson diagonalization with overlap
     ethr =  1.19E-05,  avg # of iterations =  3.0

     negative rho (up, down):  1.901E-03 0.000E+00

     total cpu time spent up to now is      269.9 secs

     total energy              =   -2246.38678838 Ry
     estimated scf accuracy    <       0.00664714 Ry

     iteration #  4     ecut=    80.00 Ry     beta= 0.70
     Davidson diagonalization with overlap
     ethr =  2.13E-06,  avg # of iterations =  5.0

     negative rho (up, down):  2.040E-03 0.000E+00

     total cpu time spent up to now is      281.6 secs

     total energy              =   -2246.38825598 Ry
     estimated scf accuracy    <       0.00140711 Ry

     iteration #  5     ecut=    80.00 Ry     beta= 0.70
     Davidson diagonalization with overlap
     ethr =  4.51E-07,  avg # of iterations =  3.0

     negative rho (up, down):  2.045E-03 0.000E+00

     total cpu time spent up to now is      293.6 secs

     total energy              =   -2246.38821462 Ry
     estimated scf accuracy    <       0.00041811 Ry

     iteration #  6     ecut=    80.00 Ry     beta= 0.70
     Davidson diagonalization with overlap
     ethr =  1.34E-07,  avg # of iterations =  4.0

     negative rho (up, down):  1.859E-03 0.000E+00

     total cpu time spent up to now is      304.1 secs

     total energy              =   -2246.38827686 Ry
     estimated scf accuracy    <       0.00002045 Ry

     iteration #  7     ecut=    80.00 Ry     beta= 0.70
     Davidson diagonalization with overlap
     ethr =  6.55E-09,  avg # of iterations =  5.0

     negative rho (up, down):  1.506E-03 0.000E+00

     total cpu time spent up to now is      315.0 secs

     total energy              =   -2246.38828099 Ry
     estimated scf accuracy    <       0.00001236 Ry

     iteration #  8     ecut=    80.00 Ry     beta= 0.70
     Davidson diagonalization with overlap
     ethr =  3.96E-09,  avg # of iterations =  2.0

     negative rho (up, down):  1.164E-03 0.000E+00

     total cpu time spent up to now is      325.5 secs

     total energy              =   -2246.38827864 Ry
     estimated scf accuracy    <       0.00000806 Ry

     iteration #  9     ecut=    80.00 Ry     beta= 0.70
     Davidson diagonalization with overlap
     ethr =  2.58E-09,  avg # of iterations =  4.0

     negative rho (up, down):  8.550E-04 0.000E+00

     total cpu time spent up to now is      334.6 secs

     total energy              =   -2246.38827762 Ry
     estimated scf accuracy    <       0.00000141 Ry

     iteration # 10     ecut=    80.00 Ry     beta= 0.70
     Davidson diagonalization with overlap
     ethr =  4.53E-10,  avg # of iterations =  4.0

     negative rho (up, down):  5.159E-04 0.000E+00

     total cpu time spent up to now is      344.9 secs

     total energy              =   -2246.38827634 Ry
     estimated scf accuracy    <       0.00000061 Ry

     iteration # 11     ecut=    80.00 Ry     beta= 0.70
     Davidson diagonalization with overlap
     ethr =  1.95E-10,  avg # of iterations =  5.0

     negative rho (up, down):  3.716E-04 0.000E+00

     total cpu time spent up to now is      354.1 secs

     total energy              =   -2246.38827607 Ry
     estimated scf accuracy    <       0.00000011 Ry

     iteration # 12     ecut=    80.00 Ry     beta= 0.70
     Davidson diagonalization with overlap
     ethr =  3.54E-11,  avg # of iterations =  4.0

     negative rho (up, down):  1.872E-04 0.000E+00

     total cpu time spent up to now is      357.5 secs

     End of self-consistent calculation

          k = 0.0000 0.0000 0.0000 (105382 PWs)   bands (ev):

   -63.0216 -63.0034 -62.9965 -62.9930 -62.9825 -62.9591 -62.9503 -62.9398
   -62.9353 -62.8984 -62.8928 -62.8082 -37.3738 -37.3091 -37.2915 -37.2750
   -37.2627 -37.2468 -37.2201 -37.2145 -37.2031 -37.1890 -37.1823 -37.1773
   -37.1711 -37.1652 -37.1604 -37.1453 -37.1357 -37.1267 -37.1186 -37.1147
   -37.1115 -37.0978 -37.0812 -37.0759 -37.0592 -37.0527 -37.0439 -37.0346
   -37.0266 -36.9853 -36.9799 -36.9757 -36.9430 -36.9386 -36.9109 -36.8594
   -21.7447 -16.0768 -15.3280 -15.2384 -15.0879 -15.0168 -14.8715 -14.6224
   -14.5886 -14.5666 -14.5503 -14.4906 -14.4587 -14.4228 -14.3681 -14.2713
   -14.2543 -14.2346 -14.1845 -14.0525 -14.0216 -13.9883 -13.9683 -13.8294
    -7.9939  -7.7758  -7.7163  -7.6156  -7.4812  -7.3759  -7.3674  -7.3327
    -7.2523  -7.1330  -7.0124  -6.9751  -6.8856  -6.8105  -6.7253  -6.6914
    -6.5533  -6.5145  -6.4386  -6.3762  -6.2164  -6.1146  -6.0445  -6.0178
    -5.9388  -5.9097  -5.8378  -5.8324  -5.8086  -5.7943  -5.7327  -5.6987
    -5.6287  -5.5749  -5.5255  -5.3200  -5.2717  -5.2345  -5.1970  -5.1349
    -5.0899  -5.0591  -5.0141  -4.8526  -4.7913  -4.7010  -4.5246  -4.4449
    -4.4070  -4.3475  -4.2740  -4.2164  -4.1457  -4.0556  -3.9901  -3.8892
    -3.8564  -3.8020  -3.7630  -3.7285  -3.7159  -3.6633  -3.6233  -3.5823
    -3.5299  -3.4984  -3.4010  -3.3284  -3.1815  -3.1415  -3.0277  -2.9581
    -2.9154  -2.8853  -2.8336  -2.8043  -2.7855  -2.7315  -2.6947  -2.5180
    -2.3661  -2.1309  -2.1181  -2.0195  -1.0466  -0.9055  -0.3672  -0.3160
    -0.2781  -0.1138  -0.1051  -0.0208  -0.0013   0.1134   0.1580   0.1986
     0.2093   0.2475   0.3130   0.3799   0.4070   0.4276   0.4960   0.5139
     0.5852   0.6145   0.6535   0.6651   0.6936   0.7321   0.8375   0.8687
     0.9167   0.9427   1.1913

     the Fermi energy is    -1.5330 ev

!    total energy              =   -2246.38827598 Ry
     estimated scf accuracy    <       0.00000005 Ry
     smearing contrib. (-TS)   =      -0.00000003 Ry
     internal energy E=F+TS    =   -2246.38827595 Ry

     The total energy is F=E-TS. E is the sum of the following terms:
     one-electron contribution =  -18436.80371944 Ry
     hartree contribution      =    9205.84755962 Ry
     xc contribution           =    -392.12991719 Ry
     ewald contribution        =    7386.55900059 Ry
     one-center paw contrib.   =      -9.86119953 Ry

     convergence has been achieved in  12 iterations

     negative rho (up, down):  1.872E-04 0.000E+00

     Forces acting on atoms (cartesian axes, Ry/au):

     atom    1 type  1   force =    -0.01709557    0.01192644   -0.01330084
     atom    2 type  2   force =     0.00249972   -0.00478862   -0.00135988
     atom    3 type  2   force =    -0.00704574    0.00083137   -0.01577882
     atom    4 type  1   force =    -0.00520370    0.02517759   -0.00835122
     atom    5 type  2   force =     0.00278948   -0.00345214    0.00492001
     atom    6 type  2   force =     0.00277930    0.00201853    0.01451311
     atom    7 type  1   force =    -0.00638351    0.01884615    0.00533837
     atom    8 type  2   force =     0.03264068    0.01942148    0.06500795
     atom    9 type  2   force =     0.00062941   -0.01270371   -0.00467466
     atom   10 type  1   force =     0.00263121    0.00688086    0.01151551
     atom   11 type  2   force =    -0.00193421   -0.00086860   -0.00896850
     atom   12 type  2   force =    -0.00620797    0.00272128   -0.01137696
     atom   13 type  1   force =     0.00081040   -0.00278906    0.00690210
     atom   14 type  2   force =    -0.00065024   -0.00274866    0.00089207
     atom   15 type  2   force =    -0.00108987   -0.00019802   -0.00362224
     atom   16 type  1   force =     0.00420816   -0.00394078   -0.00050913
     atom   17 type  2   force =     0.00389809    0.00161695    0.00472640
     atom   18 type  2   force =     0.00222188    0.00426703    0.00353296
     atom   19 type  1   force =     0.00255562   -0.00007693    0.00743808
     atom   20 type  2   force =    -0.00484994   -0.00706172   -0.01605067
     atom   21 type  1   force =    -0.00247657   -0.00082767    0.00341721
     atom   22 type  2   force =     0.00016887   -0.00187320   -0.00465728
     atom   23 type  2   force =     0.00340365   -0.00268834   -0.00476963
     atom   24 type  1   force =     0.00557996    0.00443157    0.00721319
     atom   25 type  2   force =     0.00104387    0.00389792   -0.01045921
     atom   26 type  2   force =     0.00119455    0.00153083   -0.00660985
     atom   27 type  1   force =    -0.00503157   -0.00484640    0.00470089
     atom   28 type  2   force =     0.00490540   -0.00483686    0.00491817
     atom   29 type  2   force =     0.00218625    0.00261164    0.00265578
     atom   30 type  1   force =     0.00590796    0.01995562    0.04195395
     atom   31 type  2   force =    -0.00236162    0.00193783   -0.00698992
     atom   32 type  2   force =     0.01172203   -0.00877153   -0.01474510
     atom   33 type  1   force =    -0.00288936    0.00357847    0.01266160
     atom   34 type  2   force =     0.00170608   -0.01122849   -0.02190497
     atom   35 type  2   force =    -0.00039103    0.01692651   -0.02047131
     atom   36 type  3   force =    -0.03187168   -0.07487733   -0.02770716
     The non-local contrib.  to forces
     atom    1 type  1   force =    -0.00105316    0.01776819   -0.00971653
     atom    2 type  2   force =     0.00033543   -0.01260687   -0.26964050
     atom    3 type  2   force =    -0.00700393   -0.01214593    0.25915971
     atom    4 type  1   force =     0.00350099    0.01700323    0.00142989
     atom    5 type  2   force =     0.01298526   -0.02582749   -0.25147389
     atom    6 type  2   force =    -0.00176000    0.00109455    0.27843822
     atom    7 type  1   force =    -0.01833414   -0.00774349   -0.00889728
     atom    8 type  2   force =     0.06537479    0.09708747    0.34569640
     atom    9 type  2   force =     0.00019088   -0.01472336    0.27703998
     atom   10 type  1   force =     0.00437222    0.00122151   -0.00286524
     atom   11 type  2   force =     0.00081119    0.00477364   -0.27280773
     atom   12 type  2   force =    -0.01431590   -0.02022140    0.25463850
     atom   13 type  1   force =     0.00081006    0.02471485   -0.00655438
     atom   14 type  2   force =     0.00584227   -0.01284193   -0.27227429
     atom   15 type  2   force =    -0.00409722   -0.00821944    0.26117521
     atom   16 type  1   force =    -0.00292594    0.03050633   -0.03775063
[...]
     atom   28 type  2   force =    -0.00093052   -0.01149728   -0.27861071
     atom   29 type  2   force =    -0.00188135   -0.00698598    0.26667719
     atom   30 type  1   force =    -0.00519679    0.00276947    0.02060062
     atom   31 type  2   force =    -0.00942209   -0.00227487   -0.26861231
     atom   32 type  2   force =     0.00802962   -0.01218577    0.26396052
     atom   33 type  1   force =     0.00023018    0.00681115    0.00497823
     atom   34 type  2   force =    -0.00038865   -0.00813727   -0.27719788
     atom   35 type  2   force =     0.00165254   -0.01475182    0.26367289
     atom   36 type  3   force =     0.02034499    0.01351166   -2.30850184
     The ionic contribution  to forces
     atom    1 type  1   force =    -0.24633673    0.23760394    2.27397518
     atom    2 type  2   force =    -0.17989720    0.03262953   38.62898619
     atom    3 type  2   force =     0.07745293    0.01388746  -37.68110805
     atom    4 type  1   force =    -0.10070705   -0.97128249   -3.48162432
     atom    5 type  2   force =    -1.44302636    0.11125653   37.73076590
     atom    6 type  2   force =     0.10855927   -0.51080720  -38.57384650
     atom    7 type  1   force =    -3.32911819   -1.44696410   -2.48068684
     atom    8 type  2   force =    -1.14435606    0.18994009   27.90843639
     atom    9 type  2   force =     0.36365418   -0.05509755  -38.66413164
     atom   10 type  1   force =    -0.41442224    0.64130990    1.81193891
     atom   11 type  2   force =    -1.08721326   -0.32636806   37.82042722
     atom   12 type  2   force =     0.24768886    0.59277798  -38.84209102
     atom   13 type  1   force =     0.09557122    0.58742588    2.28750300
     atom   14 type  2   force =    -0.10590289   -0.11155573   38.51624728
     atom   15 type  2   force =    -0.01227336   -0.00065280  -37.92938102
     atom   16 type  1   force =    -0.50049583    2.76160376    1.13445457
     atom   17 type  2   force =     0.77736798    0.81952966   38.19249789
     atom   18 type  2   force =    -0.17551136   -0.52659455  -38.29506035
     atom   19 type  1   force =     2.58046908   -1.58945544    0.36414420
     atom   20 type  2   force =    -0.05841925   -0.21343100  -39.61264092
     atom   21 type  1   force =    -0.27315126    0.40949333   -0.52558779
     atom   22 type  2   force =     0.42843420   -1.11124783   38.13411225
     atom   23 type  2   force =    -0.25024101    0.50044555  -38.61348794
     atom   24 type  1   force =     0.12867140   -0.05752283    1.95905911
     atom   25 type  2   force =     0.29741069    0.02525068   38.73613491
     atom   26 type  2   force =    -0.05510805    0.03274774  -37.86101952
     atom   27 type  1   force =     0.57722634   -0.30176512   -0.40100748
     atom   28 type  2   force =     0.61547142   -0.45027752   37.62291669
     atom   29 type  2   force =     0.08751396   -0.27382646  -38.26065431
     atom   30 type  1   force =     0.97996535   -0.06997618   -2.05270166
     atom   31 type  2   force =     2.02101257    0.10121575   37.57873727
     atom   32 type  2   force =    -0.32967048   -0.13152013  -38.79562160
     atom   33 type  1   force =     0.70467657    0.22710102    1.46566566
     atom   34 type  2   force =     0.56774908    0.56821052   38.23967335
     atom   35 type  2   force =    -0.00605913    0.38831358  -38.27251151
     atom   36 type  3   force =    -0.94698538   -0.09239792   49.93748647
     The local contribution  to forces
     atom    1 type  1   force =     0.25226838   -0.26134743   -2.26767344
     atom    2 type  2   force =     0.18087715   -0.02326527  -38.37980692
     atom    3 type  2   force =    -0.07457536   -0.00369643   37.43305668
     atom    4 type  1   force =     0.09872363    0.94948756    3.45999305
     atom    5 type  2   force =     1.44081906   -0.08948952  -37.49081385
     atom    6 type  2   force =    -0.10804057    0.51233026   38.32619925
     atom    7 type  1   force =     3.33825195    1.45579882    2.48571216
     atom    8 type  2   force =     1.14558670   -0.16153173  -28.19592690
     atom    9 type  2   force =    -0.35738027    0.06636418   38.40449129
     atom   10 type  1   force =     0.41258364   -0.64573704   -1.81316343
     atom   11 type  2   force =     1.08211456    0.32840082  -37.57665384
     atom   12 type  2   force =    -0.23880889   -0.57688952   38.60063994
     atom   13 type  1   force =    -0.09665267   -0.61212412   -2.28035824
     atom   14 type  2   force =     0.10405373    0.12023879  -38.26608511
     atom   15 type  2   force =     0.01284821    0.01134582   37.68721001
     atom   16 type  1   force =     0.50078724   -2.79311864   -1.09490864
     atom   17 type  2   force =    -0.77586829   -0.79804233  -37.95568629
     atom   18 type  2   force =     0.17566286    0.52784236   38.04710278
     atom   19 type  1   force =    -2.59593052    1.58315852   -0.33942715
     atom   20 type  2   force =     0.05931409    0.22256890   39.37230201
     atom   21 type  1   force =     0.27409195   -0.43650880    0.52136268
     atom   22 type  2   force =    -0.42188910    1.11289001  -37.89126447
     atom   23 type  2   force =     0.24179021   -0.48650971   38.37052426
     atom   24 type  1   force =    -0.13383194    0.04519073   -1.95731262
     atom   25 type  2   force =    -0.29565046   -0.01487441  -38.48759988
     atom   26 type  2   force =     0.05197157   -0.02192407   37.61551603
     atom   27 type  1   force =    -0.57206127    0.29353848    0.39863506
     atom   28 type  2   force =    -0.61467530    0.46099479  -37.36605315
     atom   29 type  2   force =    -0.08630660    0.28051715   38.01373516
     atom   30 type  1   force =    -0.97486977    0.06683875    2.03244772
     atom   31 type  2   force =    -2.01325402   -0.09978013  -37.33130087
     atom   32 type  2   force =     0.32168512    0.14331900   38.55320420
     atom   33 type  1   force =    -0.70502903   -0.23360906   -1.46992195
     atom   34 type  2   force =    -0.56800869   -0.56111616  -37.98385286
     atom   35 type  2   force =     0.00536151   -0.37369557   38.02928289
     atom   36 type  3   force =     0.92597062    0.07778426  -47.65595582
     The core correction contribution to forces
     atom    1 type  1   force =     0.00000000    0.00000000    0.00000000
     atom    2 type  2   force =     0.00007265    0.00039885    0.02098816
     atom    3 type  2   force =     0.00016391    0.00047418   -0.02090438
     atom    4 type  1   force =     0.00000000    0.00000000    0.00000000
     atom    5 type  2   force =    -0.00027249    0.00110530    0.02082858
     atom    6 type  2   force =     0.00007346   -0.00039070   -0.02094722
     atom    7 type  1   force =     0.00000000    0.00000000    0.00000000
     atom    8 type  2   force =    -0.00014065    0.00162963   -0.00996352
     atom    9 type  2   force =     0.00064893    0.00058898   -0.02144378
     atom   10 type  1   force =     0.00000000    0.00000000    0.00000000
     atom   11 type  2   force =    -0.00014337   -0.00019076    0.02100355
     atom   12 type  2   force =     0.00086287    0.00124693   -0.02079296
     atom   13 type  1   force =     0.00000000    0.00000000    0.00000000
     atom   14 type  2   force =    -0.00012257    0.00001091    0.02107576
     atom   15 type  2   force =     0.00002183    0.00060867   -0.02075251
     atom   16 type  1   force =     0.00000000    0.00000000    0.00000000
     atom   17 type  2   force =     0.00028054    0.00096506    0.02056489
     atom   18 type  2   force =    -0.00013807   -0.00042158   -0.02096444
     atom   19 type  1   force =     0.00000000    0.00000000    0.00000000
     atom   20 type  2   force =    -0.00006131    0.00026009   -0.02110127
     atom   21 type  1   force =     0.00000000    0.00000000    0.00000000
     atom   22 type  2   force =     0.00018900   -0.00014805    0.02084480
     atom   23 type  2   force =    -0.00073285    0.00109146   -0.02080644
     atom   24 type  1   force =     0.00000000    0.00000000    0.00000000
     atom   25 type  2   force =     0.00010272    0.00033708    0.02101717
     atom   26 type  2   force =    -0.00015602    0.00053002   -0.02090301
     atom   27 type  1   force =     0.00000000    0.00000000    0.00000000
     atom   28 type  2   force =     0.00003496    0.00084825    0.02147504
     atom   29 type  2   force =     0.00016560    0.00016856   -0.02079096
     atom   30 type  1   force =     0.00000000    0.00000000    0.00000000
     atom   31 type  2   force =     0.00047108    0.00034946    0.02122012
     atom   32 type  2   force =    -0.00071040    0.00051524   -0.02077245
     atom   33 type  1   force =     0.00000000    0.00000000    0.00000000
     atom   34 type  2   force =    -0.00000144    0.00029128    0.02153505
     atom   35 type  2   force =    -0.00017031    0.00090485   -0.02082380
     atom   36 type  3   force =    -0.00022068   -0.00012050    0.02446706
     The Hubbard contrib.    to forces
     atom    1 type  1   force =     0.00000000    0.00000000    0.00000000
     atom    2 type  2   force =     0.00000000    0.00000000    0.00000000
     atom    3 type  2   force =     0.00000000    0.00000000    0.00000000
     atom    4 type  1   force =     0.00000000    0.00000000    0.00000000
     atom    5 type  2   force =     0.00000000    0.00000000    0.00000000
     atom    6 type  2   force =     0.00000000    0.00000000    0.00000000
     atom    7 type  1   force =     0.00000000    0.00000000    0.00000000
     atom    8 type  2   force =     0.00000000    0.00000000    0.00000000
     atom    9 type  2   force =     0.00000000    0.00000000    0.00000000
     atom   10 type  1   force =     0.00000000    0.00000000    0.00000000
     atom   11 type  2   force =     0.00000000    0.00000000    0.00000000
     atom   12 type  2   force =     0.00000000    0.00000000    0.00000000
     atom   13 type  1   force =     0.00000000    0.00000000    0.00000000
     atom   14 type  2   force =     0.00000000    0.00000000    0.00000000
     atom   15 type  2   force =     0.00000000    0.00000000    0.00000000
     atom   16 type  1   force =     0.00000000    0.00000000    0.00000000
     atom   17 type  2   force =     0.00000000    0.00000000    0.00000000
     atom   18 type  2   force =     0.00000000    0.00000000    0.00000000
     atom   19 type  1   force =     0.00000000    0.00000000    0.00000000
     atom   20 type  2   force =     0.00000000    0.00000000    0.00000000
     atom   21 type  1   force =     0.00000000    0.00000000    0.00000000
     atom   22 type  2   force =     0.00000000    0.00000000    0.00000000
     atom   23 type  2   force =     0.00000000    0.00000000    0.00000000
     atom   24 type  1   force =     0.00000000    0.00000000    0.00000000
     atom   25 type  2   force =     0.00000000    0.00000000    0.00000000
     atom   26 type  2   force =     0.00000000    0.00000000    0.00000000
     atom   27 type  1   force =     0.00000000    0.00000000    0.00000000
     atom   28 type  2   force =     0.00000000    0.00000000    0.00000000
     atom   29 type  2   force =     0.00000000    0.00000000    0.00000000
     atom   30 type  1   force =     0.00000000    0.00000000    0.00000000
     atom   31 type  2   force =     0.00000000    0.00000000    0.00000000
     atom   32 type  2   force =     0.00000000    0.00000000    0.00000000
     atom   33 type  1   force =     0.00000000    0.00000000    0.00000000
     atom   34 type  2   force =     0.00000000    0.00000000    0.00000000
     atom   35 type  2   force =     0.00000000    0.00000000    0.00000000
     atom   36 type  3   force =     0.00000000    0.00000000    0.00000000
     The SCF correction term to forces
     atom    1 type  1   force =     0.00000245   -0.00001987    0.00002180
     atom    2 type  2   force =    -0.00000491    0.00000764   -0.00000021
     atom    3 type  2   force =    -0.00000145   -0.00001353    0.00000300
     atom    4 type  1   force =     0.00000467   -0.00002256    0.00001029
     atom    5 type  2   force =    -0.00000315   -0.00001388    0.00000283
     atom    6 type  2   force =     0.00000005   -0.00000217    0.00001202
     atom    7 type  1   force =    -0.00001747    0.00002666   -0.00004610
     atom    8 type  2   force =    -0.00000281   -0.00000885   -0.00002193
     atom    9 type  2   force =     0.00000515    0.00000768   -0.00001231
     atom   10 type  1   force =    -0.00000342    0.00001370   -0.00003094
     atom   11 type  2   force =    -0.00000377    0.00002189   -0.00000908
     atom   12 type  2   force =    -0.00000507    0.00000997   -0.00001503
     atom   13 type  1   force =     0.00000479   -0.00001385    0.00001716
     atom   14 type  2   force =     0.00000291    0.00000661   -0.00000081
     atom   15 type  2   force =    -0.00000243   -0.00002108    0.00000223
     atom   16 type  1   force =    -0.00001744   -0.00000741    0.00002178
     atom   17 type  2   force =     0.00000034   -0.00000382    0.00000453
     atom   18 type  2   force =    -0.00000818    0.00000293    0.00000900
     atom   19 type  1   force =    -0.00000978    0.00001726   -0.00003997
     atom   20 type  2   force =    -0.00001224    0.00001651   -0.00001163
     atom   21 type  1   force =    -0.00000801    0.00001082   -0.00003554
     atom   22 type  2   force =     0.00000338    0.00000924   -0.00001714
     atom   23 type  2   force =     0.00000199    0.00000353   -0.00001421
     atom   24 type  1   force =     0.00000797   -0.00001092    0.00000980
     atom   25 type  2   force =    -0.00000085    0.00000686   -0.00000271
     atom   26 type  2   force =    -0.00000092   -0.00001706   -0.00000193
     atom   27 type  1   force =     0.00000847   -0.00001164    0.00000615
     atom   28 type  2   force =     0.00000254   -0.00001206   -0.00000760
     atom   29 type  2   force =     0.00000610   -0.00000188    0.00000984
     atom   30 type  1   force =     0.00001552    0.00001974   -0.00005360
     atom   31 type  2   force =     0.00001481   -0.00001484   -0.00001099
     atom   32 type  2   force =     0.00000587    0.00001213   -0.00000896
     atom   33 type  1   force =     0.00000795    0.00001130   -0.00004351
     atom   34 type  2   force =     0.00000269    0.00001924   -0.00000991
     atom   35 type  2   force =     0.00000440    0.00000662   -0.00001663
     atom   36 type  3   force =    -0.00000885    0.00001225    0.00002031

     Total force =     0.007037     Total SCF correction =     0.000155
     Energy error            =      9.2E-05 Ry
     Gradient error          =      3.0E-03 Ry/Bohr

     bfgs converged in  21 scf cycles and  20 bfgs steps
     (criteria: energy <  1.0E-04 Ry, force <  1.0E-02 Ry/Bohr)

     End of BFGS Geometry Optimization

     Final energy             =   -2246.4506433647 Ry

     File ./MoS2-V-O.bfgs deleted, as requested
Begin final coordinates

ATOMIC_POSITIONS (angstrom)
Mo            6.5634751813        1.7859780648        2.7749498782
S             8.1436742878        0.8720081574        4.3782343205
S             8.1491695105        0.8773939173        1.1953722818
Mo            8.1333989999        4.4926559163        2.7010660331
S             6.5378584651        3.7017536537        4.3235088673
S             6.5395964963        3.5784578676        1.1189712752
Mo            6.4993610276        7.2300519448        2.6338976635
S             8.0957569920        6.3524833550        4.1958792179
S             8.1559871708        6.3413440607        1.1149787443
Mo            8.1419381477        9.9593138071        2.7749008676
S             6.5192271311        8.9583520209        4.3256051828
S             6.6048882713        9.0772717376        1.1080467068
Mo            3.4375054174        1.7802904874        2.7716480702
S             5.0012869149        0.8318716001        4.3537434518
S             5.0020153253        0.8784048261        1.1725042238
Mo            5.0020013318        4.5779996068        2.6715302934
S             3.4785632202        3.6907103457        4.3227278654
S             3.4464674451        3.5880850165        1.1270443313
Mo            3.4812767238        7.2189601218        2.6510841822
S             4.9892775491        6.3304155869        1.0236187240
Mo            5.0053529928        9.9371812137        2.7183358125
S             3.4797425484        8.9848271266        4.3126181486
S             3.4086232903        9.0709383725        1.1126062423
Mo            0.2823654387        1.7749428121        2.7812780403
S             1.8661363933        0.8647797454        4.3737560161
S             1.8595147152        0.8745021975        1.1833463485
Mo            1.8817505372        4.5256526013        2.7221646326
S             0.2742166901        3.6441209102        4.3299560472
S             0.2953423601        3.5749227065        1.1495532841
Mo            0.3049249152        7.2553398140        2.7233188125
S             1.9426290283        6.3495079605        4.2953823342
S             1.8709364571        6.3398407346        1.0995408289
Mo            1.8561586432        9.9633533708        2.7616638673
S             0.2769589972        9.0525192336        4.3638999391
S             0.2652827284        9.0919858317        1.1640712436
O             8.0856945566        6.3386630184        5.6955190408
End final coordinates



     Writing all to output data dir ./MoS2-V-O.save/
 
     init_run     :      4.55s CPU      5.03s WALL (       1 calls)
     electrons    :   1888.92s CPU   2132.90s WALL (      21 calls)
     update_pot   :     60.84s CPU     64.76s WALL (      20 calls)
     forces       :     57.30s CPU     65.08s WALL (      21 calls)

     Called by init_run:
     wfcinit      :      0.47s CPU      0.53s WALL (       1 calls)
     potinit      :      2.33s CPU      2.56s WALL (       1 calls)
     hinit0       :      0.45s CPU      0.47s WALL (       1 calls)

     Called by electrons:
     c_bands      :    273.92s CPU    280.58s WALL (     193 calls)
     sum_band     :    107.60s CPU    138.22s WALL (     193 calls)
     v_of_rho     :    180.50s CPU    218.94s WALL (     207 calls)
     newd         :     61.30s CPU     90.77s WALL (     207 calls)
     PAW_pot      :      8.19s CPU      8.22s WALL (     227 calls)
     mix_rho      :   1278.09s CPU   1418.85s WALL (     193 calls)

     Called by c_bands:
     init_us_2    :      4.43s CPU      4.79s WALL (     407 calls)
     init_us_2:cp :      4.42s CPU      4.79s WALL (     407 calls)
     regterg      :    259.49s CPU    265.76s WALL (     193 calls)

     Called by *egterg:
     rdiaghg      :     18.01s CPU     18.19s WALL (     994 calls)
     h_psi        :    168.85s CPU    170.33s WALL (    1022 calls)
     s_psi        :     16.00s CPU     16.05s WALL (    1022 calls)
     g_psi        :      0.83s CPU      0.84s WALL (     828 calls)

     Called by h_psi:
     h_psi:calbec :     17.71s CPU     17.82s WALL (    1022 calls)
     vloc_psi     :    133.31s CPU    134.60s WALL (    1022 calls)
     add_vuspsi   :     15.69s CPU     15.77s WALL (    1022 calls)

     General routines
     calbec       :     25.85s CPU     26.00s WALL (    1319 calls)
     fft          :    122.58s CPU    142.03s WALL (   13851 calls)
     ffts         :    574.22s CPU    709.95s WALL (  313983 calls)
     fftw         :     84.21s CPU     84.92s WALL (  118090 calls)
     interpolate  :      2.55s CPU      2.93s WALL (     207 calls)
 
     Parallel routines
 
     PWSCF        :  33m40.44s CPU  38m 0.80s WALL

 
   This run was terminated on:  20:32:23   1Nov2023            

=------------------------------------------------------------------------------=
   JOB DONE.
=------------------------------------------------------------------------------=
