
     Program PWSCF v.7.2 starts on  1Nov2023 at 22:23:36 

     This program is part of the open-source Quantum ESPRESSO suite
     for quantum simulation of materials; please cite
         "P. Giannozzi et al., J. Phys.:Condens. Matter 21 395502 (2009);
         "P. Giannozzi et al., J. Phys.:Condens. Matter 29 465901 (2017);
         "P. Giannozzi et al., J. Chem. Phys. 152 154105 (2020);
          URL http://www.quantum-espresso.org", 
     in publications or presentations arising from this work. More details at
     http://www.quantum-espresso.org/quote

     Parallel version (MPI & OpenMP), running on      48 processor cores
     Number of MPI processes:                48
     Threads/MPI process:                     1

     MPI processes distributed on     1 nodes
     44355 MiB available memory on the printing compute node when the environment starts
 
     Waiting for input...
     Reading input from standard input
Warning: card &CELL ignored
Warning: card CELL_DYNAMICS = 'BFGS', ignored
Warning: card CELL_DOFREE = '2DXY' ignored
Warning: card / ignored

     Current dimensions of program PWSCF are:
     Max number of different atomic species (ntypx) = 10
     Max number of k-points (npk) =  40000
     Max angular momentum in pseudopotentials (lmaxx) =  4
     file O.pbe-n-kjpaw_psl.0.1.UPF: wavefunction(s)  2P renormalized

     IMPORTANT: XC functional enforced from input :
     Exchange-correlation= RVV10
                           (   1   4  13   4  26   0   0)
     Any further DFT definition will be discarded
     Please, verify this is what you really want


     gamma-point specific algorithms are used
     signal trapping enabled: kill the code with -SIGUSR1 to stop cleanly the simulation 
 
     R & G space division:  proc/nbgrp/npool/nimage =      48
     Subspace diagonalization in iterative solution of the eigenvalue problem:
     one sub-group per band group will be used
     scalapack distributed-memory algorithm (size of sub-group:  2*  2 procs)

 
     Parallelization info
     --------------------
     sticks:   dense  smooth     PW     G-vecs:    dense   smooth      PW
     Min         396     194     47               101632    35090    4376
     Max         398     196     50               101674    35128    4410
     Sum       19091    9389   2349              4879585  1685513  210763
 
     Using Slab Decomposition
 


     bravais-lattice index     =            0
     lattice parameter (alat)  =      17.8707  a.u.
     unit-cell volume          =   17436.2743 (a.u.)^3
     number of atoms/cell      =           36
     number of atomic types    =            3
     number of electrons       =       312.00
     number of Kohn-Sham states=          187
     kinetic-energy cutoff     =      80.0000  Ry
     charge density cutoff     =     650.0000  Ry
     scf convergence threshold =      1.0E-06
     mixing beta               =       0.7000
     number of iterations used =            8  local-TF  mixing
     energy convergence thresh.=      1.0E-04
     force convergence thresh. =      1.0E-02
     Exchange-correlation= RVV10
                           (   1   4  13   4  26   0   0)
     nstep                     =          200


     celldm(1)=  17.870686  celldm(2)=   0.000000  celldm(3)=   0.000000
     celldm(4)=   0.000000  celldm(5)=   0.000000  celldm(6)=   0.000000

     crystal axes: (cart. coord. in units of alat)
               a(1) = (   1.000000   0.000000   0.000000 )  
               a(2) = (   0.000000   1.155671   0.000000 )  
               a(3) = (   0.000000   0.000000   2.643601 )  

     reciprocal axes: (cart. coord. in units 2 pi/alat)
               b(1) = (  1.000000  0.000000  0.000000 )  
               b(2) = (  0.000000  0.865298  0.000000 )  
               b(3) = (  0.000000  0.000000  0.378272 )  


     PseudoPot. # 1 for Mo read from file:
     ../pseudo/Mo_ONCV_PBE-1.0.oncvpsp.upf
     MD5 check sum: 1b5d28e075c9ccadda658a603575cd1f
     Pseudo is Norm-conserving, Zval = 14.0
     Generated using ONCVPSP code by D. R. Hamann
     Using radial grid of 1526 points,  6 beta functions with: 
                l(1) =   0
                l(2) =   0
                l(3) =   1
                l(4) =   1
                l(5) =   2
                l(6) =   2

     PseudoPot. # 2 for S  read from file:
     ../pseudo/s_pbe_v1.4.uspp.F.UPF
     MD5 check sum: 88d86576ff6df21479756cfb9bdac1df
     Pseudo is Ultrasoft + core correction, Zval =  6.0
     Generated by new atomic code, or converted to UPF format
     Using radial grid of  907 points,  6 beta functions with: 
                l(1) =   0
                l(2) =   0
                l(3) =   1
                l(4) =   1
                l(5) =   2
                l(6) =   2
     Q(r) pseudized with  8 coefficients,  rinner =    1.300   1.300   1.300
                                                       1.300   1.300

     PseudoPot. # 3 for O  read from file:
     ../pseudo/O.pbe-n-kjpaw_psl.0.1.UPF
     MD5 check sum: 0234752ac141de4415c5fc33072bef88
     Pseudo is Projector augmented-wave + core cor, Zval =  6.0
     Generated using "atomic" code by A. Dal Corso  v.5.0.99 svn rev. 10869
     Shape of augmentation charge: BESSEL
     Using radial grid of 1095 points,  4 beta functions with: 
                l(1) =   0
                l(2) =   0
                l(3) =   1
                l(4) =   1
     Q(r) pseudized with 0 coefficients 


     atomic species   valence    mass     pseudopotential
        Mo            14.00    95.94000     Mo( 1.00)
        S              6.00    32.06500     S ( 1.00)
        O              6.00    15.99940     O ( 1.00)

     No symmetry found



   Cartesian axes

     site n.     atom                  positions (alat units)
         1           Mo  tau(   1) = (   0.6952221   0.1890506   0.2985846  )
         2           S   tau(   2) = (   0.8646417   0.0856217   0.4689279  )
         3           S   tau(   3) = (   0.8663890   0.0857843   0.1351291  )
         4           Mo  tau(   4) = (   0.8560186   0.4753274   0.2873942  )
         5           S   tau(   5) = (   0.6873294   0.3936244   0.4596353  )
         6           S   tau(   6) = (   0.6929804   0.3713468   0.1185692  )
         7           Mo  tau(   7) = (   0.6862796   0.7633098   0.2825370  )
         8           S   tau(   8) = (   0.8545980   0.6708292   0.4486168  )
         9           S   tau(   9) = (   0.8545123   0.6666874   0.1146125  )
        10           Mo  tau(  10) = (   0.8629403   1.0471007   0.3006803  )
        11           S   tau(  11) = (   0.6868280   0.9456650   0.4634891  )
        12           S   tau(  12) = (   0.6998113   0.9568511   0.1205389  )
        13           Mo  tau(  13) = (   0.3618216   0.1847309   0.2935964  )
        14           S   tau(  14) = (   0.5260962   0.0863870   0.4600448  )
        15           S   tau(  15) = (   0.5348379   0.0894875   0.1297123  )
        16           Mo  tau(  16) = (   0.5265817   0.4772436   0.2784130  )
        17           S   tau(  17) = (   0.3624753   0.3882513   0.4525556  )
        18           S   tau(  18) = (   0.3635411   0.3752055   0.1119148  )
        19           Mo  tau(  19) = (   0.3652268   0.7630864   0.2781795  )
        20           S   tau(  20) = (   0.5269494   0.6690381   0.1096838  )
        21           Mo  tau(  21) = (   0.5300192   1.0470394   0.2900995  )
        22           S   tau(  22) = (   0.3670346   0.9457522   0.4574073  )
        23           S   tau(  23) = (   0.3604225   0.9585725   0.1159032  )
        24           Mo  tau(  24) = (   0.0313099   0.1847895   0.3013130  )
        25           S   tau(  25) = (   0.1956761   0.0838230   0.4650863  )
        26           S   tau(  26) = (   0.1967693   0.0903508   0.1278874  )
        27           Mo  tau(  27) = (   0.1967578   0.4753919   0.2813011  )
        28           S   tau(  28) = (   0.0287851   0.3864324   0.4586755  )
        29           S   tau(  29) = (   0.0244514   0.3729871   0.1239344  )
        30           Mo  tau(  30) = (   0.0286728   0.7631204   0.2856894  )
        31           S   tau(  31) = (   0.2011512   0.6675435   0.4465001  )
        32           S   tau(  32) = (   0.1969214   0.6672839   0.1104564  )
        33           Mo  tau(  33) = (   0.1950294   1.0511147   0.2932237  )
        34           S   tau(  34) = (   0.0312912   0.9612169   0.4667423  )
        35           S   tau(  35) = (   0.0292670   0.9563028   0.1216485  )
        36           O   tau(  36) = (   0.8888889   1.0272628   0.5656742  )

     number of k points=     1  Gaussian smearing, width (Ry)=  0.0100
                       cart. coord. in units 2pi/alat
        k(    1) = (   0.0000000   0.0000000   0.0000000), wk =   2.0000000

     Dense  grid:  2439793 G-vectors     FFT dimensions: ( 150, 180, 384)

     Smooth grid:   842757 G-vectors     FFT dimensions: ( 108, 120, 270)

     Estimated max dynamical RAM per process >     269.22 MB

     Estimated total dynamical RAM >      12.62 GB

     Initial potential from superposition of free atoms

     starting charge     311.9873, renormalised to     312.0000

     negative rho (up, down):  2.750E-04 0.000E+00


---------------------------------------------------------------------------------
Carrying out rVV10 run using the following parameters:
Nqs =      20    Nr_points =    1024   r_max =   100.000
b_value =  6.30000    beta =  0.00901
     q_mesh =  0.00010000  0.00030000  0.00058939  0.00100810
               0.00161396  0.00249058  0.00375900  0.00559430
               0.00824984  0.01209221  0.01765183  0.02569619
               0.03733578  0.05417739  0.07854596  0.11380545
               0.16482331  0.23864234  0.34545298  0.50000000

Gradients computed in Reciprocal space

---------------------------------------------------------------------------------


     Starting wfcs are  216 randomized atomic wfcs
     Checking if some PAW data can be deallocated... 

     total cpu time spent up to now is        5.3 secs

     Self-consistent Calculation

     iteration #  1     ecut=    80.00 Ry     beta= 0.70
     Davidson diagonalization with overlap
     ethr =  1.00E-02,  avg # of iterations =  2.0

     Threshold (ethr) on eigenvalues was too large:
     Diagonalizing with lowered threshold

     Davidson diagonalization with overlap
     ethr =  4.31E-04,  avg # of iterations =  3.0

     negative rho (up, down):  3.307E-08 0.000E+00

     total cpu time spent up to now is       20.3 secs

     total energy              =   -2246.15494524 Ry
     estimated scf accuracy    <       1.60072886 Ry

     iteration #  2     ecut=    80.00 Ry     beta= 0.70
     Davidson diagonalization with overlap
     ethr =  5.13E-04,  avg # of iterations =  4.0

     total cpu time spent up to now is       26.2 secs

     total energy              =   -2246.14433236 Ry
     estimated scf accuracy    <       1.16545631 Ry

     iteration #  3     ecut=    80.00 Ry     beta= 0.70
     Davidson diagonalization with overlap
     ethr =  3.74E-04,  avg # of iterations =  2.0

     total cpu time spent up to now is       30.4 secs

     total energy              =   -2246.13770964 Ry
     estimated scf accuracy    <       0.33934531 Ry

     iteration #  4     ecut=    80.00 Ry     beta= 0.70
     Davidson diagonalization with overlap
     ethr =  1.09E-04,  avg # of iterations =  5.0

     total cpu time spent up to now is       34.8 secs

     total energy              =   -2246.18377852 Ry
     estimated scf accuracy    <       0.05199524 Ry

     iteration #  5     ecut=    80.00 Ry     beta= 0.70
     Davidson diagonalization with overlap
     ethr =  1.67E-05,  avg # of iterations = 19.0

     total cpu time spent up to now is       40.0 secs

     total energy              =   -2246.18652075 Ry
     estimated scf accuracy    <       0.02192708 Ry

     iteration #  6     ecut=    80.00 Ry     beta= 0.70
     Davidson diagonalization with overlap
     ethr =  7.03E-06,  avg # of iterations =  3.0

     total cpu time spent up to now is       44.1 secs

     total energy              =   -2246.18663965 Ry
     estimated scf accuracy    <       0.01445228 Ry

     iteration #  7     ecut=    80.00 Ry     beta= 0.70
     Davidson diagonalization with overlap
     ethr =  4.63E-06,  avg # of iterations =  2.0

     total cpu time spent up to now is       48.1 secs

     total energy              =   -2246.18561069 Ry
     estimated scf accuracy    <       0.01122331 Ry

     iteration #  8     ecut=    80.00 Ry     beta= 0.70
     Davidson diagonalization with overlap
     ethr =  3.60E-06,  avg # of iterations =  1.0

     negative rho (up, down):  2.525E-05 0.000E+00

     total cpu time spent up to now is       55.1 secs

     total energy              =   -2246.18402203 Ry
     estimated scf accuracy    <       0.00674870 Ry

     iteration #  9     ecut=    80.00 Ry     beta= 0.70
     Davidson diagonalization with overlap
     ethr =  2.16E-06,  avg # of iterations =  2.0

     negative rho (up, down):  1.664E-02 0.000E+00

     total cpu time spent up to now is       61.8 secs

     total energy              =   -2246.18356350 Ry
     estimated scf accuracy    <       0.00298571 Ry

     iteration # 10     ecut=    80.00 Ry     beta= 0.70
     Davidson diagonalization with overlap
     ethr =  9.57E-07,  avg # of iterations =  2.0

     negative rho (up, down):  2.276E-02 0.000E+00

     total cpu time spent up to now is       68.5 secs

     total energy              =   -2246.18339150 Ry
     estimated scf accuracy    <       0.00151315 Ry

     iteration # 11     ecut=    80.00 Ry     beta= 0.70
     Davidson diagonalization with overlap
     ethr =  4.85E-07,  avg # of iterations =  2.0

     negative rho (up, down):  2.200E-02 0.000E+00

     total cpu time spent up to now is       76.3 secs

     total energy              =   -2246.18349417 Ry
     estimated scf accuracy    <       0.00054177 Ry

     iteration # 12     ecut=    80.00 Ry     beta= 0.70
     Davidson diagonalization with overlap
     ethr =  1.74E-07,  avg # of iterations =  2.0

     negative rho (up, down):  8.103E-03 0.000E+00

     total cpu time spent up to now is       84.5 secs

     total energy              =   -2246.18344731 Ry
     estimated scf accuracy    <       0.00009917 Ry

     iteration # 13     ecut=    80.00 Ry     beta= 0.70
     Davidson diagonalization with overlap
     ethr =  3.18E-08,  avg # of iterations =  6.0

     negative rho (up, down):  2.470E-03 0.000E+00

     total cpu time spent up to now is       94.8 secs

     total energy              =   -2246.18350711 Ry
     estimated scf accuracy    <       0.00001758 Ry

     iteration # 14     ecut=    80.00 Ry     beta= 0.70
     Davidson diagonalization with overlap
     ethr =  5.64E-09,  avg # of iterations =  5.0

     negative rho (up, down):  9.871E-04 0.000E+00

     total cpu time spent up to now is      105.4 secs

     total energy              =   -2246.18351763 Ry
     estimated scf accuracy    <       0.00000463 Ry

     iteration # 15     ecut=    80.00 Ry     beta= 0.70
     Davidson diagonalization with overlap
     ethr =  1.48E-09,  avg # of iterations =  2.0

     negative rho (up, down):  3.449E-04 0.000E+00

     total cpu time spent up to now is      113.5 secs

     total energy              =   -2246.18351773 Ry
     estimated scf accuracy    <       0.00000216 Ry

     iteration # 16     ecut=    80.00 Ry     beta= 0.70
     Davidson diagonalization with overlap
     ethr =  6.91E-10,  avg # of iterations =  2.0

     negative rho (up, down):  1.892E-04 0.000E+00

     total cpu time spent up to now is      117.5 secs

     End of self-consistent calculation

          k = 0.0000 0.0000 0.0000 (105382 PWs)   bands (ev):

   -63.0474 -62.9339 -62.9174 -62.9126 -62.8987 -62.8848 -62.8674 -62.8603
   -62.8551 -62.8407 -62.8070 -62.7921 -37.3376 -37.2997 -37.2351 -37.2199
   -37.2122 -37.1969 -37.1832 -37.1617 -37.1444 -37.1329 -37.1184 -37.0988
   -37.0924 -37.0856 -37.0795 -37.0666 -37.0561 -37.0525 -37.0484 -37.0327
   -37.0246 -37.0177 -37.0103 -37.0043 -36.9794 -36.9779 -36.9646 -36.9588
   -36.9511 -36.9389 -36.9305 -36.9098 -36.9076 -36.8213 -36.8105 -36.8001
   -20.8883 -15.9727 -15.2181 -15.1947 -15.0974 -14.9388 -14.7900 -14.7173
   -14.5677 -14.5271 -14.4998 -14.4574 -14.4077 -14.3251 -14.2844 -14.2608
   -14.1998 -14.1599 -14.0662 -14.0315 -13.9195 -13.9064 -13.8683 -13.8497
    -8.0932  -7.9330  -7.6289  -7.5015  -7.3477  -7.3122  -7.2598  -7.1806
    -7.1338  -6.9318  -6.8996  -6.8371  -6.8153  -6.7464  -6.6774  -6.5721
    -6.5506  -6.4901  -6.3545  -6.2971  -6.1646  -6.0547  -6.0072  -5.9461
    -5.8985  -5.8227  -5.7923  -5.7254  -5.7111  -5.6874  -5.6194  -5.6108
    -5.5604  -5.4992  -5.4841  -5.3486  -5.3138  -5.2269  -5.1625  -5.0890
    -4.9981  -4.9844  -4.8859  -4.8614  -4.7035  -4.6107  -4.5426  -4.3812
    -4.3649  -4.3031  -4.2131  -4.1719  -4.1242  -3.9751  -3.9147  -3.8196
    -3.7896  -3.7600  -3.6732  -3.6501  -3.6205  -3.5850  -3.5423  -3.5055
    -3.4426  -3.4255  -3.3441  -3.2663  -3.1544  -3.0690  -2.9319  -2.8896
    -2.8061  -2.7823  -2.7596  -2.7355  -2.7044  -2.6497  -2.3281  -2.2038
    -2.1140  -2.0589  -1.8439  -1.3733  -1.1525  -0.8528  -0.7455  -0.2279
    -0.2000  -0.1411  -0.0326   0.0266   0.0504   0.0781   0.1921   0.2215
     0.2861   0.3176   0.3582   0.3850   0.4820   0.5039   0.5080   0.5644
     0.6022   0.6566   0.6877   0.7518   0.7734   0.8127   0.8667   0.9072
     0.9864   1.0667   1.1290

     the Fermi energy is    -1.2629 ev

!    total energy              =   -2246.18351848 Ry
     estimated scf accuracy    <       0.00000066 Ry
     smearing contrib. (-TS)   =      -0.00584094 Ry
     internal energy E=F+TS    =   -2246.17767754 Ry

     The total energy is F=E-TS. E is the sum of the following terms:
     one-electron contribution =  -18462.71237724 Ry
     hartree contribution      =    9219.65859096 Ry
     xc contribution           =    -392.01937605 Ry
     ewald contribution        =    7398.76817110 Ry
     one-center paw contrib.   =      -9.87268630 Ry

     convergence has been achieved in  16 iterations

     negative rho (up, down):  1.892E-04 0.000E+00

     Forces acting on atoms (cartesian axes, Ry/au):

     atom    1 type  1   force =     0.02280967   -0.00935999    0.00164332
     atom    2 type  2   force =    -0.02499684    0.07303874   -0.02961566
     atom    3 type  2   force =    -0.01364194    0.00443941   -0.00346139
     atom    4 type  1   force =     0.00515588    0.00524847   -0.00255278
     atom    5 type  2   force =    -0.00017235   -0.00631768   -0.00482073
     atom    6 type  2   force =     0.00053206    0.00703854    0.00066331
     atom    7 type  1   force =    -0.00011360   -0.00889996   -0.00782140
     atom    8 type  2   force =     0.00122107   -0.00665782    0.02155224
     atom    9 type  2   force =     0.01457847    0.00392905    0.00685278
     atom   10 type  1   force =    -0.03582139    0.02490848   -0.06613842
     atom   11 type  2   force =    -0.05213580   -0.02444637   -0.04004813
     atom   12 type  2   force =     0.00037226    0.00449564    0.00941794
     atom   13 type  1   force =     0.00691871    0.00659606   -0.01132091
     atom   14 type  2   force =     0.00754370    0.00054416    0.01374397
     atom   15 type  2   force =    -0.01472225    0.00305960   -0.01166349
     atom   16 type  1   force =    -0.00256994    0.01281455    0.00326208
     atom   17 type  2   force =     0.00555411    0.00081686    0.00073517
     atom   18 type  2   force =    -0.00386496   -0.00695612    0.01283923
     atom   19 type  1   force =     0.01020348   -0.01192848    0.00141744
     atom   20 type  2   force =     0.00334320   -0.00440028    0.00031154
     atom   21 type  1   force =    -0.01346709   -0.00767848   -0.00535992
     atom   22 type  2   force =     0.00464717   -0.00710761   -0.00273629
     atom   23 type  2   force =    -0.00043916    0.00408159    0.00951466
     atom   24 type  1   force =    -0.01058915   -0.00479731   -0.02177198
     atom   25 type  2   force =     0.02076074    0.02026749    0.01060922
     atom   26 type  2   force =    -0.00797897   -0.00241466   -0.00643484
     atom   27 type  1   force =    -0.00082837   -0.00074655    0.00793407
     atom   28 type  2   force =    -0.00065471   -0.00312655   -0.00336744
     atom   29 type  2   force =     0.00348339    0.00073634   -0.00192687
     atom   30 type  1   force =    -0.02526474    0.00070587   -0.00529000
     atom   31 type  2   force =     0.00275853   -0.00134064    0.01544914
     atom   32 type  2   force =    -0.00849501    0.00563479    0.00664906
     atom   33 type  1   force =     0.00246307    0.02735434   -0.01380026
     atom   34 type  2   force =    -0.00403435   -0.04913459    0.06139527
     atom   35 type  2   force =    -0.00842091    0.00894197    0.01770565
     atom   36 type  3   force =     0.11586603   -0.05933887    0.03643443
     The non-local contrib.  to forces
     atom    1 type  1   force =     0.00219326    0.02184601   -0.00501747
     atom    2 type  2   force =     0.00863308    0.01134443   -0.26563700
     atom    3 type  2   force =    -0.01564208   -0.01315507    0.27425938
     atom    4 type  1   force =    -0.00266367    0.00133624    0.00227354
     atom    5 type  2   force =     0.00598196   -0.03291078   -0.25303489
     atom    6 type  2   force =    -0.00191401    0.01255593    0.26259164
     atom    7 type  1   force =    -0.02592202    0.00165009   -0.02197881
     atom    8 type  2   force =     0.00422767    0.00149467   -0.25489363
     atom    9 type  2   force =     0.01521125   -0.00872974    0.27825366
     atom   10 type  1   force =    -0.00784072    0.00394784   -0.01516333
     atom   11 type  2   force =    -0.01955269   -0.01617013   -0.26062875
     atom   12 type  2   force =    -0.00514175   -0.01261486    0.26483917
     atom   13 type  1   force =     0.00183107    0.01875179   -0.00670336
     atom   14 type  2   force =     0.00565072   -0.00549486   -0.25756703
     atom   15 type  2   force =    -0.01547018   -0.00595864    0.25639881
     atom   16 type  1   force =    -0.00127094    0.02823720   -0.02601129
     atom   17 type  2   force =     0.00209894   -0.02912132   -0.25057176
     atom   18 type  2   force =    -0.00403555   -0.00395363    0.27346550
     atom   19 type  1   force =     0.02595349   -0.00543281   -0.01838908
     atom   20 type  2   force =    -0.00002153   -0.02054953    0.26702590
     atom   21 type  1   force =     0.01164508    0.02315783    0.00883874
     atom   22 type  2   force =     0.00926649    0.00391159   -0.25499202
     atom   23 type  2   force =     0.00550321   -0.01400317    0.26795580
     atom   24 type  1   force =    -0.00363885    0.02433741   -0.00826830
     atom   25 type  2   force =     0.00748374    0.00383905   -0.26312620
     atom   26 type  2   force =     0.00161239   -0.02035895    0.26139337
     atom   27 type  1   force =    -0.00271232    0.00644357    0.01009622
     atom   28 type  2   force =    -0.00263724   -0.02571143   -0.27476769
     atom   29 type  2   force =     0.00610965    0.00125909    0.26481682
     atom   30 type  1   force =     0.00828620    0.02226464    0.00250312
     atom   31 type  2   force =    -0.00195171   -0.00172038   -0.25020816
     atom   32 type  2   force =    -0.00483730   -0.01058110    0.27430200
     atom   33 type  1   force =     0.00010494    0.00220421    0.00728395
     atom   34 type  2   force =    -0.41921785    0.18625969   -0.00336262
     atom   35 type  2   force =    -0.00472388   -0.01023188    0.26884589
     atom   36 type  3   force =     1.09771187   -0.49795889   -0.79133360
     The ionic contribution  to forces
     atom    1 type  1   force =    -0.36638578    1.56271652    3.92520278
     atom    2 type  2   force =    -1.05682023    3.93017432   37.59044308
     atom    3 type  2   force =    -0.19546701    0.34816547  -37.09171177
     atom    4 type  1   force =     0.02949043    0.41626065   -0.50217984
     atom    5 type  2   force =    -1.15546300    1.68824982   38.52695079
     atom    6 type  2   force =     0.27767658   -0.41777446  -38.56058301
     atom    7 type  1   force =    -3.54296949   -4.13462705    0.47423932
     atom    8 type  2   force =    -1.10749597   -1.20355275   36.83651046
     atom    9 type  2   force =     0.31754593   -0.27676345  -38.70203721
     atom   10 type  1   force =    -1.76241531    0.20968776   -1.86003831
     atom   11 type  2   force =    -3.60996354   -2.88687669   37.44396984
     atom   12 type  2   force =     0.20507186    0.58383614  -38.86122078
     atom   13 type  1   force =     0.58561259    1.58957795    1.71566389
     atom   14 type  2   force =    -0.53578247    0.54085481   38.14944593
     atom   15 type  2   force =     0.02044174    0.10542333  -37.46918223
     atom   16 type  1   force =    -0.22981911    3.85691810   -0.47365133
     atom   17 type  2   force =     0.84121115    1.60554674   37.74998072
     atom   18 type  2   force =    -0.15038019   -0.59513438  -39.03603753
     atom   19 type  1   force =     2.82381079   -3.03726509   -0.60485251
     atom   20 type  2   force =     0.15369333   -0.33726368  -39.02848849
     atom   21 type  1   force =    -1.12141810    0.15824376   -0.82967203
     atom   22 type  2   force =     0.59411887   -1.90939075   38.08046382
     atom   23 type  2   force =    -0.05086662    0.61142189  -38.95699382
     atom   24 type  1   force =     0.14258571    2.72682629    3.84904775
     atom   25 type  2   force =     1.53463317    1.03963819   38.81480751
     atom   26 type  2   force =    -0.12425299    0.25236038  -38.03753973
     atom   27 type  1   force =     0.28469178    0.30734907   -3.24275259
     atom   28 type  2   force =     0.21108450    1.25794639   37.96610631
     atom   29 type  2   force =    -0.20977398   -0.33685421  -37.81762335
     atom   30 type  1   force =     0.49232062   -2.58361680   -2.45976225
     atom   31 type  2   force =     1.58054543   -0.56423145   37.02110972
     atom   32 type  2   force =    -0.38674009   -0.16114531  -39.20822675
     atom   33 type  1   force =     2.40747327   -0.68586369   -0.36381693
     atom   34 type  2   force =     5.11332683   -3.73640694   35.82725711
     atom   35 type  2   force =    -0.09189670    0.35415214  -38.90943453
     atom   36 type  3   force =    -1.91742401   -0.27858301   48.04460598
     The local contribution  to forces
     atom    1 type  1   force =     0.38709225   -1.59403405   -3.91950692
     atom    2 type  2   force =     1.02377239   -3.86706740  -37.37567179
     atom    3 type  2   force =     0.19677753   -0.33121716   36.83456347
     atom    4 type  1   force =    -0.02159811   -0.41221987    0.49630106
     atom    5 type  2   force =     1.14990134   -1.66342754  -38.29935037
     atom    6 type  2   force =    -0.27552186    0.41346617   38.31893413
     atom    7 type  1   force =     3.56877483    4.12403911   -0.46098679
     atom    8 type  2   force =     1.10470838    1.19527428  -36.58080413
     atom    9 type  2   force =    -0.31761599    0.28896278   38.45118551
     atom   10 type  1   force =     1.73438882   -0.18883886    1.80827566
     atom   11 type  2   force =     3.57555652    2.87772681  -37.24490282
     atom   12 type  2   force =    -0.20029342   -0.56788315   38.62627500
     atom   13 type  1   force =    -0.58051005   -1.60176185   -1.72129558
     atom   14 type  2   force =     0.53800894   -0.53472582  -37.89875984
     atom   15 type  2   force =    -0.02052421   -0.09684306   37.22089717
     atom   16 type  1   force =     0.22853574   -3.87212326    0.50185639
     atom   17 type  2   force =    -0.83775138   -1.57712110  -37.51922554
     atom   18 type  2   force =     0.15048499    0.59264219   38.79588189
     atom   19 type  1   force =    -2.83943830    3.03070991    0.62367793
     atom   20 type  2   force =    -0.15042601    0.35260577   38.78250513
     atom   21 type  1   force =     1.09642221   -0.18908920    0.81449567
     atom   22 type  2   force =    -0.59827197    1.89882113  -37.84878081
     atom   23 type  2   force =     0.04534044   -0.59456644   38.71892642
     atom   24 type  1   force =    -0.14962556   -2.75598338   -3.86350014
     atom   25 type  2   force =    -1.52145792   -1.02300294  -38.56208350
     atom   26 type  2   force =     0.11498168   -0.23550970   37.78988772
     atom   27 type  1   force =    -0.28290309   -0.31444420    3.23949458
     atom   28 type  2   force =    -0.20932214   -1.23721768  -37.71595558
     atom   29 type  2   force =     0.20767389    0.33690681   37.57097045
     atom   30 type  1   force =    -0.52594258    2.56207982    2.45103778
     atom   31 type  2   force =    -1.57614201    0.56456974  -36.77607061
     atom   32 type  2   force =     0.38307042    0.17679347   38.96112744
     atom   33 type  1   force =    -2.40517287    0.71086510    0.34180663
     atom   34 type  2   force =    -4.72179242    3.51196473  -35.76842277
     atom   35 type  2   force =     0.08815808   -0.33591388   38.67883172
     atom   36 type  3   force =     0.94830602    0.71129102  -47.22510538
     The core correction contribution to forces
     atom    1 type  1   force =     0.00000000    0.00000000    0.00000000
     atom    2 type  2   force =    -0.00057784   -0.00148714    0.02106089
     atom    3 type  2   force =     0.00068447    0.00063852   -0.02107991
     atom    4 type  1   force =     0.00000000    0.00000000    0.00000000
     atom    5 type  2   force =    -0.00058861    0.00180237    0.02036808
     atom    6 type  2   force =     0.00027646   -0.00117809   -0.02083887
     atom    7 type  1   force =     0.00000000    0.00000000    0.00000000
     atom    8 type  2   force =    -0.00019881    0.00021287    0.02048255
     atom    9 type  2   force =    -0.00053744    0.00047173   -0.02103412
     atom   10 type  1   force =     0.00000000    0.00000000    0.00000000
     atom   11 type  2   force =     0.00186790    0.00086643    0.02131059
     atom   12 type  2   force =     0.00073151    0.00115191   -0.02095500
     atom   13 type  1   force =     0.00000000    0.00000000    0.00000000
     atom   14 type  2   force =    -0.00030052   -0.00017205    0.02038997
     atom   15 type  2   force =     0.00084137    0.00039776   -0.02031901
     atom   16 type  1   force =     0.00000000    0.00000000    0.00000000
     atom   17 type  2   force =     0.00001139    0.00153180    0.02029416
     atom   18 type  2   force =     0.00009583   -0.00048860   -0.02102712
     atom   19 type  1   force =     0.00000000    0.00000000    0.00000000
     atom   20 type  2   force =     0.00011550    0.00077850   -0.02123292
     atom   21 type  1   force =     0.00000000    0.00000000    0.00000000
     atom   22 type  2   force =    -0.00048487   -0.00044745    0.02037120
     atom   23 type  2   force =    -0.00041517    0.00124133   -0.02089564
     atom   24 type  1   force =     0.00000000    0.00000000    0.00000000
     atom   25 type  2   force =     0.00005825   -0.00027587    0.02083663
     atom   26 type  2   force =    -0.00032764    0.00106728   -0.02074416
     atom   27 type  1   force =     0.00000000    0.00000000    0.00000000
     atom   28 type  2   force =     0.00019040    0.00187362    0.02099461
     atom   29 type  2   force =    -0.00054985   -0.00055163   -0.02062943
     atom   30 type  1   force =     0.00000000    0.00000000    0.00000000
     atom   31 type  2   force =     0.00024779    0.00011604    0.02038883
     atom   32 type  2   force =    -0.00003294    0.00058204   -0.02107350
     atom   33 type  1   force =     0.00000000    0.00000000    0.00000000
     atom   34 type  2   force =     0.02363162   -0.01098575    0.00578413
     atom   35 type  2   force =     0.00004626    0.00090575   -0.02104552
     atom   36 type  3   force =    -0.01258075    0.00581992    0.00794717
     The Hubbard contrib.    to forces
     atom    1 type  1   force =     0.00000000    0.00000000    0.00000000
     atom    2 type  2   force =     0.00000000    0.00000000    0.00000000
     atom    3 type  2   force =     0.00000000    0.00000000    0.00000000
     atom    4 type  1   force =     0.00000000    0.00000000    0.00000000
     atom    5 type  2   force =     0.00000000    0.00000000    0.00000000
     atom    6 type  2   force =     0.00000000    0.00000000    0.00000000
     atom    7 type  1   force =     0.00000000    0.00000000    0.00000000
     atom    8 type  2   force =     0.00000000    0.00000000    0.00000000
     atom    9 type  2   force =     0.00000000    0.00000000    0.00000000
     atom   10 type  1   force =     0.00000000    0.00000000    0.00000000
     atom   11 type  2   force =     0.00000000    0.00000000    0.00000000
     atom   12 type  2   force =     0.00000000    0.00000000    0.00000000
     atom   13 type  1   force =     0.00000000    0.00000000    0.00000000
     atom   14 type  2   force =     0.00000000    0.00000000    0.00000000
     atom   15 type  2   force =     0.00000000    0.00000000    0.00000000
     atom   16 type  1   force =     0.00000000    0.00000000    0.00000000
     atom   17 type  2   force =     0.00000000    0.00000000    0.00000000
     atom   18 type  2   force =     0.00000000    0.00000000    0.00000000
     atom   19 type  1   force =     0.00000000    0.00000000    0.00000000
     atom   20 type  2   force =     0.00000000    0.00000000    0.00000000
     atom   21 type  1   force =     0.00000000    0.00000000    0.00000000
     atom   22 type  2   force =     0.00000000    0.00000000    0.00000000
     atom   23 type  2   force =     0.00000000    0.00000000    0.00000000
     atom   24 type  1   force =     0.00000000    0.00000000    0.00000000
     atom   25 type  2   force =     0.00000000    0.00000000    0.00000000
     atom   26 type  2   force =     0.00000000    0.00000000    0.00000000
     atom   27 type  1   force =     0.00000000    0.00000000    0.00000000
     atom   28 type  2   force =     0.00000000    0.00000000    0.00000000
     atom   29 type  2   force =     0.00000000    0.00000000    0.00000000
     atom   30 type  1   force =     0.00000000    0.00000000    0.00000000
     atom   31 type  2   force =     0.00000000    0.00000000    0.00000000
     atom   32 type  2   force =     0.00000000    0.00000000    0.00000000
     atom   33 type  1   force =     0.00000000    0.00000000    0.00000000
     atom   34 type  2   force =     0.00000000    0.00000000    0.00000000
     atom   35 type  2   force =     0.00000000    0.00000000    0.00000000
     atom   36 type  3   force =     0.00000000    0.00000000    0.00000000
     The SCF correction term to forces
     atom    1 type  1   force =    -0.00009140    0.00011172    0.00094050
     atom    2 type  2   force =    -0.00000558    0.00007473    0.00016473
     atom    3 type  2   force =     0.00000381    0.00000784    0.00048303
     atom    4 type  1   force =    -0.00007412   -0.00012836    0.00102805
     atom    5 type  2   force =    -0.00000538   -0.00003135    0.00022123
     atom    6 type  2   force =     0.00001356   -0.00003083    0.00053500
     atom    7 type  1   force =     0.00000174    0.00003808    0.00088046
     atom    8 type  2   force =    -0.00002153   -0.00008669    0.00023256
     atom    9 type  2   force =    -0.00002662   -0.00001208    0.00046053
     atom   10 type  1   force =     0.00004447    0.00011192    0.00076314
     atom   11 type  2   force =    -0.00004534    0.00000740    0.00017860
     atom   12 type  2   force =     0.00000271    0.00000580    0.00045513
     atom   13 type  1   force =    -0.00001624    0.00002837    0.00098972
     atom   14 type  2   force =    -0.00003431    0.00008227    0.00021052
     atom   15 type  2   force =    -0.00001233    0.00004040    0.00051735
     atom   16 type  1   force =    -0.00001697   -0.00021730    0.00104390
     atom   17 type  2   force =    -0.00001733   -0.00001908    0.00023317
     atom   18 type  2   force =    -0.00003140   -0.00002152    0.00053206
     atom   19 type  1   force =    -0.00012384    0.00005971    0.00095668
     atom   20 type  2   force =    -0.00001943    0.00002885    0.00047750
     atom   21 type  1   force =    -0.00011763    0.00000932    0.00095328
     atom   22 type  2   force =     0.00001730   -0.00000193    0.00017711
     atom   23 type  2   force =    -0.00000236   -0.00001184    0.00049748
     atom   24 type  1   force =     0.00008820    0.00002256    0.00092428
     atom   25 type  2   force =     0.00004217    0.00006926    0.00015036
     atom   26 type  2   force =     0.00000625    0.00002652    0.00054355
     atom   27 type  1   force =     0.00009392   -0.00009479    0.00107144
     atom   28 type  2   force =     0.00002844   -0.00001725    0.00023048
     atom   29 type  2   force =     0.00002234   -0.00002353    0.00051423
     atom   30 type  1   force =     0.00006968   -0.00002160    0.00090693
     atom   31 type  2   force =     0.00005767   -0.00007441    0.00020494
     atom   32 type  2   force =     0.00004355   -0.00001413    0.00049546
     atom   33 type  1   force =     0.00005640    0.00014892    0.00090167
     atom   34 type  2   force =     0.00001613    0.00003388    0.00011499
     atom   35 type  2   force =    -0.00000602    0.00003004    0.00048366
     atom   36 type  3   force =    -0.00014844    0.00009227    0.00029585

     Total force =     0.225384     Total SCF correction =     0.003825

     BFGS Geometry Optimization
     Energy error            =      0.0E+00 Ry
     Gradient error          =      1.2E-01 Ry/Bohr

     number of scf cycles    =   1
     number of bfgs steps    =   0

     energy             new  =   -2246.1835184800 Ry

     new trust radius        =       0.1351795354 bohr
     new conv_thr            =       0.0000010000 Ry


ATOMIC_POSITIONS (angstrom)
Mo            6.5866187674        1.7828531352        2.8245126373
S             8.1634815812        0.8483544627        4.4188664201
S             8.1860140804        0.8135909784        1.2760517388
Mo            8.0978909387        4.4978343166        2.7164675206
S             6.4998180525        3.7190683179        4.3441096268
S             6.5536313532        3.5154621879        1.1216312348
Mo            6.4899215816        7.2137276283        2.6677455785
S             8.0823738921        6.3403478280        4.2538665157
S             8.0886322427        6.3067814815        1.0874893342
Mo            8.1416631846        9.9153614131        2.8084628170
S             6.4675785167        8.9299903526        4.3619129777
S             6.6181441894        9.0510902030        1.1448910610
Mo            3.4253208860        1.7504463375        2.7704803968
S             4.9791574458        0.8172291671        4.3578060871
S             5.0500430724        0.8478811794        1.2204864084
Mo            4.9783967294        4.5199591696        2.6346107671
S             3.4307807729        3.6720319471        4.2800986172
S             3.4358753307        3.5445476779        1.0651459079
Mo            3.4592611882        7.2100122604        2.6314269375
S             4.9850033388        6.3246037569        1.0374185925
Mo            5.0051374426        9.8975367762        2.7405646123
S             3.4734172951        8.9399900847        4.3241433307
S             3.4081967740        9.0671498667        1.1011032382
Mo            0.2904869482        1.7449709047        2.8379234750
S             1.8614483257        0.8034191031        4.4038235969
S             1.8565777478        0.8531481366        1.2059956852
Mo            1.8602529523        4.4952717061        2.6643959106
S             0.2718673901        3.6527443273        4.3358021246
S             0.2330745365        3.5276388804        1.1709982261
Mo            0.2577826245        7.2170196230        2.6988970805
S             1.9036979964        6.3120893972        4.2306194529
S             1.8577428501        6.3133256149        1.0480778155
Mo            1.8456500654        9.9546144487        2.7656434685
S             0.2937780118        9.0639969210        4.4463584429
S             0.2723152435        9.0482575990        1.1597702047
O             8.4673225521        9.6831769976        5.3687249782



     Writing config-only to output data dir ./MoS2-V-O.save/
     NEW-OLD atomic charge density approx. for the potential

     negative rho (up, down):  1.796E-04 0.000E+00

     total cpu time spent up to now is      125.6 secs

     Self-consistent Calculation

     iteration #  1     ecut=    80.00 Ry     beta= 0.70
     Davidson diagonalization with overlap
     ethr =  1.00E-06,  avg # of iterations = 15.0

     negative rho (up, down):  3.992E-04 0.000E+00

     total cpu time spent up to now is      139.6 secs

     total energy              =   -2246.22116464 Ry
     estimated scf accuracy    <       0.03103073 Ry

     iteration #  2     ecut=    80.00 Ry     beta= 0.70
     Davidson diagonalization with overlap
     ethr =  9.95E-06,  avg # of iterations =  6.0

     negative rho (up, down):  4.151E-04 0.000E+00

     total cpu time spent up to now is      156.8 secs

     total energy              =   -2246.22468738 Ry
     estimated scf accuracy    <       0.02763918 Ry

     iteration #  3     ecut=    80.00 Ry     beta= 0.70
     Davidson diagonalization with overlap
     ethr =  8.86E-06,  avg # of iterations =  4.0

     negative rho (up, down):  6.072E-04 0.000E+00

     total cpu time spent up to now is      172.1 secs

     total energy              =   -2246.22743620 Ry
     estimated scf accuracy    <       0.00106085 Ry

     iteration #  4     ecut=    80.00 Ry     beta= 0.70
     Davidson diagonalization with overlap
     ethr =  3.40E-07,  avg # of iterations =  5.0

     negative rho (up, down):  7.362E-04 0.000E+00

     total cpu time spent up to now is      186.4 secs

     total energy              =   -2246.22749924 Ry
     estimated scf accuracy    <       0.00036879 Ry

     iteration #  5     ecut=    80.00 Ry     beta= 0.70
     Davidson diagonalization with overlap
     ethr =  1.18E-07,  avg # of iterations =  2.0

     negative rho (up, down):  7.446E-04 0.000E+00

     total cpu time spent up to now is      200.4 secs

     total energy              =   -2246.22752070 Ry
     estimated scf accuracy    <       0.00004971 Ry

     iteration #  6     ecut=    80.00 Ry     beta= 0.70
     Davidson diagonalization with overlap
     ethr =  1.59E-08,  avg # of iterations =  5.0

     negative rho (up, down):  6.968E-04 0.000E+00

     total cpu time spent up to now is      211.0 secs

     total energy              =   -2246.22752798 Ry
     estimated scf accuracy    <       0.00000779 Ry

     iteration #  7     ecut=    80.00 Ry     beta= 0.70
     Davidson diagonalization with overlap
     ethr =  2.50E-09,  avg # of iterations =  5.0

     negative rho (up, down):  6.023E-04 0.000E+00

     total cpu time spent up to now is      224.5 secs

     total energy              =   -2246.22752911 Ry
     estimated scf accuracy    <       0.00000240 Ry

     iteration #  8     ecut=    80.00 Ry     beta= 0.70
     Davidson diagonalization with overlap
     ethr =  7.68E-10,  avg # of iterations =  5.0

     negative rho (up, down):  1.960E-04 0.000E+00

     total cpu time spent up to now is      228.7 secs

     End of self-consistent calculation

          k = 0.0000 0.0000 0.0000 (105382 PWs)   bands (ev):

   -63.0306 -62.9517 -62.9354 -62.9287 -62.9195 -62.9039 -62.8882 -62.8819
   -62.8701 -62.8590 -62.8235 -62.8114 -37.3153 -37.3003 -37.2434 -37.2321
   -37.2178 -37.2098 -37.1977 -37.1701 -37.1552 -37.1495 -37.1350 -37.1147
   -37.1049 -37.1040 -37.0958 -37.0839 -37.0769 -37.0726 -37.0681 -37.0493
   -37.0409 -37.0368 -37.0292 -37.0233 -36.9987 -36.9969 -36.9810 -36.9802
   -36.9659 -36.9571 -36.9478 -36.9265 -36.9207 -36.8450 -36.8302 -36.8215
   -20.9731 -15.9902 -15.2248 -15.2091 -15.0729 -14.9452 -14.7985 -14.6047
   -14.5814 -14.5412 -14.4970 -14.4778 -14.4211 -14.3450 -14.2957 -14.2561
   -14.2049 -14.1841 -14.0753 -14.0234 -13.9444 -13.9001 -13.8686 -13.7765
    -7.9858  -7.8673  -7.6024  -7.5150  -7.3697  -7.3208  -7.2732  -7.2083
    -7.1506  -6.9247  -6.9036  -6.8527  -6.8316  -6.7464  -6.6837  -6.5788
    -6.5719  -6.4915  -6.3629  -6.3038  -6.1395  -6.0653  -6.0075  -5.9227
    -5.9021  -5.8405  -5.8083  -5.7366  -5.7283  -5.6951  -5.6322  -5.6139
    -5.5655  -5.5082  -5.4829  -5.3399  -5.3116  -5.2268  -5.1900  -5.0861
    -5.0163  -4.9995  -4.9001  -4.8634  -4.7099  -4.5776  -4.5303  -4.4011
    -4.3696  -4.3198  -4.2139  -4.2001  -4.1338  -3.9931  -3.9107  -3.8188
    -3.7901  -3.7689  -3.6831  -3.6627  -3.6212  -3.5974  -3.5662  -3.5100
    -3.4670  -3.4315  -3.3601  -3.2785  -3.1324  -3.0716  -2.9355  -2.9055
    -2.8306  -2.7990  -2.7609  -2.7484  -2.7172  -2.6753  -2.3421  -2.2634
    -2.1326  -2.0942  -1.8926  -1.3854  -1.0678  -0.8615  -0.7636  -0.2335
    -0.2180  -0.1441  -0.0408   0.0152   0.0329   0.0834   0.2073   0.2164
     0.2768   0.3256   0.3553   0.3743   0.4656   0.4959   0.5141   0.5528
     0.5951   0.6509   0.6666   0.7460   0.7709   0.8113   0.8622   0.9147
     0.9714   1.0622   1.1587

     the Fermi energy is    -1.2267 ev

!    total energy              =   -2246.22752862 Ry
     estimated scf accuracy    <       0.00000081 Ry
     smearing contrib. (-TS)   =      -0.00289400 Ry
     internal energy E=F+TS    =   -2246.22463462 Ry

     The total energy is F=E-TS. E is the sum of the following terms:
     one-electron contribution =  -18457.83351135 Ry
     hartree contribution      =    9217.08351993 Ry
     xc contribution           =    -392.02483360 Ry
     ewald contribution        =    7396.41940642 Ry
     one-center paw contrib.   =      -9.86921602 Ry

     convergence has been achieved in   8 iterations

     negative rho (up, down):  1.960E-04 0.000E+00

     Forces acting on atoms (cartesian axes, Ry/au):

     atom    1 type  1   force =     0.00317080   -0.00291363   -0.00499910
     atom    2 type  2   force =    -0.01811425    0.04272394   -0.02152004
     atom    3 type  2   force =    -0.01328464    0.00761690   -0.01614007
     atom    4 type  1   force =     0.00362392    0.00424736   -0.00003048
     atom    5 type  2   force =     0.00103800   -0.00450097   -0.00524326
     atom    6 type  2   force =     0.00047885    0.00646167    0.00160926
     atom    7 type  1   force =     0.00383449   -0.01016519   -0.00573616
     atom    8 type  2   force =    -0.00137766   -0.00469333    0.01584303
     atom    9 type  2   force =     0.01237944    0.00246796    0.00290614
     atom   10 type  1   force =    -0.01557553    0.01502842   -0.02981588
     atom   11 type  2   force =    -0.03039400   -0.01442062   -0.02954859
     atom   12 type  2   force =    -0.00446588    0.00277453   -0.00143640
     atom   13 type  1   force =     0.00424402    0.00490687   -0.00397290
     atom   14 type  2   force =     0.00690924   -0.00006610    0.00717848
     atom   15 type  2   force =    -0.00937827    0.00248445   -0.00893446
     atom   16 type  1   force =    -0.00050334    0.00831349    0.00263779
     atom   17 type  2   force =     0.00501101    0.00076265    0.00120990
     atom   18 type  2   force =    -0.00261489   -0.00360455    0.00987773
     atom   19 type  1   force =     0.00495957   -0.00784507    0.00338765
     atom   20 type  2   force =     0.00215140   -0.00407746   -0.00375422
     atom   21 type  1   force =    -0.01252328   -0.00008514   -0.00493791
     atom   22 type  2   force =     0.00117324   -0.00467577   -0.00470238
     atom   23 type  2   force =    -0.00221033    0.00015542    0.00522706
     atom   24 type  1   force =    -0.00216749   -0.00448773   -0.01226977
     atom   25 type  2   force =     0.01369433    0.01726581    0.00317796
     atom   26 type  2   force =    -0.00401433   -0.00059021   -0.00920567
     atom   27 type  1   force =    -0.00066001   -0.00049068    0.00702143
     atom   28 type  2   force =    -0.00042624   -0.00367600   -0.00431869
     atom   29 type  2   force =     0.00328598    0.00246699   -0.00325261
     atom   30 type  1   force =    -0.02166973   -0.00093120    0.00539608
     atom   31 type  2   force =     0.00026516   -0.00094233    0.00872033
     atom   32 type  2   force =    -0.00680746    0.00485704    0.00652313
     atom   33 type  1   force =    -0.00816705    0.01890796    0.00676619
     atom   34 type  2   force =    -0.01621536   -0.02533612    0.04199777
     atom   35 type  2   force =    -0.00744202    0.00898629    0.01080349
     atom   36 type  3   force =     0.11179234   -0.05692565    0.02953518
     The non-local contrib.  to forces
     atom    1 type  1   force =     0.00506615    0.02158787   -0.00670296
     atom    2 type  2   force =     0.01053360    0.01741192   -0.26305181
     atom    3 type  2   force =    -0.01371726   -0.01120962    0.26573548
     atom    4 type  1   force =    -0.00137238    0.00298340    0.00164769
     atom    5 type  2   force =     0.00671450   -0.03173576   -0.25421824
     atom    6 type  2   force =    -0.00154990    0.01203152    0.26423652
     atom    7 type  1   force =    -0.02431578    0.00046397   -0.02111851
     atom    8 type  2   force =     0.00207705    0.00241990   -0.25875646
     atom    9 type  2   force =     0.01361846   -0.00939662    0.27596764
     atom   10 type  1   force =    -0.01297608    0.00470757   -0.01355348
     atom   11 type  2   force =    -0.02603084   -0.01837181   -0.25850905
     atom   12 type  2   force =    -0.00876032   -0.01438764    0.26016319
     atom   13 type  1   force =     0.00237102    0.01986897   -0.00676415
     atom   14 type  2   force =     0.00556263   -0.00512759   -0.26170598
     atom   15 type  2   force =    -0.01128320   -0.00709680    0.25783505
     atom   16 type  1   force =    -0.00243586    0.02943449   -0.02742876
     atom   17 type  2   force =     0.00199996   -0.02831667   -0.25092784
     atom   18 type  2   force =    -0.00282071   -0.00129698    0.27195961
     atom   19 type  1   force =     0.02919419   -0.00651516   -0.02061226
     atom   20 type  2   force =    -0.00035219   -0.01934239    0.26411593
     atom   21 type  1   force =     0.01075698    0.02046924    0.00628681
     atom   22 type  2   force =     0.00580838    0.00170778   -0.25606914
     atom   23 type  2   force =     0.00356131   -0.01602886    0.26643854
     atom   24 type  1   force =    -0.00504457    0.02261424   -0.00739489
     atom   25 type  2   force =     0.00196511    0.00264880   -0.26743702
     atom   26 type  2   force =     0.00514463   -0.01781388    0.26014787
     atom   27 type  1   force =    -0.00284089    0.00648997    0.00847980
     atom   28 type  2   force =    -0.00222962   -0.02471489   -0.27645261
     atom   29 type  2   force =     0.00548460    0.00075906    0.26528033
     atom   30 type  1   force =     0.00946900    0.02244525    0.00084901
     atom   31 type  2   force =    -0.00213505   -0.00232670   -0.25455745
     atom   32 type  2   force =    -0.00328120   -0.01079983    0.27524426
     atom   33 type  1   force =     0.00439279    0.00106653    0.00368645
     atom   34 type  2   force =    -0.44615575    0.21231218   -0.00144046
     atom   35 type  2   force =    -0.00413554   -0.00990721    0.26668587
     atom   36 type  3   force =     1.29473694   -0.61673161   -0.87364147
     The ionic contribution  to forces
     atom    1 type  1   force =    -0.92186964    1.70570205    3.97923706
     atom    2 type  2   force =    -0.90895174    3.22690995   37.71717637
     atom    3 type  2   force =    -0.15354380    0.45442249  -37.27215851
     atom    4 type  1   force =    -0.01064069    0.40449615   -0.49126105
     atom    5 type  2   force =    -1.18693548    1.68280959   38.48709792
     atom    6 type  2   force =     0.21007347   -0.42545524  -38.50007699
     atom    7 type  1   force =    -3.36788295   -4.07839208    0.39767931
     atom    8 type  2   force =    -1.13779587   -1.13849315   37.00123030
     atom    9 type  2   force =     0.29896016   -0.29754841  -38.73045760
     atom   10 type  1   force =    -1.22605138   -0.01925162   -2.17506037
     atom   11 type  2   force =    -3.08576136   -2.62616824   37.43388915
     atom   12 type  2   force =     0.07298418    0.46084039  -38.89073022
     atom   13 type  1   force =     0.63380691    1.51078670    1.60969978
     atom   14 type  2   force =    -0.53542881    0.50618986   38.20215175
     atom   15 type  2   force =     0.05537257    0.13857272  -37.45795115
     atom   16 type  1   force =    -0.18086980    3.63311524   -0.32558737
     atom   17 type  2   force =     0.83954761    1.54675928   37.77515792
     atom   18 type  2   force =    -0.13931259   -0.52915616  -38.97125477
     atom   19 type  1   force =     2.41980374   -2.87459891   -0.51597448
     atom   20 type  2   force =     0.10894824   -0.33415697  -39.11694607
     atom   21 type  1   force =    -1.19662794    0.39231251   -0.77555105
     atom   22 type  2   force =     0.43894037   -1.86693882   38.04223574
     atom   23 type  2   force =    -0.14585332    0.50632245  -38.88104930
     atom   24 type  1   force =     0.47794239    2.57406585    3.56850178
     atom   25 type  2   force =     1.39868330    0.97972973   38.84609751
     atom   26 type  2   force =    -0.07736074    0.28982617  -38.07486529
     atom   27 type  1   force =     0.27321814    0.40783205   -2.97591988
     atom   28 type  2   force =     0.24122914    1.19324072   37.96717774
     atom   29 type  2   force =    -0.16581640   -0.27072311  -37.83706032
     atom   30 type  1   force =     0.83869008   -2.24860838   -2.38866618
     atom   31 type  2   force =     1.52989392   -0.46494458   37.01027376
     atom   32 type  2   force =    -0.36879127   -0.11350667  -39.09370303
     atom   33 type  1   force =     2.01192712   -1.01863562   -0.22114534
     atom   34 type  2   force =     5.23328444   -3.66164820   35.51960980
     atom   35 type  2   force =     0.07458487    0.26183578  -38.69000881
     atom   36 type  3   force =    -2.34839686    0.09245647   47.82821192
     The local contribution  to forces
     atom    1 type  1   force =     0.91925575   -1.72972312   -3.97692459
     atom    2 type  2   force =     0.88081378   -3.19937109  -37.49627103
     atom    3 type  2   force =     0.15329729   -0.43612248   37.01123727
     atom    4 type  1   force =     0.01557253   -0.40316681    0.49038323
     atom    5 type  2   force =     1.18184143   -1.65731005  -38.25816578
     atom    6 type  2   force =    -0.20834496    0.42102720   38.25856104
     atom    7 type  1   force =     3.39595924    4.06749482   -0.38152299
     atom    8 type  2   force =     1.13459468    1.13117004  -36.74684053
     atom    9 type  2   force =    -0.29963181    0.30889043   38.47858864
     atom   10 type  1   force =     1.22377199    0.02924644    2.15966708
     atom   11 type  2   force =     3.07885249    2.62899740  -37.22571650
     atom   12 type  2   force =    -0.06960947   -0.44485977   38.65005363
     atom   13 type  1   force =    -0.63170724   -1.52579450   -1.60614190
     atom   14 type  2   force =     0.53697110   -0.50089197  -37.95340815
     atom   15 type  2   force =    -0.05425094   -0.12938355   37.21176616
     atom   16 type  1   force =     0.18285982   -3.65450028    0.35642430
     atom   17 type  2   force =    -0.83656740   -1.51912279  -37.54294561
     atom   18 type  2   force =     0.13947204    0.52741806   38.73034173
     atom   19 type  1   force =    -2.44462441    2.87343478    0.54091120
     atom   20 type  2   force =    -0.10664164    0.34868451   38.87037451
     atom   21 type  1   force =     1.17274088   -0.41275721    0.76507041
     atom   22 type  2   force =    -0.44326735    1.86083715  -37.81089069
     atom   23 type  2   force =     0.14041559   -0.49144706   38.64091578
     atom   24 type  1   force =    -0.47458989   -2.60082595   -3.57256577
     atom   25 type  2   force =    -1.38713125   -0.96498465  -38.59599314
     atom   26 type  2   force =     0.06879248   -0.27358762   37.82639339
     atom   27 type  1   force =    -0.27105723   -0.41452373    2.97518134
     atom   28 type  2   force =    -0.23952028   -1.17385866  -37.71570866
     atom   29 type  2   force =     0.16420607    0.27299406   37.58937445
     atom   30 type  1   force =    -0.86923276    2.22510469    2.39426560
     atom   31 type  2   force =    -1.52771761    0.46623958  -36.76719389
     atom   32 type  2   force =     0.36539960    0.12858904   38.84636171
     atom   33 type  1   force =    -2.02421995    1.03598831    0.22534078
     atom   34 type  2   force =    -4.82814616    3.43610623  -35.48066836
     atom   35 type  2   force =    -0.07780949   -0.24394873   38.45528292
     atom   36 type  3   force =     1.18058027    0.45996072  -46.93364765
     The core correction contribution to forces
     atom    1 type  1   force =     0.00000000    0.00000000    0.00000000
     atom    2 type  2   force =    -0.00050177   -0.00204589    0.02114546
     atom    3 type  2   force =     0.00062076    0.00068259   -0.02089010
     atom    4 type  1   force =     0.00000000    0.00000000    0.00000000
     atom    5 type  2   force =    -0.00063722    0.00173024    0.02038801
     atom    6 type  2   force =     0.00021172   -0.00118106   -0.02085758
     atom    7 type  1   force =     0.00000000    0.00000000    0.00000000
     atom    8 type  2   force =    -0.00013960    0.00018118    0.02066991
     atom    9 type  2   force =    -0.00051217    0.00046262   -0.02104611
     atom   10 type  1   force =     0.00000000    0.00000000    0.00000000
     atom   11 type  2   force =     0.00234529    0.00101916    0.02131226
     atom   12 type  2   force =     0.00075050    0.00112821   -0.02085442
     atom   13 type  1   force =     0.00000000    0.00000000    0.00000000
     atom   14 type  2   force =    -0.00030471   -0.00019131    0.02048599
     atom   15 type  2   force =     0.00072099    0.00045727   -0.02033143
     atom   16 type  1   force =     0.00000000    0.00000000    0.00000000
     atom   17 type  2   force =     0.00002305    0.00145172    0.02031817
     atom   18 type  2   force =     0.00004096   -0.00056113   -0.02100724
     atom   19 type  1   force =     0.00000000    0.00000000    0.00000000
     atom   20 type  2   force =     0.00012293    0.00072815   -0.02117227
     atom   21 type  1   force =     0.00000000    0.00000000    0.00000000
     atom   22 type  2   force =    -0.00042518   -0.00034086    0.02041803
     atom   23 type  2   force =    -0.00036264    0.00127366   -0.02085728
     atom   24 type  1   force =     0.00000000    0.00000000    0.00000000
     atom   25 type  2   force =     0.00025657   -0.00018194    0.02099668
     atom   26 type  2   force =    -0.00046494    0.00103324   -0.02074975
     atom   27 type  1   force =     0.00000000    0.00000000    0.00000000
     atom   28 type  2   force =     0.00015973    0.00174272    0.02107788
     atom   29 type  2   force =    -0.00049842   -0.00048156   -0.02066176
     atom   30 type  1   force =     0.00000000    0.00000000    0.00000000
     atom   31 type  2   force =     0.00019778    0.00022106    0.02050653
     atom   32 type  2   force =    -0.00011917    0.00060287   -0.02108505
     atom   33 type  1   force =     0.00000000    0.00000000    0.00000000
     atom   34 type  2   force =     0.02513417   -0.01228203    0.00490535
     atom   35 type  2   force =     0.00012486    0.00083863   -0.02095852
     atom   36 type  3   force =    -0.01478392    0.00711924    0.00896862
     The Hubbard contrib.    to forces
     atom    1 type  1   force =     0.00000000    0.00000000    0.00000000
     atom    2 type  2   force =     0.00000000    0.00000000    0.00000000
     atom    3 type  2   force =     0.00000000    0.00000000    0.00000000
     atom    4 type  1   force =     0.00000000    0.00000000    0.00000000
     atom    5 type  2   force =     0.00000000    0.00000000    0.00000000
     atom    6 type  2   force =     0.00000000    0.00000000    0.00000000
     atom    7 type  1   force =     0.00000000    0.00000000    0.00000000
     atom    8 type  2   force =     0.00000000    0.00000000    0.00000000
     atom    9 type  2   force =     0.00000000    0.00000000    0.00000000
     atom   10 type  1   force =     0.00000000    0.00000000    0.00000000
     atom   11 type  2   force =     0.00000000    0.00000000    0.00000000
     atom   12 type  2   force =     0.00000000    0.00000000    0.00000000
     atom   13 type  1   force =     0.00000000    0.00000000    0.00000000
     atom   14 type  2   force =     0.00000000    0.00000000    0.00000000
     atom   15 type  2   force =     0.00000000    0.00000000    0.00000000
     atom   16 type  1   force =     0.00000000    0.00000000    0.00000000
     atom   17 type  2   force =     0.00000000    0.00000000    0.00000000
     atom   18 type  2   force =     0.00000000    0.00000000    0.00000000
     atom   19 type  1   force =     0.00000000    0.00000000    0.00000000
     atom   20 type  2   force =     0.00000000    0.00000000    0.00000000
     atom   21 type  1   force =     0.00000000    0.00000000    0.00000000
     atom   22 type  2   force =     0.00000000    0.00000000    0.00000000
     atom   23 type  2   force =     0.00000000    0.00000000    0.00000000
     atom   24 type  1   force =     0.00000000    0.00000000    0.00000000
     atom   25 type  2   force =     0.00000000    0.00000000    0.00000000
     atom   26 type  2   force =     0.00000000    0.00000000    0.00000000
     atom   27 type  1   force =     0.00000000    0.00000000    0.00000000
     atom   28 type  2   force =     0.00000000    0.00000000    0.00000000
     atom   29 type  2   force =     0.00000000    0.00000000    0.00000000
     atom   30 type  1   force =     0.00000000    0.00000000    0.00000000
     atom   31 type  2   force =     0.00000000    0.00000000    0.00000000
     atom   32 type  2   force =     0.00000000    0.00000000    0.00000000
     atom   33 type  1   force =     0.00000000    0.00000000    0.00000000
     atom   34 type  2   force =     0.00000000    0.00000000    0.00000000
     atom   35 type  2   force =     0.00000000    0.00000000    0.00000000
     atom   36 type  3   force =     0.00000000    0.00000000    0.00000000
     The SCF correction term to forces
     atom    1 type  1   force =     0.00071802   -0.00048078   -0.00058812
     atom    2 type  2   force =    -0.00000863   -0.00018130   -0.00049854
     atom    3 type  2   force =     0.00005785   -0.00015642   -0.00004371
     atom    4 type  1   force =     0.00006394   -0.00006572   -0.00077987
     atom    5 type  2   force =     0.00005426    0.00000466   -0.00032467
     atom    6 type  2   force =     0.00008800    0.00003891   -0.00023323
     atom    7 type  1   force =     0.00007346    0.00026775   -0.00075347
     atom    8 type  2   force =    -0.00011443    0.00002835   -0.00043970
     atom    9 type  2   force =    -0.00005571    0.00005959   -0.00012594
     atom   10 type  1   force =    -0.00032057    0.00032569   -0.00084862
     atom   11 type  2   force =     0.00019991    0.00010252   -0.00050395
     atom   12 type  2   force =     0.00016872    0.00005300   -0.00004808
     atom   13 type  1   force =    -0.00022718    0.00004536   -0.00074614
     atom   14 type  2   force =     0.00010853   -0.00004542   -0.00032463
     atom   15 type  2   force =     0.00006180   -0.00006553   -0.00023261
     atom   16 type  1   force =    -0.00005800    0.00026369   -0.00074989
     atom   17 type  2   force =     0.00000727   -0.00000924   -0.00037225
     atom   18 type  2   force =     0.00000490   -0.00000868   -0.00014110
     atom   19 type  1   force =     0.00058554   -0.00016612   -0.00091632
     atom   20 type  2   force =     0.00007355    0.00000889   -0.00010583
     atom   21 type  1   force =     0.00060628   -0.00011002   -0.00072358
     atom   22 type  2   force =     0.00011650    0.00005864   -0.00037583
     atom   23 type  2   force =     0.00002821    0.00003489   -0.00020019
     atom   24 type  1   force =    -0.00047593   -0.00034221   -0.00079040
     atom   25 type  2   force =    -0.00007991    0.00005353   -0.00046558
     atom   26 type  2   force =    -0.00012627   -0.00004846   -0.00011139
     atom   27 type  1   force =     0.00001945   -0.00028931   -0.00069934
     atom   28 type  2   force =    -0.00006572   -0.00008624   -0.00039255
     atom   29 type  2   force =    -0.00009039   -0.00008182   -0.00016482
     atom   30 type  1   force =    -0.00059656    0.00012690   -0.00103186
     atom   31 type  2   force =     0.00002562   -0.00013203   -0.00028812
     atom   32 type  2   force =    -0.00001593   -0.00002873   -0.00027427
     atom   33 type  1   force =    -0.00026753    0.00048840   -0.00109522
     atom   34 type  2   force =    -0.00033257    0.00017536   -0.00038806
     atom   35 type  2   force =    -0.00020722    0.00016747   -0.00017748
     atom   36 type  3   force =    -0.00034460    0.00026919   -0.00033574

     Total force =     0.172575     Total SCF correction =     0.003752
     Energy error            =      4.4E-02 Ry
     Gradient error          =      1.1E-01 Ry/Bohr

     number of scf cycles    =   2
     number of bfgs steps    =   1

     energy             old  =   -2246.1835184800 Ry
     energy             new  =   -2246.2275286180 Ry

     CASE: energy            _new < energy            _old

     new trust radius        =       0.1486974889 bohr
     new conv_thr            =       0.0000001118 Ry


ATOMIC_POSITIONS (angstrom)
Mo            6.5907524299        1.7803630075        2.8222367857
S             8.1517441657        0.8776263143        4.4049313061
S             8.1779350772        0.8178416850        1.2677151438
Mo            8.1002565993        4.5005173575        2.7161645973
S             6.5003096479        3.7161398285        4.3409845197
S             6.5539271139        3.5194372869        1.1224983306
Mo            6.4917965935        7.2077192418        2.6640393710
S             8.0818333498        6.3372862700        4.2640972474
S             8.0963712167        6.3084396639        1.0896929993
Mo            8.1299548073        9.9255696220        2.7863242159
S             6.4467345756        8.9201334991        4.3428485633
S             6.6159874964        9.0529632228        1.1452460843
Mo            3.4281906589        1.7536060625        2.7672476012
S             4.9834098711        0.8172579979        4.3628903664
S             5.0437654411        0.8494494190        1.2147722587
Mo            4.9778590731        4.5254974168        2.6362773353
S             3.4338742501        3.6724995503        4.2807772014
S             3.4341520381        3.5419885138        1.0714570589
Mo            3.4628537211        7.2048045646        2.6332546364
S             4.9864395933        6.3221000231        1.0356054225
Mo            4.9974530000        9.8966288416        2.7375290244
S             3.4745190452        8.9368864421        4.3215196049
S             3.4070590351        9.0676867273        1.1047497742
Mo            0.2882255333        1.7422204078        2.8294271764
S             1.8705319243        0.8142054068        4.4065847553
S             1.8537014744        0.8525852215        1.2007377293
Mo            1.8598345812        4.4949459336        2.6687475968
S             0.2715836967        3.6505819014        4.3332961176
S             0.2350851904        3.5289364935        1.1691795535
Mo            0.2442645336        7.2166407796        2.7009570845
S             1.9041396642        6.3114742560        4.2366551452
S             1.8534332408        6.3163523911        1.0520392453
Mo            1.8419069987        9.9670085205        2.7674181851
S             0.2853397310        9.0459816066        4.4739595690
S             0.2677015783        9.0536903150        1.1670859931
O             8.5354289536        9.6484583965        5.3873752199



     Writing config-only to output data dir ./MoS2-V-O.save/
     NEW-OLD atomic charge density approx. for the potential

     negative rho (up, down):  1.776E-04 0.000E+00

     total cpu time spent up to now is      236.8 secs

     Self-consistent Calculation

     iteration #  1     ecut=    80.00 Ry     beta= 0.70
     Davidson diagonalization with overlap
     ethr =  1.00E-06,  avg # of iterations = 11.0

     negative rho (up, down):  2.202E-04 0.000E+00

     total cpu time spent up to now is      252.6 secs

     total energy              =   -2246.25322596 Ry
     estimated scf accuracy    <       0.02295735 Ry

     iteration #  2     ecut=    80.00 Ry     beta= 0.70
     Davidson diagonalization with overlap
     ethr =  7.36E-06,  avg # of iterations =  6.0

     negative rho (up, down):  2.384E-04 0.000E+00

     total cpu time spent up to now is      263.9 secs

     total energy              =   -2246.25686620 Ry
     estimated scf accuracy    <       0.01491843 Ry

     iteration #  3     ecut=    80.00 Ry     beta= 0.70
     Davidson diagonalization with overlap
     ethr =  4.78E-06,  avg # of iterations =  4.0

     negative rho (up, down):  2.877E-04 0.000E+00

     total cpu time spent up to now is      277.4 secs

     total energy              =   -2246.25838044 Ry
     estimated scf accuracy    <       0.00044614 Ry

     iteration #  4     ecut=    80.00 Ry     beta= 0.70
     Davidson diagonalization with overlap
     ethr =  1.43E-07,  avg # of iterations =  6.0

     negative rho (up, down):  3.217E-04 0.000E+00

     total cpu time spent up to now is      289.9 secs

     total energy              =   -2246.25843472 Ry
     estimated scf accuracy    <       0.00014640 Ry

     iteration #  5     ecut=    80.00 Ry     beta= 0.70
     Davidson diagonalization with overlap
     ethr =  4.69E-08,  avg # of iterations =  5.0

     negative rho (up, down):  3.382E-04 0.000E+00

     total cpu time spent up to now is      305.1 secs

     total energy              =   -2246.25844416 Ry
     estimated scf accuracy    <       0.00002043 Ry

     iteration #  6     ecut=    80.00 Ry     beta= 0.70
     Davidson diagonalization with overlap
     ethr =  6.55E-09,  avg # of iterations =  6.0

     negative rho (up, down):  3.372E-04 0.000E+00

     total cpu time spent up to now is      320.9 secs

     total energy              =   -2246.25844777 Ry
     estimated scf accuracy    <       0.00000197 Ry

     iteration #  7     ecut=    80.00 Ry     beta= 0.70
     Davidson diagonalization with overlap
     ethr =  6.33E-10,  avg # of iterations =  6.0

     negative rho (up, down):  3.252E-04 0.000E+00

     total cpu time spent up to now is      335.2 secs

     total energy              =   -2246.25844843 Ry
     estimated scf accuracy    <       0.00000070 Ry

     iteration #  8     ecut=    80.00 Ry     beta= 0.70
     Davidson diagonalization with overlap
     ethr =  2.23E-10,  avg # of iterations =  2.0

     negative rho (up, down):  2.999E-04 0.000E+00

     total cpu time spent up to now is      346.0 secs

     total energy              =   -2246.25844854 Ry
     estimated scf accuracy    <       0.00000025 Ry

     iteration #  9     ecut=    80.00 Ry     beta= 0.70
     Davidson diagonalization with overlap
     ethr =  7.99E-11,  avg # of iterations =  4.0

     negative rho (up, down):  2.001E-04 0.000E+00

     total cpu time spent up to now is      350.3 secs

     End of self-consistent calculation

          k = 0.0000 0.0000 0.0000 (105382 PWs)   bands (ev):

   -63.0005 -62.9654 -62.9498 -62.9384 -62.9288 -62.9178 -62.9033 -62.8985
   -62.8824 -62.8719 -62.8406 -62.8290 -37.3239 -37.2687 -37.2492 -37.2373
   -37.2231 -37.2130 -37.2046 -37.1728 -37.1674 -37.1508 -37.1404 -37.1245
   -37.1199 -37.1130 -37.1061 -37.0969 -37.0929 -37.0865 -37.0828 -37.0612
   -37.0561 -37.0487 -37.0424 -37.0363 -37.0164 -37.0103 -36.9969 -36.9949
   -36.9766 -36.9698 -36.9627 -36.9391 -36.9275 -36.8626 -36.8452 -36.8385
   -21.3534 -16.0040 -15.2374 -15.2169 -15.0686 -14.9476 -14.8109 -14.5898
   -14.5610 -14.5287 -14.5002 -14.4788 -14.4232 -14.3586 -14.3058 -14.2476
   -14.2113 -14.1983 -14.0852 -14.0216 -13.9596 -13.9125 -13.8621 -13.6432
    -7.9591  -7.8387  -7.5977  -7.5291  -7.3868  -7.3365  -7.2826  -7.2273
    -7.1783  -6.9388  -6.9150  -6.8675  -6.8452  -6.7540  -6.6945  -6.5989
    -6.5826  -6.4965  -6.3711  -6.3147  -6.1499  -6.0842  -6.0013  -5.9312
    -5.8934  -5.8549  -5.8180  -5.7610  -5.7400  -5.6998  -5.6431  -5.6124
    -5.5701  -5.5185  -5.4804  -5.3427  -5.3199  -5.2316  -5.2119  -5.0838
    -5.0317  -5.0089  -4.9184  -4.8644  -4.7147  -4.5858  -4.5038  -4.4189
    -4.3852  -4.3342  -4.2269  -4.2090  -4.1368  -4.0125  -3.9088  -3.8257
    -3.7930  -3.7773  -3.6948  -3.6820  -3.6151  -3.6043  -3.5773  -3.5175
    -3.4803  -3.4363  -3.3800  -3.2946  -3.1044  -3.0621  -2.9392  -2.9173
    -2.8539  -2.8122  -2.7735  -2.7438  -2.7228  -2.6915  -2.3560  -2.3208
    -2.1438  -2.1201  -1.9337  -1.4126  -1.0127  -0.8688  -0.7801  -0.2428
    -0.2227  -0.1491  -0.0540   0.0106   0.0240   0.0939   0.1936   0.2232
     0.2616   0.3202   0.3568   0.3697   0.4526   0.4858   0.5155   0.5436
     0.5961   0.6298   0.6642   0.7444   0.7669   0.8069   0.8553   0.9215
     0.9611   1.0593   1.2036

     the Fermi energy is    -1.2129 ev

!    total energy              =   -2246.25844869 Ry
     estimated scf accuracy    <       0.00000005 Ry
     smearing contrib. (-TS)   =      -0.00131177 Ry
     internal energy E=F+TS    =   -2246.25713693 Ry

     The total energy is F=E-TS. E is the sum of the following terms:
     one-electron contribution =  -18453.05486422 Ry
     hartree contribution      =    9214.61919929 Ry
     xc contribution           =    -392.05368799 Ry
     ewald contribution        =    7394.09750563 Ry
     one-center paw contrib.   =      -9.86528963 Ry

     convergence has been achieved in   9 iterations

     negative rho (up, down):  2.001E-04 0.000E+00

     Forces acting on atoms (cartesian axes, Ry/au):

     atom    1 type  1   force =    -0.00853505    0.00116007   -0.01063575
     atom    2 type  2   force =    -0.01143170    0.02100482   -0.01143055
     atom    3 type  2   force =    -0.01174011    0.00916184   -0.02063440
     atom    4 type  1   force =     0.00289463    0.00235867    0.00087713
     atom    5 type  2   force =     0.00135077   -0.00298294   -0.00486369
     atom    6 type  2   force =     0.00018035    0.00674146    0.00152795
     atom    7 type  1   force =     0.00573473   -0.00921692   -0.00584284
     atom    8 type  2   force =    -0.00383408   -0.00380590    0.01239990
     atom    9 type  2   force =     0.01036855    0.00143317    0.00032498
     atom   10 type  1   force =    -0.00193135    0.00791364   -0.01558180
     atom   11 type  2   force =    -0.01433620   -0.00738575   -0.01848891
     atom   12 type  2   force =    -0.00771598    0.00139507   -0.00667874
     atom   13 type  1   force =     0.00202807    0.00303232   -0.00026187
     atom   14 type  2   force =     0.00552769   -0.00050914    0.00302290
     atom   15 type  2   force =    -0.00655835    0.00181320   -0.00712903
     atom   16 type  1   force =     0.00075599    0.00519344    0.00189071
     atom   17 type  2   force =     0.00457535    0.00099621    0.00194244
     atom   18 type  2   force =    -0.00175016   -0.00081951    0.00748782
     atom   19 type  1   force =     0.00128340   -0.00546491    0.00328534
     atom   20 type  2   force =     0.00095330   -0.00339442   -0.00524465
     atom   21 type  1   force =    -0.00975800    0.00450686   -0.00651044
     atom   22 type  2   force =    -0.00269702   -0.00257051   -0.00465460
     atom   23 type  2   force =    -0.00455507   -0.00215282    0.00373092
     atom   24 type  1   force =     0.00026600   -0.00264991   -0.00895182
     atom   25 type  2   force =     0.00810889    0.01495989    0.00047559
     atom   26 type  2   force =    -0.00122041   -0.00017756   -0.00884077
     atom   27 type  1   force =    -0.00022960   -0.00019243    0.00534191
     atom   28 type  2   force =    -0.00003823   -0.00393891   -0.00427357
     atom   29 type  2   force =     0.00318084    0.00319247   -0.00333441
     atom   30 type  1   force =    -0.01645291    0.00032352    0.01117420
     atom   31 type  2   force =    -0.00115510   -0.00084769    0.00469646
     atom   32 type  2   force =    -0.00573368    0.00429969    0.00708700
     atom   33 type  1   force =    -0.01163820    0.01016632    0.01556479
     atom   34 type  2   force =    -0.01151273   -0.01378291    0.01425720
     atom   35 type  2   force =    -0.00616068    0.00792237    0.00743303
     atom   36 type  3   force =     0.09177603   -0.04768282    0.04083754
     The non-local contrib.  to forces
     atom    1 type  1   force =     0.00591009    0.02175600   -0.00747858
     atom    2 type  2   force =     0.01117325    0.01990186   -0.25943789
     atom    3 type  2   force =    -0.01077260   -0.00916348    0.26143535
     atom    4 type  1   force =    -0.00010292    0.00442363    0.00165221
     atom    5 type  2   force =     0.00688865   -0.03038950   -0.25483793
     atom    6 type  2   force =    -0.00148551    0.01180067    0.26481889
     atom    7 type  1   force =    -0.02171012   -0.00013114   -0.02045329
     atom    8 type  2   force =     0.00100250    0.00212841   -0.26063554
     atom    9 type  2   force =     0.01116292   -0.01013333    0.27376954
     atom   10 type  1   force =    -0.01241653    0.00361772   -0.00848214
     atom   11 type  2   force =    -0.02940858   -0.01734982   -0.25533740
     atom   12 type  2   force =    -0.01135658   -0.01745365    0.25802668
     atom   13 type  1   force =     0.00286093    0.02053346   -0.00659391
     atom   14 type  2   force =     0.00483733   -0.00519642   -0.26469269
     atom   15 type  2   force =    -0.00892292   -0.00808983    0.25850462
     atom   16 type  1   force =    -0.00352588    0.02990423   -0.02864907
     atom   17 type  2   force =     0.00188289   -0.02751667   -0.25104396
     atom   18 type  2   force =    -0.00176453    0.00099778    0.27043225
     atom   19 type  1   force =     0.03154578   -0.00683423   -0.02235680
     atom   20 type  2   force =    -0.00060476   -0.01804866    0.26256009
     atom   21 type  1   force =     0.00931310    0.01924225    0.00524295
     atom   22 type  2   force =     0.00037527    0.00063762   -0.25662359
     atom   23 type  2   force =     0.00164554   -0.01714807    0.26616911
     atom   24 type  1   force =    -0.00485388    0.02041449   -0.00606745
     atom   25 type  2   force =    -0.00143192    0.00117624   -0.26838794
     atom   26 type  2   force =     0.00761567   -0.01519265    0.25997649
     atom   27 type  1   force =    -0.00293125    0.00654554    0.00754359
     atom   28 type  2   force =    -0.00173395   -0.02377210   -0.27744375
     atom   29 type  2   force =     0.00502170   -0.00009822    0.26615480
     atom   30 type  1   force =     0.01119637    0.02376800   -0.00003693
     atom   31 type  2   force =    -0.00343950   -0.00248143   -0.25758761
     atom   32 type  2   force =    -0.00193296   -0.01094536    0.27634086
[...]
     atom   28 type  2   force =     0.00074956   -0.01119752   -0.27751278
     atom   29 type  2   force =    -0.00052814   -0.00942066    0.27021255
     atom   30 type  1   force =     0.00010756    0.03014393    0.01815632
     atom   31 type  2   force =    -0.00789142    0.00297163   -0.27121305
     atom   32 type  2   force =     0.00578341   -0.01283952    0.26767695
     atom   33 type  1   force =    -0.01058215   -0.00153291    0.02057838
     atom   34 type  2   force =    -0.00068063   -0.00569563    0.29661583
     atom   35 type  2   force =    -0.00048093   -0.01326079    0.27735554
     atom   36 type  3   force =     0.01584053    0.00626535   -2.31739747
     The ionic contribution  to forces
     atom    1 type  1   force =    -0.51820807    1.17991531    0.88683108
     atom    2 type  2   force =    -0.72607005    1.09501123   38.14285335
     atom    3 type  2   force =     0.05017754    0.13070602  -38.38707658
     atom    4 type  1   force =    -0.36685835   -0.16216320   -0.29162278
     atom    5 type  2   force =    -0.93250058    1.09930894   38.17864467
     atom    6 type  2   force =     0.13942576   -0.28420633  -38.50436947
     atom    7 type  1   force =    -3.27356783   -2.45612018    1.26516625
     atom    8 type  2   force =    -1.79943628   -0.81072556   37.64735534
     atom    9 type  2   force =     0.22169720   -0.09042779  -38.69396815
     atom   10 type  1   force =    -1.39697724    0.21618695   -1.51423239
     atom   11 type  2   force =    -1.42851836   -1.45973934   37.79594113
     atom   12 type  2   force =     0.10407134    0.21588257  -38.72216488
     atom   13 type  1   force =     0.53006380    1.16595509    1.35556435
     atom   14 type  2   force =     0.01102750    0.26721512   38.20082762
     atom   15 type  2   force =    -0.01491458   -0.01082796  -38.05020898
     atom   16 type  1   force =     0.02097176    3.31855491    1.38480035
     atom   17 type  2   force =     0.96144863    1.10378422   38.27947701
     atom   18 type  2   force =    -0.16344814   -0.28138871  -38.42542701
     atom   19 type  1   force =     3.29640346   -2.45558516    1.83428854
     atom   20 type  2   force =    -0.02149879   -0.11398652  -38.93641983
     atom   21 type  1   force =     0.00113132    0.00881238   -0.30405180
     atom   22 type  2   force =     1.41453926   -1.43985701   37.89390991
     atom   23 type  2   force =    -0.12936288    0.20635653  -38.67657491
     atom   24 type  1   force =     0.00064987    1.31091709    0.81761714
     atom   25 type  2   force =     0.70957764    1.07522324   38.20951855
     atom   26 type  2   force =    -0.04208955    0.10338656  -38.34888272
     atom   27 type  1   force =     0.36327158   -0.16936681    0.21769730
     atom   28 type  2   force =    -0.02784544    0.44102913   37.93054974
     atom   29 type  2   force =     0.02239382   -0.06098391  -37.97795031
     atom   30 type  1   force =    -0.00281601   -1.77140187   -1.95077200
     atom   31 type  2   force =     1.76901711   -0.79512371   37.76465623
     atom   32 type  2   force =    -0.19405107   -0.09849182  -38.57880393
     atom   33 type  1   force =     1.39632051    0.22571563   -1.32085318
     atom   34 type  2   force =     0.05436976   -0.42762135   28.63320828
     atom   35 type  2   force =     0.01976483    0.09495191  -38.19872635
     atom   36 type  3   force =    -0.04815948   -0.37089559   50.44319841
     The local contribution  to forces
     atom    1 type  1   force =     0.52196914   -1.20442844   -0.88247458
     atom    2 type  2   force =     0.72617696   -1.08404487  -37.89216921
     atom    3 type  2   force =    -0.04748119   -0.12102984   38.14235532
     atom    4 type  1   force =     0.36536228    0.15909160    0.28895401
     atom    5 type  2   force =     0.92816457   -1.07761451  -37.94329655
     atom    6 type  2   force =    -0.13962416    0.28762552   38.25999766
     atom    7 type  1   force =     3.28949658    2.45175412   -1.24290691
     atom    8 type  2   force =     1.79068965    0.80671203  -37.39698276
     atom    9 type  2   force =    -0.21619047    0.10287036   38.44614638
     atom   10 type  1   force =     1.38615236   -0.21454059    1.49300801
     atom   11 type  2   force =     1.42525907    1.45717191  -37.55243849
     atom   12 type  2   force =    -0.09682151   -0.20338372   38.48029254
     atom   13 type  1   force =    -0.53347869   -1.19092817   -1.35120610
     atom   14 type  2   force =    -0.01065302   -0.25664029  -37.94858743
     atom   15 type  2   force =     0.01460808    0.02218350   37.80632134
     atom   16 type  1   force =    -0.02083990   -3.35121663   -1.34919479
     atom   17 type  2   force =    -0.95655868   -1.08237201  -38.04433645
     atom   18 type  2   force =     0.16324740    0.28507115   38.18113723
     atom   19 type  1   force =    -3.31147871    2.45094002   -1.81176951
     atom   20 type  2   force =     0.02100726    0.12555098   38.69274472
     atom   21 type  1   force =    -0.00087661   -0.04085273    0.29219506
     atom   22 type  2   force =    -1.41073710    1.43773824  -37.65092448
     atom   23 type  2   force =     0.12187005   -0.19383193   38.43501586
     atom   24 type  1   force =    -0.00030349   -1.32525425   -0.81635719
     atom   25 type  2   force =    -0.70993271   -1.06459385  -37.95916732
     atom   26 type  2   force =     0.03961719   -0.09367480   38.10469779
     atom   27 type  1   force =    -0.36160068    0.16631476   -0.22016690
     atom   28 type  2   force =     0.02732103   -0.42995149  -37.67486813
     atom   29 type  2   force =    -0.02190605    0.06973012   37.72877022
     atom   30 type  1   force =     0.00204972    1.74186000    1.93262345
     atom   31 type  2   force =    -1.76082000    0.79124924  -37.51469463
     atom   32 type  2   force =     0.18893548    0.11088375   38.33059403
     atom   33 type  1   force =    -1.38665733   -0.22353344    1.30067965
     atom   34 type  2   force =    -0.05328424    0.43428650  -28.91898947
     atom   35 type  2   force =    -0.01953643   -0.08189315   37.94289597
     atom   36 type  3   force =     0.03312594    0.36446434  -48.15154434
     The core correction contribution to forces
     atom    1 type  1   force =     0.00000000    0.00000000    0.00000000
     atom    2 type  2   force =    -0.00003220    0.00049632    0.02120708
     atom    3 type  2   force =     0.00026962    0.00041857   -0.02082031
     atom    4 type  1   force =     0.00000000    0.00000000    0.00000000
     atom    5 type  2   force =    -0.00040097    0.00093330    0.02050760
     atom    6 type  2   force =     0.00013588   -0.00020509   -0.02089200
     atom    7 type  1   force =     0.00000000    0.00000000    0.00000000
     atom    8 type  2   force =    -0.00045274    0.00015417    0.02126322
     atom    9 type  2   force =     0.00055247    0.00070510   -0.02097381
     atom   10 type  1   force =     0.00000000    0.00000000    0.00000000
     atom   11 type  2   force =     0.00009058   -0.00035650    0.02103167
     atom   12 type  2   force =     0.00065428    0.00089713   -0.02072135
     atom   13 type  1   force =     0.00000000    0.00000000    0.00000000
     atom   14 type  2   force =     0.00006525    0.00026815    0.02112193
     atom   15 type  2   force =    -0.00006981    0.00050711   -0.02073426
     atom   16 type  1   force =     0.00000000    0.00000000    0.00000000
     atom   17 type  2   force =     0.00047224    0.00094579    0.02052852
     atom   18 type  2   force =    -0.00019393   -0.00021392   -0.02088956
     atom   19 type  1   force =     0.00000000    0.00000000    0.00000000
     atom   20 type  2   force =    -0.00007714    0.00054780   -0.02126598
     atom   21 type  1   force =     0.00000000    0.00000000    0.00000000
     atom   22 type  2   force =    -0.00002366   -0.00028105    0.02103918
     atom   23 type  2   force =    -0.00063543    0.00079641   -0.02074829
     atom   24 type  1   force =     0.00000000    0.00000000    0.00000000
     atom   25 type  2   force =    -0.00004191    0.00050159    0.02121806
     atom   26 type  2   force =    -0.00017961    0.00051982   -0.02084552
     atom   27 type  1   force =     0.00000000    0.00000000    0.00000000
     atom   28 type  2   force =    -0.00006135    0.00075458    0.02128438
     atom   29 type  2   force =     0.00005917    0.00031666   -0.02088850
     atom   30 type  1   force =     0.00000000    0.00000000    0.00000000
     atom   31 type  2   force =     0.00038643    0.00017782    0.02128552
     atom   32 type  2   force =    -0.00049904    0.00067472   -0.02095325
     atom   33 type  1   force =     0.00000000    0.00000000    0.00000000
     atom   34 type  2   force =     0.00006040    0.00022594   -0.00973824
     atom   35 type  2   force =     0.00003888    0.00072170   -0.02133353
     atom   36 type  3   force =    -0.00017133   -0.00008010    0.02457695
     The Hubbard contrib.    to forces
     atom    1 type  1   force =     0.00000000    0.00000000    0.00000000
     atom    2 type  2   force =     0.00000000    0.00000000    0.00000000
     atom    3 type  2   force =     0.00000000    0.00000000    0.00000000
     atom    4 type  1   force =     0.00000000    0.00000000    0.00000000
     atom    5 type  2   force =     0.00000000    0.00000000    0.00000000
     atom    6 type  2   force =     0.00000000    0.00000000    0.00000000
     atom    7 type  1   force =     0.00000000    0.00000000    0.00000000
     atom    8 type  2   force =     0.00000000    0.00000000    0.00000000
     atom    9 type  2   force =     0.00000000    0.00000000    0.00000000
     atom   10 type  1   force =     0.00000000    0.00000000    0.00000000
     atom   11 type  2   force =     0.00000000    0.00000000    0.00000000
     atom   12 type  2   force =     0.00000000    0.00000000    0.00000000
     atom   13 type  1   force =     0.00000000    0.00000000    0.00000000
     atom   14 type  2   force =     0.00000000    0.00000000    0.00000000
     atom   15 type  2   force =     0.00000000    0.00000000    0.00000000
     atom   16 type  1   force =     0.00000000    0.00000000    0.00000000
     atom   17 type  2   force =     0.00000000    0.00000000    0.00000000
     atom   18 type  2   force =     0.00000000    0.00000000    0.00000000
     atom   19 type  1   force =     0.00000000    0.00000000    0.00000000
     atom   20 type  2   force =     0.00000000    0.00000000    0.00000000
     atom   21 type  1   force =     0.00000000    0.00000000    0.00000000
     atom   22 type  2   force =     0.00000000    0.00000000    0.00000000
     atom   23 type  2   force =     0.00000000    0.00000000    0.00000000
     atom   24 type  1   force =     0.00000000    0.00000000    0.00000000
     atom   25 type  2   force =     0.00000000    0.00000000    0.00000000
     atom   26 type  2   force =     0.00000000    0.00000000    0.00000000
     atom   27 type  1   force =     0.00000000    0.00000000    0.00000000
     atom   28 type  2   force =     0.00000000    0.00000000    0.00000000
     atom   29 type  2   force =     0.00000000    0.00000000    0.00000000
     atom   30 type  1   force =     0.00000000    0.00000000    0.00000000
     atom   31 type  2   force =     0.00000000    0.00000000    0.00000000
     atom   32 type  2   force =     0.00000000    0.00000000    0.00000000
     atom   33 type  1   force =     0.00000000    0.00000000    0.00000000
     atom   34 type  2   force =     0.00000000    0.00000000    0.00000000
     atom   35 type  2   force =     0.00000000    0.00000000    0.00000000
     atom   36 type  3   force =     0.00000000    0.00000000    0.00000000
     The SCF correction term to forces
     atom    1 type  1   force =    -0.00000026    0.00000215   -0.00005213
     atom    2 type  2   force =     0.00000270   -0.00000670   -0.00002561
     atom    3 type  2   force =    -0.00001021   -0.00000811   -0.00000180
     atom    4 type  1   force =    -0.00002202    0.00000168   -0.00001875
     atom    5 type  2   force =    -0.00000015    0.00000895   -0.00002241
     atom    6 type  2   force =    -0.00000279   -0.00000136   -0.00000907
     atom    7 type  1   force =     0.00000467   -0.00000346   -0.00000350
     atom    8 type  2   force =    -0.00000397    0.00000538   -0.00000759
     atom    9 type  2   force =    -0.00002066   -0.00000400    0.00000483
     atom   10 type  1   force =    -0.00001824    0.00000064   -0.00004377
     atom   11 type  2   force =     0.00000206   -0.00000783   -0.00001659
     atom   12 type  2   force =     0.00000924    0.00001082    0.00000420
     atom   13 type  1   force =     0.00001434    0.00000413   -0.00002762
     atom   14 type  2   force =    -0.00000765   -0.00000447   -0.00001858
     atom   15 type  2   force =     0.00000210    0.00000832   -0.00000594
     atom   16 type  1   force =     0.00000081   -0.00000746   -0.00002155
     atom   17 type  2   force =    -0.00000148    0.00000400   -0.00001351
     atom   18 type  2   force =     0.00001518   -0.00001019    0.00000373
     atom   19 type  1   force =     0.00002215   -0.00000758    0.00002465
     atom   20 type  2   force =     0.00001768   -0.00000995    0.00000642
     atom   21 type  1   force =     0.00002202    0.00000351   -0.00001498
     atom   22 type  2   force =     0.00000143   -0.00000311   -0.00000959
     atom   23 type  2   force =     0.00000662    0.00000867    0.00000871
     atom   24 type  1   force =    -0.00000271   -0.00000526   -0.00003189
     atom   25 type  2   force =     0.00000351    0.00000124   -0.00001905
     atom   26 type  2   force =     0.00000102    0.00000363    0.00000691
     atom   27 type  1   force =    -0.00000394   -0.00001232    0.00000866
     atom   28 type  2   force =     0.00000728    0.00000666   -0.00000744
     atom   29 type  2   force =    -0.00000631   -0.00000404    0.00000401
     atom   30 type  1   force =    -0.00002054    0.00000507    0.00002050
     atom   31 type  2   force =     0.00000485   -0.00000578    0.00000428
     atom   32 type  2   force =     0.00000729   -0.00000751    0.00000864
     atom   33 type  1   force =     0.00000862    0.00000923    0.00000137
     atom   34 type  2   force =    -0.00000356   -0.00000923   -0.00002153
     atom   35 type  2   force =    -0.00001928    0.00001170    0.00000733
     atom   36 type  3   force =    -0.00002000   -0.00001989   -0.00001083

     Total force =     0.005957     Total SCF correction =     0.000138
     Energy error            =      7.9E-05 Ry
     Gradient error          =      1.5E-03 Ry/Bohr

     bfgs converged in  24 scf cycles and  23 bfgs steps
     (criteria: energy <  1.0E-04 Ry, force <  1.0E-02 Ry/Bohr)

     End of BFGS Geometry Optimization

     Final energy             =   -2246.4498728276 Ry

     File ./MoS2-V-O.bfgs deleted, as requested
Begin final coordinates

ATOMIC_POSITIONS (angstrom)
Mo            6.5286847035        1.7789250145        2.7464021726
S             8.0928879008        0.8700765055        4.3614114885
S             8.1095040530        0.8770206021        1.1580454608
Mo            8.0812196198        4.5172202974        2.7161622433
S             6.4868125651        3.6766597148        4.3094744910
S             6.5163565117        3.5881794020        1.1089660310
Mo            6.4835093422        7.2050744852        2.6709339797
S             8.0468014086        6.3252761808        4.3076713682
S             8.0922170134        6.3348558297        1.1042501885
Mo            8.0811247343        9.9742040219        2.7474009855
S             6.4939344371        8.9767406571        4.3181134516
S             6.5450120055        9.0440119169        1.1172454755
Mo            3.3894042817        1.7810969359        2.7545159537
S             4.9626408991        0.8384360431        4.3366080819
S             4.9546272303        0.8600961636        1.1618424104
Mo            4.9589938688        4.5538820663        2.6637055168
S             3.4355321322        3.6803635047        4.3178241266
S             3.3988732381        3.5881653932        1.1157161136
Mo            3.4348358938        7.2052039420        2.6811054152
S             4.9547111364        6.3316458793        1.0560456851
Mo            4.9589375799        9.9226337127        2.7269459871
S             3.4279228185        8.9813783385        4.3252824262
S             3.3743692260        9.0377911741        1.1207787815
Mo            0.2307496972        1.7652324354        2.7645902203
S             1.8214983131        0.8728507961        4.3669430438
S             1.8149095670        0.8825483023        1.1600620164
Mo            1.8366522734        4.5175317043        2.7257815307
S             0.2267963356        3.6248638691        4.3220659077
S             0.2334959097        3.5890195178        1.1544346491
Mo            0.2310520965        7.2028176574        2.7267422174
S             1.8662361600        6.3274791197        4.3175874908
S             1.8291365613        6.3323027249        1.1145853389
Mo            1.8400661261        9.9754348702        2.7510178880
S             0.2284074560        9.0456239498        4.2587369132
S             0.2346612681        9.0648151179        1.1792524017
O             9.6757815369        9.0460663422        5.7580753676
End final coordinates



     Writing all to output data dir ./MoS2-V-O.save/
 
     init_run     :      4.62s CPU      5.11s WALL (       1 calls)
     electrons    :   2329.86s CPU   2658.98s WALL (      24 calls)
     update_pot   :     73.38s CPU     78.82s WALL (      23 calls)
     forces       :     71.00s CPU     82.82s WALL (      24 calls)

     Called by init_run:
     wfcinit      :      0.49s CPU      0.54s WALL (       1 calls)
     potinit      :      2.40s CPU      2.62s WALL (       1 calls)
     hinit0       :      0.43s CPU      0.46s WALL (       1 calls)

     Called by electrons:
     c_bands      :    341.32s CPU    350.09s WALL (     230 calls)
     sum_band     :    141.88s CPU    196.99s WALL (     230 calls)
     v_of_rho     :    276.55s CPU    337.47s WALL (     246 calls)
     newd         :     89.00s CPU    133.97s WALL (     246 calls)
     PAW_pot      :      9.76s CPU      9.80s WALL (     269 calls)
     mix_rho      :   1499.77s CPU   1663.03s WALL (     230 calls)

     Called by c_bands:
     init_us_2    :      5.27s CPU      5.68s WALL (     484 calls)
     init_us_2:cp :      5.26s CPU      5.68s WALL (     484 calls)
     regterg      :    324.07s CPU    332.42s WALL (     230 calls)

     Called by *egterg:
     rdiaghg      :     22.02s CPU     22.25s WALL (    1244 calls)
     h_psi        :    208.11s CPU    209.95s WALL (    1276 calls)
     s_psi        :     19.37s CPU     19.44s WALL (    1276 calls)
     g_psi        :      1.16s CPU      1.17s WALL (    1045 calls)

     Called by h_psi:
     h_psi:calbec :     22.42s CPU     22.54s WALL (    1276 calls)
     vloc_psi     :    163.50s CPU    165.09s WALL (    1276 calls)
     add_vuspsi   :     19.41s CPU     19.52s WALL (    1276 calls)

     General routines
     calbec       :     32.39s CPU     32.56s WALL (    1625 calls)
     fft          :    194.03s CPU    218.72s WALL (   16405 calls)
     ffts         :    661.43s CPU    818.64s WALL (  366632 calls)
     fftw         :    103.39s CPU    104.26s WALL (  141558 calls)
     interpolate  :      3.10s CPU      3.54s WALL (     246 calls)
 
     Parallel routines
 
     PWSCF        :  41m30.57s CPU  47m23.26s WALL

 
   This run was terminated on:  23:10:59   1Nov2023            

=------------------------------------------------------------------------------=
   JOB DONE.
=------------------------------------------------------------------------------=
