
     Program PWSCF v.7.2 starts on  1Nov2023 at 12:56: 7 

     This program is part of the open-source Quantum ESPRESSO suite
     for quantum simulation of materials; please cite
         "P. Giannozzi et al., J. Phys.:Condens. Matter 21 395502 (2009);
         "P. Giannozzi et al., J. Phys.:Condens. Matter 29 465901 (2017);
         "P. Giannozzi et al., J. Chem. Phys. 152 154105 (2020);
          URL http://www.quantum-espresso.org", 
     in publications or presentations arising from this work. More details at
     http://www.quantum-espresso.org/quote

     Parallel version (MPI & OpenMP), running on      48 processor cores
     Number of MPI processes:                48
     Threads/MPI process:                     1

     MPI processes distributed on     1 nodes
     48506 MiB available memory on the printing compute node when the environment starts
 
     Waiting for input...
     Reading input from standard input
Warning: card &CELL ignored
Warning: card CELL_DYNAMICS = 'BFGS', ignored
Warning: card CELL_DOFREE = '2DXY' ignored
Warning: card / ignored

     Current dimensions of program PWSCF are:
     Max number of different atomic species (ntypx) = 10
     Max number of k-points (npk) =  40000
     Max angular momentum in pseudopotentials (lmaxx) =  4
     file O.pbe-n-kjpaw_psl.0.1.UPF: wavefunction(s)  2P renormalized

     IMPORTANT: XC functional enforced from input :
     Exchange-correlation= RVV10
                           (   1   4  13   4  26   0   0)
     Any further DFT definition will be discarded
     Please, verify this is what you really want


     gamma-point specific algorithms are used
     signal trapping enabled: kill the code with -SIGUSR1 to stop cleanly the simulation 
 
     R & G space division:  proc/nbgrp/npool/nimage =      48
     Subspace diagonalization in iterative solution of the eigenvalue problem:
     one sub-group per band group will be used
     scalapack distributed-memory algorithm (size of sub-group:  2*  2 procs)

 
     Parallelization info
     --------------------
     sticks:   dense  smooth     PW     G-vecs:    dense   smooth      PW
     Min         396     194     47               101632    35090    4376
     Max         398     196     50               101674    35128    4410
     Sum       19091    9389   2349              4879585  1685513  210763
 
     Using Slab Decomposition
 


     bravais-lattice index     =            0
     lattice parameter (alat)  =      17.8707  a.u.
     unit-cell volume          =   17436.2743 (a.u.)^3
     number of atoms/cell      =           36
     number of atomic types    =            3
     number of electrons       =       312.00
     number of Kohn-Sham states=          187
     kinetic-energy cutoff     =      80.0000  Ry
     charge density cutoff     =     650.0000  Ry
     scf convergence threshold =      1.0E-06
     mixing beta               =       0.7000
     number of iterations used =            8  local-TF  mixing
     energy convergence thresh.=      1.0E-04
     force convergence thresh. =      1.0E-02
     Exchange-correlation= RVV10
                           (   1   4  13   4  26   0   0)
     nstep                     =          200


     celldm(1)=  17.870686  celldm(2)=   0.000000  celldm(3)=   0.000000
     celldm(4)=   0.000000  celldm(5)=   0.000000  celldm(6)=   0.000000

     crystal axes: (cart. coord. in units of alat)
               a(1) = (   1.000000   0.000000   0.000000 )  
               a(2) = (   0.000000   1.155671   0.000000 )  
               a(3) = (   0.000000   0.000000   2.643601 )  

     reciprocal axes: (cart. coord. in units 2 pi/alat)
               b(1) = (  1.000000  0.000000  0.000000 )  
               b(2) = (  0.000000  0.865298  0.000000 )  
               b(3) = (  0.000000  0.000000  0.378272 )  


     PseudoPot. # 1 for Mo read from file:
     ../pseudo/Mo_ONCV_PBE-1.0.oncvpsp.upf
     MD5 check sum: 1b5d28e075c9ccadda658a603575cd1f
     Pseudo is Norm-conserving, Zval = 14.0
     Generated using ONCVPSP code by D. R. Hamann
     Using radial grid of 1526 points,  6 beta functions with: 
                l(1) =   0
                l(2) =   0
                l(3) =   1
                l(4) =   1
                l(5) =   2
                l(6) =   2

     PseudoPot. # 2 for S  read from file:
     ../pseudo/s_pbe_v1.4.uspp.F.UPF
     MD5 check sum: 88d86576ff6df21479756cfb9bdac1df
     Pseudo is Ultrasoft + core correction, Zval =  6.0
     Generated by new atomic code, or converted to UPF format
     Using radial grid of  907 points,  6 beta functions with: 
                l(1) =   0
                l(2) =   0
                l(3) =   1
                l(4) =   1
                l(5) =   2
                l(6) =   2
     Q(r) pseudized with  8 coefficients,  rinner =    1.300   1.300   1.300
                                                       1.300   1.300

     PseudoPot. # 3 for O  read from file:
     ../pseudo/O.pbe-n-kjpaw_psl.0.1.UPF
     MD5 check sum: 0234752ac141de4415c5fc33072bef88
     Pseudo is Projector augmented-wave + core cor, Zval =  6.0
     Generated using "atomic" code by A. Dal Corso  v.5.0.99 svn rev. 10869
     Shape of augmentation charge: BESSEL
     Using radial grid of 1095 points,  4 beta functions with: 
                l(1) =   0
                l(2) =   0
                l(3) =   1
                l(4) =   1
     Q(r) pseudized with 0 coefficients 


     atomic species   valence    mass     pseudopotential
        Mo            14.00    95.94000     Mo( 1.00)
        S              6.00    32.06500     S ( 1.00)
        O              6.00    15.99940     O ( 1.00)

     No symmetry found



   Cartesian axes

     site n.     atom                  positions (alat units)
         1           Mo  tau(   1) = (   0.6952221   0.1890506   0.2985846  )
         2           S   tau(   2) = (   0.8646417   0.0856217   0.4689279  )
         3           S   tau(   3) = (   0.8663890   0.0857843   0.1351291  )
         4           Mo  tau(   4) = (   0.8560186   0.4753274   0.2873942  )
         5           S   tau(   5) = (   0.6873294   0.3936244   0.4596353  )
         6           S   tau(   6) = (   0.6929804   0.3713468   0.1185692  )
         7           Mo  tau(   7) = (   0.6862796   0.7633098   0.2825370  )
         8           S   tau(   8) = (   0.8545980   0.6708292   0.4486168  )
         9           S   tau(   9) = (   0.8545123   0.6666874   0.1146125  )
        10           Mo  tau(  10) = (   0.8629403   1.0471007   0.3006803  )
        11           S   tau(  11) = (   0.6868280   0.9456650   0.4634891  )
        12           S   tau(  12) = (   0.6998113   0.9568511   0.1205389  )
        13           Mo  tau(  13) = (   0.3618216   0.1847309   0.2935964  )
        14           S   tau(  14) = (   0.5260962   0.0863870   0.4600448  )
        15           S   tau(  15) = (   0.5348379   0.0894875   0.1297123  )
        16           Mo  tau(  16) = (   0.5265817   0.4772436   0.2784130  )
        17           S   tau(  17) = (   0.3624753   0.3882513   0.4525556  )
        18           S   tau(  18) = (   0.3635411   0.3752055   0.1119148  )
        19           Mo  tau(  19) = (   0.3652268   0.7630864   0.2781795  )
        20           S   tau(  20) = (   0.5269494   0.6690381   0.1096838  )
        21           Mo  tau(  21) = (   0.5300192   1.0470394   0.2900995  )
        22           S   tau(  22) = (   0.3670346   0.9457522   0.4574073  )
        23           S   tau(  23) = (   0.3604225   0.9585725   0.1159032  )
        24           Mo  tau(  24) = (   0.0313099   0.1847895   0.3013130  )
        25           S   tau(  25) = (   0.1956761   0.0838230   0.4650863  )
        26           S   tau(  26) = (   0.1967693   0.0903508   0.1278874  )
        27           Mo  tau(  27) = (   0.1967578   0.4753919   0.2813011  )
        28           S   tau(  28) = (   0.0287851   0.3864324   0.4586755  )
        29           S   tau(  29) = (   0.0244514   0.3729871   0.1239344  )
        30           Mo  tau(  30) = (   0.0286728   0.7631204   0.2856894  )
        31           S   tau(  31) = (   0.2011512   0.6675435   0.4465001  )
        32           S   tau(  32) = (   0.1969214   0.6672839   0.1104564  )
        33           Mo  tau(  33) = (   0.1950294   1.0511147   0.2932237  )
        34           S   tau(  34) = (   0.0312912   0.9612169   0.4667423  )
        35           S   tau(  35) = (   0.0292670   0.9563028   0.1216485  )
        36           O   tau(  36) = (   0.8888889   0.1284079   0.5407634  )

     number of k points=     1  Gaussian smearing, width (Ry)=  0.0100
                       cart. coord. in units 2pi/alat
        k(    1) = (   0.0000000   0.0000000   0.0000000), wk =   2.0000000

     Dense  grid:  2439793 G-vectors     FFT dimensions: ( 150, 180, 384)

     Smooth grid:   842757 G-vectors     FFT dimensions: ( 108, 120, 270)

     Estimated max dynamical RAM per process >     269.22 MB

     Estimated total dynamical RAM >      12.62 GB

     Initial potential from superposition of free atoms

     starting charge     311.9873, renormalised to     312.0000

     negative rho (up, down):  2.738E-04 0.000E+00


---------------------------------------------------------------------------------
Carrying out rVV10 run using the following parameters:
Nqs =      20    Nr_points =    1024   r_max =   100.000
b_value =  6.30000    beta =  0.00901
     q_mesh =  0.00010000  0.00030000  0.00058939  0.00100810
               0.00161396  0.00249058  0.00375900  0.00559430
               0.00824984  0.01209221  0.01765183  0.02569619
               0.03733578  0.05417739  0.07854596  0.11380545
               0.16482331  0.23864234  0.34545298  0.50000000

Gradients computed in Reciprocal space

---------------------------------------------------------------------------------


     Starting wfcs are  216 randomized atomic wfcs
     Checking if some PAW data can be deallocated... 

     total cpu time spent up to now is        5.2 secs

     Self-consistent Calculation

     iteration #  1     ecut=    80.00 Ry     beta= 0.70
     Davidson diagonalization with overlap
     ethr =  1.00E-02,  avg # of iterations =  3.0

     Threshold (ethr) on eigenvalues was too large:
     Diagonalizing with lowered threshold

     Davidson diagonalization with overlap
     ethr =  9.24E-04,  avg # of iterations =  4.0

     negative rho (up, down):  3.374E-08 0.000E+00

     total cpu time spent up to now is       22.4 secs

     total energy              =   -2241.68311722 Ry
     estimated scf accuracy    <       3.15224591 Ry

     iteration #  2     ecut=    80.00 Ry     beta= 0.70
     Davidson diagonalization with overlap
     ethr =  1.01E-03,  avg # of iterations =  4.0

     total cpu time spent up to now is       27.4 secs

     total energy              =   -2241.76059783 Ry
     estimated scf accuracy    <       0.72936338 Ry

     iteration #  3     ecut=    80.00 Ry     beta= 0.70
     Davidson diagonalization with overlap
     ethr =  2.34E-04,  avg # of iterations =  3.0

     total cpu time spent up to now is       31.8 secs

     total energy              =   -2241.79602963 Ry
     estimated scf accuracy    <       0.13095239 Ry

     iteration #  4     ecut=    80.00 Ry     beta= 0.70
     Davidson diagonalization with overlap
     ethr =  4.20E-05,  avg # of iterations = 20.0

     total cpu time spent up to now is       37.1 secs

     total energy              =   -2241.81430135 Ry
     estimated scf accuracy    <       0.02822809 Ry

     iteration #  5     ecut=    80.00 Ry     beta= 0.70
     Davidson diagonalization with overlap
     ethr =  9.05E-06,  avg # of iterations =  9.0

     total cpu time spent up to now is       41.1 secs

     total energy              =   -2241.81323199 Ry
     estimated scf accuracy    <       0.01724240 Ry

     iteration #  6     ecut=    80.00 Ry     beta= 0.70
     Davidson diagonalization with overlap
     ethr =  5.53E-06,  avg # of iterations =  1.0

     total cpu time spent up to now is       45.6 secs

     total energy              =   -2241.81147493 Ry
     estimated scf accuracy    <       0.01066179 Ry

     iteration #  7     ecut=    80.00 Ry     beta= 0.70
     Davidson diagonalization with overlap
     ethr =  3.42E-06,  avg # of iterations =  2.0

     negative rho (up, down):  1.279E-03 0.000E+00

     total cpu time spent up to now is       51.7 secs

     total energy              =   -2241.81054158 Ry
     estimated scf accuracy    <       0.00605855 Ry

     iteration #  8     ecut=    80.00 Ry     beta= 0.70
     Davidson diagonalization with overlap
     ethr =  1.94E-06,  avg # of iterations =  2.0

     negative rho (up, down):  2.502E-02 0.000E+00

     total cpu time spent up to now is       57.4 secs

     total energy              =   -2241.81008756 Ry
     estimated scf accuracy    <       0.00381748 Ry

     iteration #  9     ecut=    80.00 Ry     beta= 0.70
     Davidson diagonalization with overlap
     ethr =  1.22E-06,  avg # of iterations =  2.0

     negative rho (up, down):  3.284E-02 0.000E+00

     total cpu time spent up to now is       63.3 secs

     total energy              =   -2241.81002704 Ry
     estimated scf accuracy    <       0.00191520 Ry

     iteration # 10     ecut=    80.00 Ry     beta= 0.70
     Davidson diagonalization with overlap
     ethr =  6.14E-07,  avg # of iterations =  2.0

     negative rho (up, down):  2.179E-02 0.000E+00

     total cpu time spent up to now is       70.8 secs

     total energy              =   -2241.81008318 Ry
     estimated scf accuracy    <       0.00066934 Ry

     iteration # 11     ecut=    80.00 Ry     beta= 0.70
     Davidson diagonalization with overlap
     ethr =  2.15E-07,  avg # of iterations =  4.0

     negative rho (up, down):  9.623E-03 0.000E+00

     total cpu time spent up to now is       78.6 secs

     total energy              =   -2241.81019985 Ry
     estimated scf accuracy    <       0.00016008 Ry

     iteration # 12     ecut=    80.00 Ry     beta= 0.70
     Davidson diagonalization with overlap
     ethr =  5.13E-08,  avg # of iterations =  5.0

     negative rho (up, down):  2.183E-03 0.000E+00

     total cpu time spent up to now is       90.6 secs

     total energy              =   -2241.81024588 Ry
     estimated scf accuracy    <       0.00003658 Ry

     iteration # 13     ecut=    80.00 Ry     beta= 0.70
     Davidson diagonalization with overlap
     ethr =  1.17E-08,  avg # of iterations =  5.0

     negative rho (up, down):  7.857E-04 0.000E+00

     total cpu time spent up to now is      100.2 secs

     total energy              =   -2241.81024786 Ry
     estimated scf accuracy    <       0.00000960 Ry

     iteration # 14     ecut=    80.00 Ry     beta= 0.70
     Davidson diagonalization with overlap
     c_bands:  1 eigenvalues not converged
     ethr =  3.08E-09,  avg # of iterations = 20.0

     negative rho (up, down):  6.863E-04 0.000E+00

     total cpu time spent up to now is      110.2 secs

     total energy              =   -2241.81025245 Ry
     estimated scf accuracy    <       0.00000360 Ry

     iteration # 15     ecut=    80.00 Ry     beta= 0.70
     Davidson diagonalization with overlap
     ethr =  1.15E-09,  avg # of iterations =  4.0

     negative rho (up, down):  5.122E-04 0.000E+00

     total cpu time spent up to now is      117.6 secs

     total energy              =   -2241.81025332 Ry
     estimated scf accuracy    <       0.00000107 Ry

     iteration # 16     ecut=    80.00 Ry     beta= 0.70
     Davidson diagonalization with overlap
     ethr =  3.42E-10,  avg # of iterations =  2.0

     negative rho (up, down):  4.142E-04 0.000E+00

     total cpu time spent up to now is      121.0 secs

     End of self-consistent calculation

          k = 0.0000 0.0000 0.0000 (105382 PWs)   bands (ev):

   -62.7733 -62.7541 -62.7412 -62.7389 -62.7290 -62.7198 -62.7046 -62.6998
   -62.6842 -62.6708 -62.5005 -62.3440 -37.1217 -37.0665 -37.0426 -37.0164
   -36.9863 -36.9785 -36.9722 -36.9634 -36.9526 -36.9464 -36.9376 -36.9338
   -36.9117 -36.8999 -36.8966 -36.8913 -36.8818 -36.8756 -36.8662 -36.8604
   -36.8521 -36.8381 -36.8354 -36.8213 -36.7969 -36.7736 -36.7687 -36.7357
   -36.7265 -36.6989 -36.6513 -36.6408 -36.6232 -36.5869 -36.5092 -36.4260
   -30.2465 -16.7919 -16.7030 -15.8117 -15.0635 -14.9815 -14.8419 -14.7156
   -14.6815 -14.3852 -14.3533 -14.3140 -14.2937 -14.2593 -14.2240 -14.1779
   -14.0919 -14.0334 -13.9951 -13.9921 -13.9151 -13.8471 -13.7482 -13.7174
   -13.6783 -12.3076  -9.0385  -7.4969  -7.3298  -7.1579  -7.1423  -7.0980
    -7.0677  -6.9999  -6.9340  -6.7036  -6.6906  -6.6064  -6.5498  -6.5291
    -6.3771  -6.3575  -6.2896  -6.2304  -6.0251  -6.0108  -5.8579  -5.7981
    -5.7340  -5.7121  -5.6346  -5.6012  -5.5917  -5.5497  -5.5320  -5.4902
    -5.4093  -5.3927  -5.3328  -5.2491  -5.2341  -5.1088  -4.9961  -4.9364
    -4.8775  -4.8478  -4.8061  -4.7137  -4.6393  -4.5551  -4.4216  -4.2680
    -4.1993  -4.1484  -4.1404  -4.0156  -3.9288  -3.8347  -3.8088  -3.6987
    -3.6426  -3.6074  -3.5493  -3.5161  -3.4577  -3.4024  -3.3810  -3.3403
    -3.2857  -3.2666  -3.1545  -3.0943  -3.0007  -2.9025  -2.8073  -2.6946
    -2.6543  -2.6229  -2.6188  -2.5932  -2.5468  -2.4646  -2.3415  -2.2558
    -2.0464  -1.9151  -1.8104  -1.6630  -0.7148  -0.6266  -0.1040  -0.0401
    -0.0113   0.0298   0.0932   0.1494   0.2542   0.3341   0.3923   0.4470
     0.4609   0.5351   0.6041   0.6379   0.6785   0.7041   0.7566   0.7662
     0.8162   0.8616   0.8836   0.9016   0.9512   1.0072   1.0558   1.0852
     1.1216   1.3406   1.4810

     the Fermi energy is    -1.1889 ev

!    total energy              =   -2241.81025438 Ry
     estimated scf accuracy    <       0.00000023 Ry
     smearing contrib. (-TS)   =      -0.00000006 Ry
     internal energy E=F+TS    =   -2241.81025432 Ry

     The total energy is F=E-TS. E is the sum of the following terms:
     one-electron contribution =  -18527.56608368 Ry
     hartree contribution      =    9252.90802277 Ry
     xc contribution           =    -393.95848603 Ry
     ewald contribution        =    7436.60057550 Ry
     one-center paw contrib.   =      -9.79428287 Ry

     convergence has been achieved in  16 iterations

     negative rho (up, down):  4.142E-04 0.000E+00

     Forces acting on atoms (cartesian axes, Ry/au):

     atom    1 type  1   force =     0.01182671   -0.03013540   -0.00135085
     atom    2 type  2   force =    -3.97383292   -6.91034899  -12.01668590
     atom    3 type  2   force =    -0.01157177    0.00955713   -0.00145718
     atom    4 type  1   force =     0.00556290    0.00316003   -0.00127645
     atom    5 type  2   force =    -0.00006687   -0.00563873   -0.00054534
     atom    6 type  2   force =     0.00210118    0.01404938   -0.00147031
     atom    7 type  1   force =     0.00389767   -0.01313848   -0.00751641
     atom    8 type  2   force =     0.00159657   -0.00401741    0.01623783
     atom    9 type  2   force =     0.01192154    0.00664652    0.01141815
     atom   10 type  1   force =    -0.00500120    0.00950563    0.02286625
     atom   11 type  2   force =     0.00019257   -0.00857863   -0.00880718
     atom   12 type  2   force =    -0.00326590   -0.00077517    0.00328369
     atom   13 type  1   force =     0.00361559    0.00635120   -0.01441915
     atom   14 type  2   force =     0.00972721   -0.00327659    0.01556495
     atom   15 type  2   force =    -0.01589719   -0.00116681   -0.00890704
     atom   16 type  1   force =     0.00080666    0.01015378    0.00242916
     atom   17 type  2   force =     0.00547635    0.00050333    0.00049384
     atom   18 type  2   force =    -0.00287910   -0.00695395    0.01452470
     atom   19 type  1   force =     0.00459583   -0.01274734   -0.00549997
     atom   20 type  2   force =     0.00310770   -0.00382881    0.00202389
     atom   21 type  1   force =    -0.00711149    0.00821326    0.00072400
     atom   22 type  2   force =    -0.00244225   -0.00188928   -0.00432472
     atom   23 type  2   force =    -0.00168300    0.00174061    0.01039799
     atom   24 type  1   force =     0.01122314   -0.01289513   -0.11094034
     atom   25 type  2   force =     0.01232421    0.01641115    0.01503002
     atom   26 type  2   force =    -0.00915154   -0.00077980   -0.00140801
     atom   27 type  1   force =    -0.00035311    0.00049423    0.00378908
     atom   28 type  2   force =     0.00130759    0.00241353    0.00032602
     atom   29 type  2   force =     0.00106368    0.00405796   -0.00141038
     atom   30 type  1   force =    -0.00701533    0.01228733   -0.00283059
     atom   31 type  2   force =     0.00215837   -0.00138755    0.01553498
     atom   32 type  2   force =    -0.00835083    0.00846141    0.00939081
     atom   33 type  1   force =     0.01672442   -0.00253347   -0.01262126
     atom   34 type  2   force =     0.00684712   -0.04602097   -0.00700567
     atom   35 type  2   force =    -0.00681248    0.00622926    0.01027552
     atom   36 type  3   force =     3.93935799    6.94587675   12.05416587
     The non-local contrib.  to forces
     atom    1 type  1   force =     0.03329453    0.00030659    0.02034363
     atom    2 type  2   force =    -1.97744122   -3.49138498   -5.95444717
     atom    3 type  2   force =    -0.01684034   -0.00481822    0.27072331
     atom    4 type  1   force =     0.00332998    0.00027282    0.00442483
     atom    5 type  2   force =     0.00810870   -0.04037457   -0.24485455
     atom    6 type  2   force =    -0.00291067    0.01654731    0.26073371
     atom    7 type  1   force =    -0.02015500   -0.00627428   -0.02748634
     atom    8 type  2   force =     0.00263937   -0.00099576   -0.25371911
     atom    9 type  2   force =     0.00697842   -0.00800037    0.27997214
     atom   10 type  1   force =    -0.00338358    0.02504018    0.00176733
     atom   11 type  2   force =     0.02198760    0.00946264   -0.25506163
     atom   12 type  2   force =    -0.01248150   -0.01958477    0.26305079
     atom   13 type  1   force =    -0.00256725    0.02707201    0.00013519
     atom   14 type  2   force =     0.03328881   -0.00456327   -0.25268015
     atom   15 type  2   force =    -0.01762418   -0.01204782    0.25662137
     atom   16 type  1   force =    -0.00217239    0.02495715   -0.03283734
     atom   17 type  2   force =     0.00142568   -0.02974461   -0.24969509
     atom   18 type  2   force =    -0.00415440   -0.00566154    0.27491705
     atom   19 type  1   force =     0.01007073   -0.00256656   -0.01876043
     atom   20 type  2   force =    -0.00063433   -0.02178764    0.26614612
     atom   21 type  1   force =     0.00247808    0.02940625    0.00494748
     atom   22 type  2   force =    -0.00411869    0.00482786   -0.25708305
     atom   23 type  2   force =     0.00585350   -0.01433873    0.26922402
     atom   24 type  1   force =    -0.05507014   -0.01808199    0.03828056
     atom   25 type  2   force =     0.00322940    0.01228820   -0.24966766
     atom   26 type  2   force =     0.00066843   -0.01878916    0.26050454
     atom   27 type  1   force =    -0.00336310    0.00108482    0.01194062
     atom   28 type  2   force =    -0.00079436   -0.01210069   -0.26681596
     atom   29 type  2   force =     0.00314182    0.01146081    0.25956251
     atom   30 type  1   force =     0.00744547    0.00986305    0.00328736
     atom   31 type  2   force =    -0.00923866    0.00421685   -0.25322893
     atom   32 type  2   force =    -0.00303455   -0.00883515    0.27410896
     atom   33 type  1   force =    -0.00911544    0.01218045    0.00504276
     atom   34 type  2   force =    -0.01766248   -0.02283841   -0.26615276
     atom   35 type  2   force =    -0.00438300   -0.01399012    0.27264019
     atom   36 type  3   force =    -0.30985278   -0.62071755   -0.19411463
     The ionic contribution  to forces
     atom    1 type  1   force =    -2.40955666    1.17503096    1.43125939
     atom    2 type  2   force =    -8.92317408  -14.19084691   14.72379987
     atom    3 type  2   force =    -0.22201660   -0.10643699  -37.54380849
     atom    4 type  1   force =    -0.07759612    2.33047846   -1.26867984
     atom    5 type  2   force =    -1.91559113    2.83033183   38.26441091
     atom    6 type  2   force =     0.16013092   -0.22339139  -38.84221447
     atom    7 type  1   force =    -2.92994441   -3.08241773    1.52993473
     atom    8 type  2   force =    -1.02853761    0.19564408   37.18266180
     atom    9 type  2   force =     0.32554097    0.02101642  -38.55830954
     atom   10 type  1   force =    -1.40482103   -3.20135626    2.19985820
     atom   11 type  2   force =    -1.11324726   -2.56791279   38.83975384
     atom   12 type  2   force =     0.30740388    0.43331357  -38.54991677
     atom   13 type  1   force =     0.72854414    1.21540540    1.36799007
     atom   14 type  2   force =    -1.01903000   -0.18712948   38.11502389
     atom   15 type  2   force =    -0.06344096   -0.11140303  -37.59357995
     atom   16 type  1   force =    -0.46560775    4.66654308   -0.67637245
     atom   17 type  2   force =     0.90649216    1.89950445   37.72046078
     atom   18 type  2   force =    -0.13575584   -0.49410717  -39.15396528
     atom   19 type  1   force =     2.76366083   -2.61150823   -0.20685747
     atom   20 type  2   force =     0.17571137   -0.16411984  -38.95386559
     atom   21 type  1   force =    -0.74019331   -0.82102069   -0.28292630
     atom   22 type  2   force =     0.51194276   -2.07574074   38.26279813
     atom   23 type  2   force =    -0.06401654    0.51636289  -38.82968068
     atom   24 type  1   force =     2.39925734    2.36306705    0.15435569
     atom   25 type  2   force =     2.40425839   -0.01785812   38.70669318
     atom   26 type  2   force =    -0.01830646    0.01170091  -38.19543615
     atom   27 type  1   force =     0.60719977    1.26785004   -3.52099885
     atom   28 type  2   force =     1.04384294    2.90031787   37.52721693
     atom   29 type  2   force =    -0.10632760   -0.10295105  -38.15636458
     atom   30 type  1   force =    -0.08080601   -1.25082260   -1.11993237
     atom   31 type  2   force =     1.39494801    0.04394164   37.16495737
     atom   32 type  2   force =    -0.41441286    0.03209669  -39.12425731
     atom   33 type  1   force =     1.85319229   -1.94415380    0.38370910
     atom   34 type  2   force =     0.81562531   -2.77380742   38.97298872
     atom   35 type  2   force =    -0.18473949    0.19256552  -38.54626443
     atom   36 type  3   force =     6.91937065   13.83181342   66.57555792
     The local contribution  to forces
     atom    1 type  1   force =     2.38820056   -1.20559335   -1.45239743
     atom    2 type  2   force =     6.80439956   10.55522827  -21.15658050
     atom    3 type  2   force =     0.22649487    0.12058339   37.29286364
     atom    4 type  1   force =     0.07978897   -2.32753135    1.26334426
     atom    5 type  2   force =     1.90824491   -2.79800673  -38.03963452
     atom    6 type  2   force =    -0.15545590    0.22238344   38.60097452
     atom    7 type  1   force =     2.95384153    3.07545837   -1.50937746
     atom    8 type  2   force =     1.02750850   -0.19892568  -36.93283660
     atom    9 type  2   force =    -0.32048830   -0.00679829   38.31114567
     atom   10 type  1   force =     1.40321901    3.18593596   -2.17816803
     atom   11 type  2   force =     1.09258998    2.55072930  -38.61349069
     atom   12 type  2   force =    -0.29938540   -0.41602408   38.31126654
     atom   13 type  1   force =    -0.72232790   -1.23616009   -1.38208101
     atom   14 type  2   force =     0.99737807    0.18854892  -37.86640368
     atom   15 type  2   force =     0.06414134    0.12150812   37.34861252
     atom   16 type  1   force =     0.46855045   -4.68106288    0.71214694
     atom   17 type  2   force =    -0.90241536   -1.87078409  -37.49027703
     atom   18 type  2   force =     0.13698430    0.49327734   38.91491282
     atom   19 type  1   force =    -2.76898938    2.60120654    0.22067986
     atom   20 type  2   force =    -0.17212429    0.18123712   38.71122356
     atom   21 type  1   force =     0.73061044    0.79979384    0.27923095
     atom   22 type  2   force =    -0.51025152    2.06953300  -38.03024096
     atom   23 type  2   force =     0.05699063   -0.50154556   38.59204063
     atom   24 type  1   force =    -2.33309478   -2.35802807   -0.30310917
     atom   25 type  2   force =    -2.39589397    0.02263600  -38.46164552
     atom   26 type  2   force =     0.00894716    0.00519327   37.95443234
     atom   27 type  1   force =    -0.60407812   -1.26833675    3.51324830
     atom   28 type  2   force =    -1.04208392   -2.88731556  -37.28027850
     atom   29 type  2   force =     0.10460298    0.09684135   37.91592315
     atom   30 type  1   force =     0.06635108    1.25325400    1.11431040
     atom   31 type  2   force =    -1.38404370   -0.04939871  -36.91644801
     atom   32 type  2   force =     0.40922803   -0.01534117   38.88083153
     atom   33 type  1   force =    -1.82738308    1.92947700   -0.40092393
     atom   34 type  2   force =    -0.79253360    2.75046555  -38.73409141
     atom   35 type  2   force =     0.18231656   -0.17344636   38.30529415
     atom   36 type  3   force =    -2.65728689   -6.24322616  -54.28211585
     The core correction contribution to forces
     atom    1 type  1   force =     0.00000000    0.00000000    0.00000000
     atom    2 type  2   force =     0.12237305    0.21661406    0.37070477
     atom    3 type  2   force =     0.00080247    0.00020125   -0.02095892
     atom    4 type  1   force =     0.00000000    0.00000000    0.00000000
     atom    5 type  2   force =    -0.00086324    0.00245397    0.01973397
     atom    6 type  2   force =     0.00034628   -0.00144266   -0.02073231
     atom    7 type  1   force =     0.00000000    0.00000000    0.00000000
     atom    8 type  2   force =    -0.00006297    0.00031718    0.02036166
     atom    9 type  2   force =    -0.00012273    0.00041776   -0.02116409
     atom   10 type  1   force =     0.00000000    0.00000000    0.00000000
     atom   11 type  2   force =    -0.00113746   -0.00086787    0.02021395
     atom   12 type  2   force =     0.00117719    0.00151937   -0.02086226
     atom   13 type  1   force =     0.00000000    0.00000000    0.00000000
     atom   14 type  2   force =    -0.00191268   -0.00017857    0.01986739
     atom   15 type  2   force =     0.00100219    0.00074269   -0.02034429
     atom   16 type  1   force =     0.00000000    0.00000000    0.00000000
     atom   17 type  2   force =    -0.00000393    0.00156498    0.02020424
     atom   18 type  2   force =     0.00004013   -0.00043053   -0.02109680
     atom   19 type  1   force =     0.00000000    0.00000000    0.00000000
     atom   20 type  2   force =     0.00016463    0.00084565   -0.02120591
     atom   21 type  1   force =     0.00000000    0.00000000    0.00000000
     atom   22 type  2   force =     0.00000648   -0.00050823    0.02042807
     atom   23 type  2   force =    -0.00050062    0.00128604   -0.02096020
     atom   24 type  1   force =     0.00000000    0.00000000    0.00000000
     atom   25 type  2   force =     0.00074921   -0.00071500    0.01984203
     atom   26 type  2   force =    -0.00044756    0.00106623   -0.02067449
     atom   27 type  1   force =     0.00000000    0.00000000    0.00000000
     atom   28 type  2   force =     0.00034526    0.00154471    0.02037042
     atom   29 type  2   force =    -0.00036084   -0.00125315   -0.02031139
     atom   30 type  1   force =     0.00000000    0.00000000    0.00000000
     atom   31 type  2   force =     0.00053261   -0.00013157    0.02048373
     atom   32 type  2   force =    -0.00013350    0.00051985   -0.02106462
     atom   33 type  1   force =     0.00000000    0.00000000    0.00000000
     atom   34 type  2   force =     0.00139258    0.00016652    0.02047729
     atom   35 type  2   force =     0.00000579    0.00112204   -0.02116043
     atom   36 type  3   force =    -0.01290252   -0.02203175   -0.04492453
     The Hubbard contrib.    to forces
     atom    1 type  1   force =     0.00000000    0.00000000    0.00000000
     atom    2 type  2   force =     0.00000000    0.00000000    0.00000000
     atom    3 type  2   force =     0.00000000    0.00000000    0.00000000
     atom    4 type  1   force =     0.00000000    0.00000000    0.00000000
     atom    5 type  2   force =     0.00000000    0.00000000    0.00000000
     atom    6 type  2   force =     0.00000000    0.00000000    0.00000000
     atom    7 type  1   force =     0.00000000    0.00000000    0.00000000
     atom    8 type  2   force =     0.00000000    0.00000000    0.00000000
     atom    9 type  2   force =     0.00000000    0.00000000    0.00000000
     atom   10 type  1   force =     0.00000000    0.00000000    0.00000000
     atom   11 type  2   force =     0.00000000    0.00000000    0.00000000
     atom   12 type  2   force =     0.00000000    0.00000000    0.00000000
     atom   13 type  1   force =     0.00000000    0.00000000    0.00000000
     atom   14 type  2   force =     0.00000000    0.00000000    0.00000000
     atom   15 type  2   force =     0.00000000    0.00000000    0.00000000
     atom   16 type  1   force =     0.00000000    0.00000000    0.00000000
     atom   17 type  2   force =     0.00000000    0.00000000    0.00000000
     atom   18 type  2   force =     0.00000000    0.00000000    0.00000000
     atom   19 type  1   force =     0.00000000    0.00000000    0.00000000
     atom   20 type  2   force =     0.00000000    0.00000000    0.00000000
     atom   21 type  1   force =     0.00000000    0.00000000    0.00000000
     atom   22 type  2   force =     0.00000000    0.00000000    0.00000000
     atom   23 type  2   force =     0.00000000    0.00000000    0.00000000
     atom   24 type  1   force =     0.00000000    0.00000000    0.00000000
     atom   25 type  2   force =     0.00000000    0.00000000    0.00000000
     atom   26 type  2   force =     0.00000000    0.00000000    0.00000000
     atom   27 type  1   force =     0.00000000    0.00000000    0.00000000
     atom   28 type  2   force =     0.00000000    0.00000000    0.00000000
     atom   29 type  2   force =     0.00000000    0.00000000    0.00000000
     atom   30 type  1   force =     0.00000000    0.00000000    0.00000000
     atom   31 type  2   force =     0.00000000    0.00000000    0.00000000
     atom   32 type  2   force =     0.00000000    0.00000000    0.00000000
     atom   33 type  1   force =     0.00000000    0.00000000    0.00000000
     atom   34 type  2   force =     0.00000000    0.00000000    0.00000000
     atom   35 type  2   force =     0.00000000    0.00000000    0.00000000
     atom   36 type  3   force =     0.00000000    0.00000000    0.00000000
     The SCF correction term to forces
     atom    1 type  1   force =    -0.00011107    0.00012258   -0.00052349
     atom    2 type  2   force =     0.00001042    0.00004275   -0.00012992
     atom    3 type  2   force =    -0.00001153    0.00002988   -0.00024378
     atom    4 type  1   force =     0.00004071   -0.00005771   -0.00033276
     atom    5 type  2   force =     0.00003454   -0.00004106   -0.00016820
     atom    6 type  2   force =    -0.00000880   -0.00004515   -0.00019880
     atom    7 type  1   force =     0.00015619    0.00009734   -0.00055438
     atom    8 type  2   force =     0.00004992   -0.00005506   -0.00019697
     atom    9 type  2   force =     0.00001382    0.00001318   -0.00019308
     atom   10 type  1   force =    -0.00001496   -0.00011207   -0.00055831
     atom   11 type  2   force =     0.00000037    0.00001228   -0.00018969
     atom   12 type  2   force =     0.00002057    0.00000290   -0.00022166
     atom   13 type  1   force =    -0.00003274    0.00003605   -0.00043045
     atom   14 type  2   force =     0.00000365    0.00004798   -0.00020955
     atom   15 type  2   force =     0.00002506    0.00003540   -0.00018374
     atom   16 type  1   force =     0.00003700   -0.00028140   -0.00047505
     atom   17 type  2   force =    -0.00002156   -0.00003522   -0.00016611
     atom   18 type  2   force =     0.00000735   -0.00002987   -0.00021014
     atom   19 type  1   force =    -0.00014570    0.00012309   -0.00052898
     atom   20 type  2   force =    -0.00000904   -0.00000193   -0.00024134
     atom   21 type  1   force =    -0.00000606    0.00003604   -0.00049518
     atom   22 type  2   force =    -0.00002063    0.00000101   -0.00019397
     atom   23 type  2   force =    -0.00000932   -0.00002185   -0.00019283
     atom   24 type  1   force =     0.00013137    0.00015005   -0.00043447
     atom   25 type  2   force =    -0.00001818    0.00006225   -0.00015907
     atom   26 type  2   force =    -0.00001246    0.00005113   -0.00020130
     atom   27 type  1   force =    -0.00011101   -0.00010170   -0.00036804
     atom   28 type  2   force =    -0.00000168   -0.00003062   -0.00013393
     atom   29 type  2   force =     0.00000797   -0.00003783   -0.00018712
     atom   30 type  1   force =    -0.00000522   -0.00000495   -0.00046303
     atom   31 type  2   force =    -0.00003925   -0.00001358   -0.00019623
     atom   32 type  2   force =     0.00000270    0.00002336   -0.00019479
     atom   33 type  1   force =     0.00003130   -0.00003495   -0.00041625
     atom   34 type  2   force =     0.00002596   -0.00000503   -0.00019457
     atom   35 type  2   force =    -0.00001169   -0.00001964   -0.00020099
     atom   36 type  3   force =     0.00003017    0.00004096   -0.00020410

     Total force =    20.421402     Total SCF correction =     0.001964

     BFGS Geometry Optimization
     Energy error            =      0.0E+00 Ry
     Gradient error          =      1.2E+01 Ry/Bohr

     number of scf cycles    =   1
     number of bfgs steps    =   0

     energy             new  =   -2241.8102543815 Ry

     new trust radius        =       0.5000000000 bohr
     new conv_thr            =       0.0000010000 Ry


ATOMIC_POSITIONS (angstrom)
Mo            6.5747648261        1.7872547801        2.8236183127
S             8.1039919375        0.6832511437        4.2146443136
S             8.1930213336        0.8114166313        1.2778567612
Mo            8.0952643607        4.4951147701        2.7177950356
S             6.4999080332        3.7223083043        4.3466506694
S             6.5533882478        3.5119946460        1.1212533227
Mo            6.4900530201        7.2181968622        2.6717469414
S             8.0817569439        6.3437974778        4.2427587003
S             8.0811358001        6.3048239415        1.0840719400
Mo            8.1605275310        9.9023543573        2.8438801918
S             6.4951711197        8.9427698337        4.3829443706
S             6.6178874367        9.0486970281        1.1399673911
Mo            3.4217258249        1.7470720717        2.7762073055
S             4.9753434895        0.8168812507        4.3508179166
S             5.0575428506        0.8462407572        1.2264954705
Mo            4.9797714424        4.5133638076        2.6329290004
S             3.4279418739        3.6716088962        4.2797186164
S             3.4378678961        3.5481014470        1.0586174704
Mo            3.4539458394        7.2160912742        2.6305762175
S             4.9832910608        6.3268622222        1.0372907663
Mo            5.0121337865        9.9017503463        2.7434142092
S             3.4709134262        8.9437166968        4.3255121738
S             3.4083983684        9.0650218354        1.0962585725
Mo            0.2962958601        1.7472735624        2.8474146051
S             1.8506877341        0.7929943155        4.3984844740
S             1.8606325697        0.8544116485        1.2093750889
Mo            1.8606848477        4.4956758053        2.6602667166
S             0.2722377770        3.6544429916        4.3375900654
S             0.2312506719        3.5273234833        1.1719920752
Mo            0.2710237771        7.2168709407        2.7016446308
S             1.9022777438        6.3127734441        4.2227283968
S             1.8620854022        6.3104986480        1.0447311261
Mo            1.8446527038        9.9400927935        2.7727152945
S             0.2960381952        9.0891556869        4.4137412686
S             0.2766467378        9.0436397043        1.1505888121
O             8.4780954314        1.3414252275        5.3344493528



     Writing config-only to output data dir ./MoS2-V-O.save/
     NEW-OLD atomic charge density approx. for the potential

     negative rho (up, down):  3.939E-03 0.000E+00

     total cpu time spent up to now is      128.2 secs

     Self-consistent Calculation

     iteration #  1     ecut=    80.00 Ry     beta= 0.70
     Davidson diagonalization with overlap
     c_bands:  2 eigenvalues not converged
     ethr =  1.00E-06,  avg # of iterations = 20.0

     negative rho (up, down):  1.157E-02 0.000E+00

     total cpu time spent up to now is      143.6 secs

     total energy              =   -2246.27542617 Ry
     estimated scf accuracy    <       0.75605058 Ry

     iteration #  2     ecut=    80.00 Ry     beta= 0.70
     Davidson diagonalization with overlap
     ethr =  2.42E-04,  avg # of iterations =  2.0

     negative rho (up, down):  2.722E-02 0.000E+00

     total cpu time spent up to now is      153.0 secs

     total energy              =   -2246.22927252 Ry
     estimated scf accuracy    <       0.14422383 Ry

     iteration #  3     ecut=    80.00 Ry     beta= 0.70
     Davidson diagonalization with overlap
     ethr =  4.62E-05,  avg # of iterations =  3.0

     negative rho (up, down):  2.724E-02 0.000E+00

     total cpu time spent up to now is      163.4 secs

     total energy              =   -2246.25442804 Ry
     estimated scf accuracy    <       0.00476556 Ry

     iteration #  4     ecut=    80.00 Ry     beta= 0.70
     Davidson diagonalization with overlap
     ethr =  1.53E-06,  avg # of iterations =  9.0

     negative rho (up, down):  2.618E-02 0.000E+00

     total cpu time spent up to now is      174.4 secs

     total energy              =   -2246.25459875 Ry
     estimated scf accuracy    <       0.00257095 Ry

     iteration #  5     ecut=    80.00 Ry     beta= 0.70
     Davidson diagonalization with overlap
     ethr =  8.24E-07,  avg # of iterations =  2.0

     negative rho (up, down):  2.387E-02 0.000E+00

     total cpu time spent up to now is      184.9 secs

     total energy              =   -2246.25456744 Ry
     estimated scf accuracy    <       0.00083133 Ry

     iteration #  6     ecut=    80.00 Ry     beta= 0.70
     Davidson diagonalization with overlap
     ethr =  2.66E-07,  avg # of iterations =  5.0

     negative rho (up, down):  1.971E-02 0.000E+00

     total cpu time spent up to now is      193.9 secs

     total energy              =   -2246.25451603 Ry
     estimated scf accuracy    <       0.00027201 Ry

     iteration #  7     ecut=    80.00 Ry     beta= 0.70
     Davidson diagonalization with overlap
     ethr =  8.72E-08,  avg # of iterations =  5.0

     negative rho (up, down):  1.476E-02 0.000E+00

     total cpu time spent up to now is      203.7 secs

     total energy              =   -2246.25443563 Ry
     estimated scf accuracy    <       0.00011674 Ry

     iteration #  8     ecut=    80.00 Ry     beta= 0.70
     Davidson diagonalization with overlap
     ethr =  3.74E-08,  avg # of iterations =  2.0

     negative rho (up, down):  8.929E-03 0.000E+00

     total cpu time spent up to now is      212.8 secs

     total energy              =   -2246.25434478 Ry
     estimated scf accuracy    <       0.00005956 Ry

     iteration #  9     ecut=    80.00 Ry     beta= 0.70
     Davidson diagonalization with overlap
     ethr =  1.91E-08,  avg # of iterations =  2.0

     negative rho (up, down):  4.501E-03 0.000E+00

     total cpu time spent up to now is      221.6 secs

     total energy              =   -2246.25429147 Ry
     estimated scf accuracy    <       0.00002317 Ry

     iteration # 10     ecut=    80.00 Ry     beta= 0.70
     Davidson diagonalization with overlap
     ethr =  7.43E-09,  avg # of iterations =  4.0

     negative rho (up, down):  2.423E-03 0.000E+00

     total cpu time spent up to now is      228.5 secs

     total energy              =   -2246.25427466 Ry
     estimated scf accuracy    <       0.00000821 Ry

     iteration # 11     ecut=    80.00 Ry     beta= 0.70
     Davidson diagonalization with overlap
     ethr =  2.63E-09,  avg # of iterations =  5.0

     negative rho (up, down):  1.461E-03 0.000E+00

     total cpu time spent up to now is      236.8 secs

     total energy              =   -2246.25426797 Ry
     estimated scf accuracy    <       0.00000479 Ry

     iteration # 12     ecut=    80.00 Ry     beta= 0.70
     Davidson diagonalization with overlap
     ethr =  1.54E-09,  avg # of iterations =  2.0

     negative rho (up, down):  3.460E-04 0.000E+00

     total cpu time spent up to now is      244.5 secs

     total energy              =   -2246.25426179 Ry
     estimated scf accuracy    <       0.00000211 Ry

     iteration # 13     ecut=    80.00 Ry     beta= 0.70
     Davidson diagonalization with overlap
     ethr =  6.76E-10,  avg # of iterations =  4.0

     negative rho (up, down):  2.156E-04 0.000E+00

     total cpu time spent up to now is      248.0 secs

     End of self-consistent calculation

          k = 0.0000 0.0000 0.0000 (105382 PWs)   bands (ev):

   -62.9705 -62.9384 -62.9273 -62.9172 -62.9060 -62.8934 -62.8767 -62.8656
   -62.8546 -62.8436 -62.7782 -62.6867 -37.3273 -37.2756 -37.2545 -37.2158
   -37.1975 -37.1634 -37.1600 -37.1523 -37.1480 -37.1336 -37.1236 -37.1073
   -37.0848 -37.0799 -37.0750 -37.0702 -37.0639 -37.0572 -37.0469 -37.0401
   -37.0314 -37.0289 -37.0101 -37.0039 -36.9885 -36.9747 -36.9572 -36.9514
   -36.9358 -36.9211 -36.9181 -36.8750 -36.8440 -36.8317 -36.8192 -36.7583
   -24.7895 -16.0185 -15.2632 -15.1833 -15.0433 -14.9459 -14.8460 -14.5683
   -14.5561 -14.4961 -14.4766 -14.4334 -14.4254 -14.3746 -14.2731 -14.2046
   -14.1818 -14.1571 -14.0987 -13.9886 -13.9185 -13.8841 -13.8826 -13.6309
    -8.8203  -8.7323  -8.0155  -7.6354  -7.4484  -7.3442  -7.3219  -7.2610
    -7.2432  -7.0677  -7.0128  -6.8852  -6.8578  -6.7872  -6.7173  -6.6810
    -6.5420  -6.5309  -6.4505  -6.3700  -6.1103  -6.0809  -6.0280  -5.9723
    -5.9180  -5.8952  -5.7925  -5.7633  -5.7578  -5.7079  -5.6960  -5.6517
    -5.5577  -5.5470  -5.4632  -5.3708  -5.3282  -5.2786  -5.1616  -5.0943
    -5.0494  -5.0196  -4.9211  -4.8720  -4.7633  -4.6382  -4.5537  -4.4423
    -4.3725  -4.3165  -4.2975  -4.1393  -4.0684  -3.9770  -3.9469  -3.8608
    -3.8061  -3.7657  -3.7559  -3.6834  -3.6433  -3.5769  -3.5728  -3.5359
    -3.4752  -3.4502  -3.3220  -3.2742  -3.2371  -3.0916  -2.9969  -2.9431
    -2.8892  -2.8224  -2.8007  -2.7960  -2.7328  -2.6543  -2.5442  -2.3728
    -2.1812  -2.0888  -2.0203  -1.7281  -0.8776  -0.8093  -0.3045  -0.2451
    -0.1922  -0.1583  -0.0710  -0.0172   0.0766   0.1027   0.1901   0.2278
     0.2743   0.3446   0.4135   0.4540   0.4629   0.5022   0.5781   0.5958
     0.6543   0.6809   0.7063   0.7349   0.7755   0.8155   0.8763   0.9200
     0.9721   1.1391   1.3072

     the Fermi energy is    -1.3032 ev

!    total energy              =   -2246.25426250 Ry
     estimated scf accuracy    <       0.00000035 Ry
     smearing contrib. (-TS)   =      -0.00000066 Ry
     internal energy E=F+TS    =   -2246.25426184 Ry

     The total energy is F=E-TS. E is the sum of the following terms:
     one-electron contribution =  -18498.55598941 Ry
     hartree contribution      =    9237.19660031 Ry
     xc contribution           =    -392.50422574 Ry
     ewald contribution        =    7417.45475971 Ry
     one-center paw contrib.   =      -9.84540672 Ry

     convergence has been achieved in  13 iterations

     negative rho (up, down):  2.156E-04 0.000E+00

     Forces acting on atoms (cartesian axes, Ry/au):

     atom    1 type  1   force =    -0.02053494   -0.02621772   -0.03320448
     atom    2 type  2   force =    -0.08867885   -0.02626447   -0.29904229
     atom    3 type  2   force =    -0.01071006    0.01116216   -0.01834946
     atom    4 type  1   force =     0.00741399    0.00018878    0.00136074
     atom    5 type  2   force =    -0.00014192   -0.00576494   -0.00158808
     atom    6 type  2   force =     0.00157292    0.01588319   -0.00234392
     atom    7 type  1   force =     0.00299857   -0.01139759   -0.00760891
     atom    8 type  2   force =     0.00171283   -0.00423525    0.01779738
     atom    9 type  2   force =     0.01209297    0.00739611    0.01101147
     atom   10 type  1   force =    -0.00722378   -0.07597129   -0.05168796
     atom   11 type  2   force =    -0.00263977   -0.01149709   -0.00634788
     atom   12 type  2   force =    -0.00560521   -0.00229850    0.00102135
     atom   13 type  1   force =     0.00583164    0.00651226   -0.01290964
     atom   14 type  2   force =     0.00803175   -0.00247938    0.01700613
     atom   15 type  2   force =    -0.01430957    0.00153768   -0.00832196
     atom   16 type  1   force =     0.00269173    0.01044346    0.00159731
     atom   17 type  2   force =     0.00518301   -0.00080248    0.00170966
     atom   18 type  2   force =    -0.00309036   -0.00748311    0.01338471
     atom   19 type  1   force =     0.00464036   -0.01308675   -0.00560374
     atom   20 type  2   force =     0.00321245   -0.00389957    0.00183956
     atom   21 type  1   force =    -0.00762532    0.00943183   -0.00075329
     atom   22 type  2   force =    -0.00242734   -0.00140844   -0.00360056
     atom   23 type  2   force =    -0.00162065    0.00124601    0.00956961
     atom   24 type  1   force =     0.01290043   -0.01546933   -0.10366460
     atom   25 type  2   force =     0.01548731    0.01862475    0.01315957
     atom   26 type  2   force =    -0.01327280    0.00318375   -0.00012718
     atom   27 type  1   force =    -0.00093004    0.00589290    0.00322830
     atom   28 type  2   force =     0.00262928    0.00282720   -0.00244927
     atom   29 type  2   force =     0.00315249    0.00124219   -0.00008275
     atom   30 type  1   force =    -0.00585453    0.01300798   -0.00320457
     atom   31 type  2   force =     0.00192211   -0.00150750    0.01626152
     atom   32 type  2   force =    -0.00855156    0.00849654    0.00888059
     atom   33 type  1   force =     0.01654839    0.00052441   -0.01294406
     atom   34 type  2   force =     0.00776985   -0.04684777   -0.00577818
     atom   35 type  2   force =    -0.00314883    0.00364491    0.00616751
     atom   36 type  3   force =     0.08057347    0.13538507    0.45561740
     The non-local contrib.  to forces
     atom    1 type  1   force =     0.02013876    0.01280490    0.00874216
     atom    2 type  2   force =     0.00558256    0.01567951    0.05453332
     atom    3 type  2   force =    -0.01899744   -0.00408184    0.26596463
     atom    4 type  1   force =     0.00494026    0.00321912    0.00550785
     atom    5 type  2   force =     0.00292229   -0.02462681   -0.25098527
     atom    6 type  2   force =    -0.00167128    0.01740022    0.25861277
     atom    7 type  1   force =    -0.02204963   -0.00820372   -0.02974962
     atom    8 type  2   force =     0.00190160   -0.00176270   -0.25646699
     atom    9 type  2   force =     0.00647095   -0.00739309    0.28004558
     atom   10 type  1   force =    -0.00196791    0.03319191    0.00810382
     atom   11 type  2   force =     0.02145668    0.00466731   -0.26379416
     atom   12 type  2   force =    -0.01539164   -0.01964081    0.26091475
     atom   13 type  1   force =    -0.00430871    0.02413735    0.00282977
     atom   14 type  2   force =     0.02409175   -0.00607033   -0.26503974
     atom   15 type  2   force =    -0.01308522   -0.00838122    0.25993552
     atom   16 type  1   force =    -0.00335290    0.02460222   -0.03415990
     atom   17 type  2   force =     0.00272685   -0.02911466   -0.25193913
     atom   18 type  2   force =    -0.00420457   -0.00610516    0.27320046
     atom   19 type  1   force =     0.00856222   -0.00201395   -0.01630376
     atom   20 type  2   force =     0.00009817   -0.02170208    0.26620761
     atom   21 type  1   force =    -0.00146042    0.02755680    0.00557501
     atom   22 type  2   force =    -0.00470196    0.00393534   -0.26003880
     atom   23 type  2   force =     0.00726937   -0.01332816    0.27008895
     atom   24 type  1   force =    -0.02666356   -0.00125044    0.01208682
     atom   25 type  2   force =     0.02464877    0.00476353   -0.26239741
     atom   26 type  2   force =    -0.00649133   -0.01385767    0.26386214
     atom   27 type  1   force =    -0.00477100    0.00005797    0.01324922
     atom   28 type  2   force =     0.00057253    0.00894505   -0.27051006
     atom   29 type  2   force =     0.00245662    0.00558833    0.26114008
     atom   30 type  1   force =     0.01065231    0.00934706    0.00206725
     atom   31 type  2   force =    -0.01065044    0.00473598   -0.25537002
     atom   32 type  2   force =    -0.00408440   -0.00847833    0.27423525
     atom   33 type  1   force =    -0.00754369    0.01165614    0.00657704
     atom   34 type  2   force =    -0.01495466   -0.03090949   -0.27647272
     atom   35 type  2   force =     0.00146622   -0.01436882    0.26907336
     atom   36 type  3   force =    -0.75262928   -1.37847594   -1.75779923
     The ionic contribution  to forces
     atom    1 type  1   force =    -2.58048951    1.81931180    1.73846132
     atom    2 type  2   force =    -3.30339082   -4.02524235   28.55516546
     atom    3 type  2   force =    -0.17917676   -0.02785904  -37.69278926
     atom    4 type  1   force =    -0.06949147    2.19379401   -1.17224142
     atom    5 type  2   force =    -1.85595360    2.70269114   38.24861441
     atom    6 type  2   force =     0.16300237   -0.21144892  -38.81136551
     atom    7 type  1   force =    -2.94641930   -3.15143227    1.55321603
     atom    8 type  2   force =    -1.02816021    0.18090239   37.18973135
     atom    9 type  2   force =     0.32814349    0.00060919  -38.54862056
     atom   10 type  1   force =    -1.11155500   -4.31069511    1.73803822
     atom   11 type  2   force =    -1.13651745   -2.59779866   38.94387395
     atom   12 type  2   force =     0.28317388    0.39084803  -38.57946853
     atom   13 type  1   force =     0.67970145    1.22866616    1.43286914
     atom   14 type  2   force =    -0.97438623   -0.13563163   38.20481442
     atom   15 type  2   force =    -0.10224702   -0.08689713  -37.59986525
     atom   16 type  1   force =    -0.44289403    4.62585077   -0.62826608
     atom   17 type  2   force =     0.91249441    1.88100278   37.71462301
     atom   18 type  2   force =    -0.13920513   -0.49177083  -39.13538841
     atom   19 type  1   force =     2.74964079   -2.62151856   -0.18359885
     atom   20 type  2   force =     0.17212190   -0.17491542  -38.94791402
     atom   21 type  1   force =    -0.90033619   -0.85670558   -0.23399185
     atom   22 type  2   force =     0.49627412   -2.06307230   38.27913324
     atom   23 type  2   force =    -0.07144747    0.51167218  -38.82020198
     atom   24 type  1   force =     2.27165687    2.48743379    0.91416628
     atom   25 type  2   force =     2.21803224   -0.02242658   38.69493919
     atom   26 type  2   force =    -0.00452532    0.02434259  -38.16829808
     atom   27 type  1   force =     0.57822757    1.22154531   -3.48470186
     atom   28 type  2   force =     0.98930062    2.78759351   37.39999851
     atom   29 type  2   force =    -0.10703373   -0.09751762  -38.11892593
     atom   30 type  1   force =    -0.05098740   -1.29574637   -1.08572120
     atom   31 type  2   force =     1.39377767    0.04455148   37.16678734
     atom   32 type  2   force =    -0.41402426    0.02248080  -39.11273724
     atom   33 type  1   force =     1.85757370   -1.87837826    0.50185204
     atom   34 type  2   force =     0.82954900   -2.67275811   39.07191498
     atom   35 type  2   force =    -0.15266009    0.17067072  -38.55218286
     atom   36 type  3   force =     1.64823092    4.42784811   51.52807998
     The local contribution  to forces
     atom    1 type  1   force =     2.53980758   -1.85846246   -1.78005560
     atom    2 type  2   force =     3.20873399    3.98202457  -28.91671936
     atom    3 type  2   force =     0.18653356    0.04290112   37.42908560
     atom    4 type  1   force =     0.07190645   -2.19704416    1.16846562
     atom    5 type  2   force =     1.85332085   -2.68533346  -38.01929736
     atom    6 type  2   force =    -0.16003955    0.21132085   38.57093251
     atom    7 type  1   force =     2.97166826    3.14837659   -1.53080651
     atom    8 type  2   force =     1.02798040   -0.18370972  -36.93582498
     atom    9 type  2   force =    -0.32242590    0.01379887   38.30057965
     atom   10 type  1   force =     1.10621821    4.20167385   -1.79744547
     atom   11 type  2   force =     1.11363079    2.58242744  -38.70702145
     atom   12 type  2   force =    -0.27461344   -0.37493010   38.34024736
     atom   13 type  1   force =    -0.66947743   -1.24630512   -1.44815307
     atom   14 type  2   force =     0.95977947    0.13928660  -37.94320308
     atom   15 type  2   force =     0.10033056    0.09628633   37.35203142
     atom   16 type  1   force =     0.44907059   -4.64029393    0.66434795
     atom   17 type  2   force =    -0.90995048   -1.85433547  -37.48111753
     atom   18 type  2   force =     0.14030673    0.49071340   38.89642784
     atom   19 type  1   force =    -2.75351401    2.61047192    0.19456048
     atom   20 type  2   force =    -0.16908323    0.19186382   38.70453733
     atom   21 type  1   force =     0.89443797    0.83886853    0.22805924
     atom   22 type  2   force =    -0.49401249    2.05831124  -38.04309498
     atom   23 type  2   force =     0.06314896   -0.49824431   38.58047596
     atom   24 type  1   force =    -2.23216659   -2.50175444   -1.02958545
     atom   25 type  2   force =    -2.22639238    0.03659097  -38.43991103
     atom   26 type  2   force =    -0.00224258   -0.00805981   37.92503123
     atom   27 type  1   force =    -0.57445410   -1.21594462    3.47501379
     atom   28 type  2   force =    -0.98724979   -2.79376978  -37.15258361
     atom   29 type  2   force =     0.10803060    0.09401390   37.87796812
     atom   30 type  1   force =     0.03422804    1.29958180    1.08069731
     atom   31 type  2   force =    -1.38183400   -0.05065335  -36.91556114
     atom   32 type  2   force =     0.40958784   -0.00601786   38.86820775
     atom   33 type  1   force =    -1.83368245    1.86749002   -0.52095325
     atom   34 type  2   force =    -0.80816315    2.65621919  -38.82225475
     atom   35 type  2   force =     0.14821582   -0.15373236   38.31014252
     atom   36 type  3   force =    -0.82207143   -2.92702337  -49.32905807
     The core correction contribution to forces
     atom    1 type  1   force =     0.00000000    0.00000000    0.00000000
     atom    2 type  2   force =     0.00037838    0.00123263    0.00827903
     atom    3 type  2   force =     0.00090871    0.00015705   -0.02069491
     atom    4 type  1   force =     0.00000000    0.00000000    0.00000000
     atom    5 type  2   force =    -0.00038786    0.00141203    0.02036797
     atom    6 type  2   force =     0.00028796   -0.00144623   -0.02065494
     atom    7 type  1   force =     0.00000000    0.00000000    0.00000000
     atom    8 type  2   force =    -0.00001943    0.00032291    0.02056280
     atom    9 type  2   force =    -0.00009630    0.00039181   -0.02117526
     atom   10 type  1   force =     0.00000000    0.00000000    0.00000000
     atom   11 type  2   force =    -0.00111010   -0.00064360    0.02078578
     atom   12 type  2   force =     0.00129866    0.00150115   -0.02078276
     atom   13 type  1   force =     0.00000000    0.00000000    0.00000000
     atom   14 type  2   force =    -0.00141527   -0.00004329    0.02069750
     atom   15 type  2   force =     0.00074106    0.00054626   -0.02051520
     atom   16 type  1   force =     0.00000000    0.00000000    0.00000000
     atom   17 type  2   force =    -0.00007580    0.00152516    0.02038406
     atom   18 type  2   force =     0.00003919   -0.00039229   -0.02101879
     atom   19 type  1   force =     0.00000000    0.00000000    0.00000000
     atom   20 type  2   force =     0.00011726    0.00083215   -0.02121383
     atom   21 type  1   force =     0.00000000    0.00000000    0.00000000
     atom   22 type  2   force =     0.00002187   -0.00045974    0.02063460
     atom   23 type  2   force =    -0.00057915    0.00120488   -0.02100051
     atom   24 type  1   force =     0.00000000    0.00000000    0.00000000
     atom   25 type  2   force =    -0.00081335   -0.00028908    0.02087706
     atom   26 type  2   force =    -0.00004432    0.00077856   -0.02085122
     atom   27 type  1   force =     0.00000000    0.00000000    0.00000000
     atom   28 type  2   force =    -0.00006000   -0.00003865    0.02098163
     atom   29 type  2   force =    -0.00033635   -0.00088802   -0.02041738
     atom   30 type  1   force =     0.00000000    0.00000000    0.00000000
     atom   31 type  2   force =     0.00059188   -0.00018102    0.02062831
     atom   32 type  2   force =    -0.00007292    0.00049787   -0.02106588
     atom   33 type  1   force =     0.00000000    0.00000000    0.00000000
     atom   34 type  2   force =     0.00124610    0.00072835    0.02125106
     atom   35 type  2   force =    -0.00026055    0.00113726   -0.02099768
     atom   36 type  3   force =     0.00714845    0.01320437    0.01500294
     The Hubbard contrib.    to forces
     atom    1 type  1   force =     0.00000000    0.00000000    0.00000000
     atom    2 type  2   force =     0.00000000    0.00000000    0.00000000
     atom    3 type  2   force =     0.00000000    0.00000000    0.00000000
     atom    4 type  1   force =     0.00000000    0.00000000    0.00000000
     atom    5 type  2   force =     0.00000000    0.00000000    0.00000000
     atom    6 type  2   force =     0.00000000    0.00000000    0.00000000
     atom    7 type  1   force =     0.00000000    0.00000000    0.00000000
     atom    8 type  2   force =     0.00000000    0.00000000    0.00000000
     atom    9 type  2   force =     0.00000000    0.00000000    0.00000000
     atom   10 type  1   force =     0.00000000    0.00000000    0.00000000
     atom   11 type  2   force =     0.00000000    0.00000000    0.00000000
     atom   12 type  2   force =     0.00000000    0.00000000    0.00000000
     atom   13 type  1   force =     0.00000000    0.00000000    0.00000000
     atom   14 type  2   force =     0.00000000    0.00000000    0.00000000
     atom   15 type  2   force =     0.00000000    0.00000000    0.00000000
     atom   16 type  1   force =     0.00000000    0.00000000    0.00000000
     atom   17 type  2   force =     0.00000000    0.00000000    0.00000000
     atom   18 type  2   force =     0.00000000    0.00000000    0.00000000
     atom   19 type  1   force =     0.00000000    0.00000000    0.00000000
     atom   20 type  2   force =     0.00000000    0.00000000    0.00000000
     atom   21 type  1   force =     0.00000000    0.00000000    0.00000000
     atom   22 type  2   force =     0.00000000    0.00000000    0.00000000
     atom   23 type  2   force =     0.00000000    0.00000000    0.00000000
     atom   24 type  1   force =     0.00000000    0.00000000    0.00000000
     atom   25 type  2   force =     0.00000000    0.00000000    0.00000000
     atom   26 type  2   force =     0.00000000    0.00000000    0.00000000
     atom   27 type  1   force =     0.00000000    0.00000000    0.00000000
     atom   28 type  2   force =     0.00000000    0.00000000    0.00000000
     atom   29 type  2   force =     0.00000000    0.00000000    0.00000000
     atom   30 type  1   force =     0.00000000    0.00000000    0.00000000
     atom   31 type  2   force =     0.00000000    0.00000000    0.00000000
     atom   32 type  2   force =     0.00000000    0.00000000    0.00000000
     atom   33 type  1   force =     0.00000000    0.00000000    0.00000000
     atom   34 type  2   force =     0.00000000    0.00000000    0.00000000
     atom   35 type  2   force =     0.00000000    0.00000000    0.00000000
     atom   36 type  3   force =     0.00000000    0.00000000    0.00000000
     The SCF correction term to forces
     atom    1 type  1   force =     0.00000720    0.00012891   -0.00036629
     atom    2 type  2   force =     0.00001603    0.00004204   -0.00031465
     atom    3 type  2   force =     0.00002085    0.00004574    0.00007056
     atom    4 type  1   force =     0.00005773    0.00022068   -0.00038523
     atom    5 type  2   force =    -0.00004462    0.00009303   -0.00030175
     atom    6 type  2   force =    -0.00000762    0.00005814    0.00011732
     atom    7 type  1   force =    -0.00020177   -0.00013732   -0.00028273
     atom    8 type  2   force =     0.00000945    0.00001275   -0.00021873
     atom    9 type  2   force =    -0.00000029   -0.00000980    0.00016815
     atom   10 type  1   force =     0.00007989   -0.00014108   -0.00039846
     atom   11 type  2   force =    -0.00010071   -0.00014872   -0.00020592
     atom   12 type  2   force =    -0.00007370   -0.00007590    0.00009662
     atom   13 type  1   force =    -0.00008469    0.00001474   -0.00046941
     atom   14 type  2   force =    -0.00003900   -0.00001986   -0.00027690
     atom   15 type  2   force =    -0.00004997   -0.00001569    0.00007762
     atom   16 type  1   force =    -0.00013295    0.00028527   -0.00033859
     atom   17 type  2   force =    -0.00001300    0.00012057   -0.00025466
     atom   18 type  2   force =    -0.00002760    0.00007264    0.00014968
     atom   19 type  1   force =    -0.00004967   -0.00002530   -0.00027553
     atom   20 type  2   force =    -0.00004268    0.00002283    0.00020854
     atom   21 type  1   force =    -0.00026771   -0.00028705   -0.00040961
     atom   22 type  2   force =    -0.00000989   -0.00012211   -0.00024853
     atom   23 type  2   force =    -0.00001339   -0.00005772    0.00019327
     atom   24 type  1   force =     0.00007268    0.00010263   -0.00034616
     atom   25 type  2   force =     0.00001101   -0.00001322   -0.00036217
     atom   26 type  2   force =     0.00002972   -0.00001905    0.00011483
     atom   27 type  1   force =     0.00006647    0.00023510   -0.00034677
     atom   28 type  2   force =     0.00006490    0.00009793   -0.00034967
     atom   29 type  2   force =     0.00003434    0.00004647    0.00013844
     atom   30 type  1   force =     0.00025150   -0.00017363   -0.00026187
     atom   31 type  2   force =     0.00003597    0.00004027   -0.00023689
     atom   32 type  2   force =     0.00004115    0.00001492    0.00022679
     atom   33 type  1   force =     0.00019981   -0.00024263   -0.00043381
     atom   34 type  2   force =     0.00009154   -0.00012684   -0.00023067
     atom   35 type  2   force =     0.00008874   -0.00006103    0.00011826
     atom   36 type  3   force =    -0.00010622   -0.00016723   -0.00062214

     Total force =     0.600471     Total SCF correction =     0.001997
     Energy error            =      4.4E+00 Ry
     Gradient error          =      4.6E-01 Ry/Bohr

     number of scf cycles    =   2
     number of bfgs steps    =   1

     energy             old  =   -2241.8102543815 Ry
     energy             new  =   -2246.2542624991 Ry

     CASE: energy            _new < energy            _old

     new trust radius        =       0.1638831717 bohr
     new conv_thr            =       0.0000004556 Ry


ATOMIC_POSITIONS (angstrom)
Mo            6.5634457921        1.7734187200        2.8055942510
S             8.1098657264        0.7629872572        4.2156261476
S             8.1873591920        0.8173518411        1.2679059734
Mo            8.0992172523        4.4951743580        2.7185517882
S             6.4998318273        3.7192524962        4.3457951694
S             6.5542143450        3.5204340266        1.1199997011
Mo            6.4916293424        7.2121824459        2.6677147145
S             8.0826659306        6.3415508097        4.2522084301
S             8.0875446237        6.3087523758        1.0898999510
Mo            8.1566703542        9.8609442530        2.8154832497
S             6.4937341168        8.9366393193        4.3796149110
S             6.6148861412        9.0474586312        1.1404776971
Mo            3.4248454004        1.7505242591        2.7693887044
S             4.9795754033        0.8155785933        4.3598468540
S             5.0499836707        0.8470921649        1.2220947057
Mo            4.9812230832        4.5189003740        2.6337638888
S             3.4306836826        3.6711660043        4.2806408832
S             3.4362278409        3.5441299210        1.0656927741
Mo            3.4564047646        7.2091536922        2.6276061143
S             4.9849943418        6.3247953858        1.0382628002
Mo            5.0080871325        9.9067636222        2.7429950394
S             3.4696276994        8.9429770910        4.3236145598
S             3.4075406431        9.0656752058        1.1013169920
Mo            0.3031529335        1.7390433609        2.7925952227
S             1.8589354729        0.8028912559        4.4054305683
S             1.8535449787        0.8561522213        1.2093251348
Mo            1.8601842932        4.4988711295        2.6619693409
S             0.2736486696        3.6559463848        4.3362547595
S             0.2329491803        3.5279432539        1.1719662967
Mo            0.2679380180        7.2237719795        2.6999418571
S             1.9032928036        6.3119731832        4.2313531383
S             1.8575523124        6.3150003361        1.0494288531
Mo            1.8534171437        9.9404122081        2.7658535345
S             0.3001669789        9.0643259126        4.4106968608
S             0.2750284224        9.0455355109        1.1538002887
O             8.4682863873        1.3204990483        5.4180364211



     Writing config-only to output data dir ./MoS2-V-O.save/
     NEW-OLD atomic charge density approx. for the potential

     negative rho (up, down):  1.430E-04 0.000E+00

     total cpu time spent up to now is      255.2 secs

     Self-consistent Calculation

     iteration #  1     ecut=    80.00 Ry     beta= 0.70
     Davidson diagonalization with overlap
     ethr =  1.00E-06,  avg # of iterations = 14.0

     negative rho (up, down):  4.482E-04 0.000E+00

     total cpu time spent up to now is      269.9 secs

     total energy              =   -2246.32794791 Ry
     estimated scf accuracy    <       0.01118965 Ry

     iteration #  2     ecut=    80.00 Ry     beta= 0.70
     Davidson diagonalization with overlap
     ethr =  3.59E-06,  avg # of iterations =  4.0

     negative rho (up, down):  8.125E-04 0.000E+00

     total cpu time spent up to now is      284.5 secs

     total energy              =   -2246.32917608 Ry
     estimated scf accuracy    <       0.00348705 Ry

     iteration #  3     ecut=    80.00 Ry     beta= 0.70
     Davidson diagonalization with overlap
     ethr =  1.12E-06,  avg # of iterations =  2.0

     negative rho (up, down):  1.285E-03 0.000E+00

     total cpu time spent up to now is      294.0 secs

     total energy              =   -2246.32911299 Ry
     estimated scf accuracy    <       0.00068888 Ry

     iteration #  4     ecut=    80.00 Ry     beta= 0.70
     Davidson diagonalization with overlap
     ethr =  2.21E-07,  avg # of iterations =  5.0

     negative rho (up, down):  1.274E-03 0.000E+00

     total cpu time spent up to now is      305.9 secs

     total energy              =   -2246.32924386 Ry
     estimated scf accuracy    <       0.00014518 Ry

     iteration #  5     ecut=    80.00 Ry     beta= 0.70
     Davidson diagonalization with overlap
     ethr =  4.65E-08,  avg # of iterations =  3.0

     negative rho (up, down):  1.220E-03 0.000E+00

     total cpu time spent up to now is      317.4 secs

     total energy              =   -2246.32924922 Ry
     estimated scf accuracy    <       0.00004024 Ry

     iteration #  6     ecut=    80.00 Ry     beta= 0.70
     Davidson diagonalization with overlap
     ethr =  1.29E-08,  avg # of iterations =  5.0

     negative rho (up, down):  1.067E-03 0.000E+00

     total cpu time spent up to now is      328.7 secs

     total energy              =   -2246.32925566 Ry
     estimated scf accuracy    <       0.00000927 Ry

     iteration #  7     ecut=    80.00 Ry     beta= 0.70
     Davidson diagonalization with overlap
     ethr =  2.97E-09,  avg # of iterations =  4.0

     negative rho (up, down):  8.739E-04 0.000E+00

     total cpu time spent up to now is      340.6 secs

     total energy              =   -2246.32925608 Ry
     estimated scf accuracy    <       0.00000568 Ry

     iteration #  8     ecut=    80.00 Ry     beta= 0.70
     Davidson diagonalization with overlap
     ethr =  1.82E-09,  avg # of iterations =  2.0

     negative rho (up, down):  6.901E-04 0.000E+00

     total cpu time spent up to now is      349.0 secs

     total energy              =   -2246.32925546 Ry
     estimated scf accuracy    <       0.00000190 Ry

     iteration #  9     ecut=    80.00 Ry     beta= 0.70
     Davidson diagonalization with overlap
     ethr =  6.08E-10,  avg # of iterations =  4.0

     negative rho (up, down):  2.112E-04 0.000E+00

     total cpu time spent up to now is      352.5 secs

     End of self-consistent calculation

          k = 0.0000 0.0000 0.0000 (105382 PWs)   bands (ev):

   -62.9818 -62.9479 -62.9317 -62.9230 -62.9159 -62.9055 -62.8957 -62.8915
   -62.8819 -62.8647 -62.8090 -62.7111 -37.3271 -37.2672 -37.2446 -37.2127
   -37.2107 -37.1818 -37.1714 -37.1656 -37.1608 -37.1445 -37.1372 -37.1236
   -37.1047 -37.0977 -37.0894 -37.0818 -37.0787 -37.0703 -37.0584 -37.0523
   -37.0518 -37.0485 -37.0291 -37.0191 -37.0084 -37.0063 -36.9750 -36.9665
   -36.9537 -36.9488 -36.9396 -36.9041 -36.8646 -36.8467 -36.8392 -36.7968
   -24.3597 -16.0340 -15.2721 -15.2074 -15.0555 -14.9677 -14.8503 -14.5847
   -14.5680 -14.4963 -14.4857 -14.4602 -14.4362 -14.3981 -14.2928 -14.2190
   -14.2022 -14.1648 -14.1191 -13.9883 -13.9551 -13.9267 -13.8716 -13.5909
    -8.5417  -8.4728  -7.9163  -7.6486  -7.4620  -7.3731  -7.3374  -7.2838
    -7.2547  -7.0769  -7.0262  -6.9069  -6.8741  -6.7910  -6.7303  -6.6911
    -6.5621  -6.5457  -6.4667  -6.3825  -6.1072  -6.0899  -6.0370  -5.9703
    -5.9277  -5.8982  -5.8056  -5.7888  -5.7742  -5.7225  -5.7011  -5.6678
    -5.5681  -5.5602  -5.4492  -5.3687  -5.3185  -5.2585  -5.1643  -5.1087
    -5.0740  -5.0309  -4.9201  -4.8552  -4.7801  -4.6641  -4.5543  -4.4498
    -4.3880  -4.3571  -4.3195  -4.1756  -4.0764  -4.0211  -3.9684  -3.8701
    -3.8303  -3.7788  -3.7573  -3.7095  -3.6464  -3.6071  -3.5797  -3.5477
    -3.4839  -3.4761  -3.3504  -3.2753  -3.2119  -3.1394  -3.0136  -2.9438
    -2.8704  -2.8331  -2.8155  -2.8060  -2.7604  -2.6717  -2.5625  -2.4379
    -2.2386  -2.1071  -2.0435  -1.9043  -0.8894  -0.8359  -0.2738  -0.2320
    -0.1901  -0.1711  -0.0622  -0.0205   0.0675   0.1239   0.2002   0.2031
     0.2479   0.3495   0.4028   0.4415   0.4730   0.4835   0.5831   0.6023
     0.6294   0.6740   0.6932   0.7282   0.7726   0.8112   0.8653   0.9176
     0.9274   1.0833   1.3315

     the Fermi energy is    -1.3972 ev

!    total energy              =   -2246.32925488 Ry
     estimated scf accuracy    <       0.00000035 Ry
     smearing contrib. (-TS)   =      -0.00000001 Ry
     internal energy E=F+TS    =   -2246.32925487 Ry

     The total energy is F=E-TS. E is the sum of the following terms:
     one-electron contribution =  -18481.29079811 Ry
     hartree contribution      =    9228.41288692 Ry
     xc contribution           =    -392.43262624 Ry
     ewald contribution        =    7408.82813953 Ry
     one-center paw contrib.   =      -9.84685697 Ry

     convergence has been achieved in   9 iterations

     negative rho (up, down):  2.112E-04 0.000E+00

     Forces acting on atoms (cartesian axes, Ry/au):

     atom    1 type  1   force =    -0.01761563    0.00002518   -0.01713303
     atom    2 type  2   force =    -0.04258820   -0.03396240   -0.26220421
     atom    3 type  2   force =    -0.01577909   -0.00412397   -0.02119001
     atom    4 type  1   force =     0.00567493    0.00029278    0.00340904
     atom    5 type  2   force =    -0.00016849   -0.00843934   -0.00638784
     atom    6 type  2   force =     0.00094751    0.01306078   -0.00313786
     atom    7 type  1   force =     0.00036923   -0.01118222   -0.00215066
     atom    8 type  2   force =     0.00092948   -0.00465519    0.01196205
     atom    9 type  2   force =     0.01068049    0.00536780    0.00689462
     atom   10 type  1   force =    -0.00553931   -0.00765890   -0.00914898
     atom   11 type  2   force =     0.00060070   -0.00755228   -0.00889634
     atom   12 type  2   force =    -0.00903304   -0.00562245   -0.00499078
     atom   13 type  1   force =     0.00254688   -0.00052990   -0.00181096
     atom   14 type  2   force =     0.00611163   -0.00062902    0.00862415
     atom   15 type  2   force =    -0.01655451   -0.00250190   -0.01522200
     atom   16 type  1   force =     0.00110476    0.00791911    0.00329547
     atom   17 type  2   force =     0.00452192    0.00076276    0.00023394
     atom   18 type  2   force =    -0.00143256   -0.00268035    0.00935715
     atom   19 type  1   force =     0.00323611   -0.00886901    0.00038684
     atom   20 type  2   force =     0.00320658   -0.00396033   -0.00218548
     atom   21 type  1   force =    -0.00292899    0.00369933    0.00246482
     atom   22 type  2   force =    -0.00160377   -0.00234867   -0.00452032
     atom   23 type  2   force =     0.00057106   -0.00026968    0.00463523
     atom   24 type  1   force =     0.00804208    0.00486198   -0.03656595
     atom   25 type  2   force =     0.00579164    0.01639454   -0.00427825
     atom   26 type  2   force =     0.00115796   -0.00398972   -0.01406966
     atom   27 type  1   force =    -0.00107337    0.00123514    0.00643597
     atom   28 type  2   force =     0.00217149   -0.00846576   -0.01172096
     atom   29 type  2   force =     0.00268227    0.00801134   -0.00970083
     atom   30 type  1   force =     0.00181618    0.00262725    0.00322572
     atom   31 type  2   force =     0.00069442   -0.00030671    0.01094087
     atom   32 type  2   force =    -0.00757001    0.00680890    0.00624595
     atom   33 type  1   force =     0.00563457   -0.00003872    0.00146724
     atom   34 type  2   force =     0.00345402   -0.03383014   -0.01180156
     atom   35 type  2   force =     0.00020595    0.00215934    0.00039272
     atom   36 type  3   force =     0.04973508    0.07839043    0.36714389
     The non-local contrib.  to forces
     atom    1 type  1   force =     0.01718511    0.00970626    0.00953869
     atom    2 type  2   force =     0.02225869   -0.00304343    0.07785878
     atom    3 type  2   force =    -0.01821140   -0.01625263    0.26854404
     atom    4 type  1   force =     0.00532707    0.00429884    0.00298007
     atom    5 type  2   force =     0.00343272   -0.02723324   -0.25674615
     atom    6 type  2   force =    -0.00161435    0.01253049    0.26013443
[...]
     atom   28 type  2   force =    -0.00079242   -0.00944444   -0.27796253
     atom   29 type  2   force =     0.00019118   -0.01045381    0.26642793
     atom   30 type  1   force =     0.00587933    0.01792340    0.00314959
     atom   31 type  2   force =    -0.00999774    0.00268706   -0.26770392
     atom   32 type  2   force =     0.00630059   -0.01386284    0.26919294
     atom   33 type  1   force =    -0.00260487    0.00699429    0.00159095
     atom   34 type  2   force =    -0.00321257   -0.00727980   -0.27925635
     atom   35 type  2   force =    -0.00102174   -0.01147633    0.26565572
     atom   36 type  3   force =    -0.00957602   -0.10367662   -2.31454487
     The ionic contribution  to forces
     atom    1 type  1   force =    -1.14274189    1.12690632   -2.61812271
     atom    2 type  2   force =    -0.22381242   -0.30652119   28.49932723
     atom    3 type  2   force =     0.06078775   -0.22249728  -38.30142228
     atom    4 type  1   force =    -0.15348171    1.35658387   -0.83421107
     atom    5 type  2   force =    -1.38076257    2.12881945   37.62202080
     atom    6 type  2   force =     0.20686883   -0.08023003  -38.98791181
     atom    7 type  1   force =    -2.71740919   -2.33019766    2.52504956
     atom    8 type  2   force =    -1.17978574    0.14345723   38.05114760
     atom    9 type  2   force =     0.34905430    0.12686856  -38.08130519
     atom   10 type  1   force =    -0.46346753   -1.73059664   -0.39017488
     atom   11 type  2   force =    -0.96437457   -2.21931148   38.09456010
     atom   12 type  2   force =     0.15838188    0.15323211  -38.49782900
     atom   13 type  1   force =     0.13797464    0.96555995    0.30700394
     atom   14 type  2   force =    -0.97839579   -0.07058446   37.72104992
     atom   15 type  2   force =    -0.05551379   -0.26060227  -38.50258866
     atom   16 type  1   force =    -0.37444319    3.84321760    0.27698398
     atom   17 type  2   force =     0.83923538    1.38618562   37.89082337
     atom   18 type  2   force =    -0.20801347   -0.17185282  -38.62142961
     atom   19 type  1   force =     2.65069474   -1.98669473    2.89548333
     atom   20 type  2   force =    -0.03411643    0.09788657  -39.03312418
     atom   21 type  1   force =    -0.49938784   -0.84005311   -0.25422985
     atom   22 type  2   force =     0.43748255   -1.61744747   38.38477480
     atom   23 type  2   force =    -0.21666953    0.12715417  -38.16521425
     atom   24 type  1   force =     0.99733904    0.86014614   -2.64254049
     atom   25 type  2   force =     1.17538185    0.05855083   38.03538678
     atom   26 type  2   force =    -0.01594559   -0.21713197  -38.45693586
     atom   27 type  1   force =     0.50336657    0.89424593   -0.56736767
     atom   28 type  2   force =     0.56154256    1.51136891   37.48418790
     atom   29 type  2   force =     0.01658281    0.16042417  -38.55217313
     atom   30 type  1   force =     0.11457297   -1.10075407    1.95377571
     atom   31 type  2   force =     1.28618856    0.09620492   38.28282841
     atom   32 type  2   force =    -0.32195343    0.10898058  -38.19027440
     atom   33 type  1   force =     1.00582407   -1.00453106    1.84522370
     atom   34 type  2   force =     0.52773121   -1.35478365   38.47434380
     atom   35 type  2   force =     0.04744669   -0.02072042  -38.09709707
     atom   36 type  3   force =    -0.14618172    0.38871739   50.44998117
     The local contribution  to forces
     atom    1 type  1   force =     1.13531754   -1.14023928    2.60518406
     atom    2 type  2   force =     0.21949406    0.29312479  -28.78295504
     atom    3 type  2   force =    -0.05808569    0.23131454   38.04443872
     atom    4 type  1   force =     0.14868012   -1.35905647    0.83106772
     atom    5 type  2   force =     1.37581932   -2.11054564  -37.38415332
     atom    6 type  2   force =    -0.20624885    0.08396203   38.74391333
     atom    7 type  1   force =     2.73721257    2.33059181   -2.49745112
     atom    8 type  2   force =     1.17283807   -0.14528810  -37.80450270
     atom    9 type  2   force =    -0.34255797   -0.11286946   37.83027967
     atom   10 type  1   force =     0.46173750    1.71007937    0.37294460
     atom   11 type  2   force =     0.95766332    2.21935802  -37.85256517
     atom   12 type  2   force =    -0.15090890   -0.14101068   38.25384103
     atom   13 type  1   force =    -0.13870826   -0.99019477   -0.31010661
     atom   14 type  2   force =     0.97882435    0.07634579  -37.46772002
     atom   15 type  2   force =     0.05583118    0.26894755   38.26310694
     atom   16 type  1   force =     0.37473963   -3.87730549   -0.24394664
     atom   17 type  2   force =    -0.83447502   -1.36420698  -37.65314033
     atom   18 type  2   force =     0.20794622    0.17850550   38.37465137
     atom   19 type  1   force =    -2.66550567    1.98225465   -2.86974390
     atom   20 type  2   force =     0.03447771   -0.08364128   38.79216007
     atom   21 type  1   force =     0.49901624    0.81054822    0.25202956
     atom   22 type  2   force =    -0.43266723    1.61797580  -38.14367013
     atom   23 type  2   force =     0.20893229   -0.11566633   37.91932487
     atom   24 type  1   force =    -0.98824828   -0.86893734    2.61987468
     atom   25 type  2   force =    -1.17632046   -0.05024702  -37.78392918
     atom   26 type  2   force =     0.01284297    0.22565725   38.21436401
     atom   27 type  1   force =    -0.50022209   -0.90075771    0.56122476
     atom   28 type  2   force =    -0.56128668   -1.50135738  -37.22742463
     atom   29 type  2   force =    -0.01699042   -0.15117099   38.30656274
     atom   30 type  1   force =    -0.12151560    1.08346332   -1.95714434
     atom   31 type  2   force =    -1.27740911   -0.09852922  -38.03702133
     atom   32 type  2   force =     0.31499341   -0.09579358   37.94240963
     atom   33 type  1   force =    -1.00220557    0.99742990   -1.84738005
     atom   34 type  2   force =    -0.52541350    1.36223077  -38.21767862
     atom   35 type  2   force =    -0.04701434    0.03230598   37.85263101
     atom   36 type  3   force =     0.15569378   -0.28883123  -48.16141775
     The core correction contribution to forces
     atom    1 type  1   force =     0.00000000    0.00000000    0.00000000
     atom    2 type  2   force =    -0.00032569   -0.00083702   -0.00994139
     atom    3 type  2   force =     0.00018141    0.00018206   -0.02136323
     atom    4 type  1   force =     0.00000000    0.00000000    0.00000000
     atom    5 type  2   force =    -0.00042895    0.00077129    0.02072525
     atom    6 type  2   force =     0.00028687   -0.00012766   -0.02083524
     atom    7 type  1   force =     0.00000000    0.00000000    0.00000000
     atom    8 type  2   force =    -0.00034118    0.00013037    0.02094757
     atom    9 type  2   force =     0.00065229    0.00086699   -0.02102130
     atom   10 type  1   force =     0.00000000    0.00000000    0.00000000
     atom   11 type  2   force =    -0.00025106   -0.00018330    0.02093385
     atom   12 type  2   force =     0.00060281    0.00086800   -0.02089215
     atom   13 type  1   force =     0.00000000    0.00000000    0.00000000
     atom   14 type  2   force =     0.00004542    0.00007471    0.02140887
     atom   15 type  2   force =     0.00004680    0.00027055   -0.02060645
     atom   16 type  1   force =     0.00000000    0.00000000    0.00000000
     atom   17 type  2   force =     0.00047578    0.00097975    0.02057523
     atom   18 type  2   force =    -0.00019604   -0.00009562   -0.02092728
     atom   19 type  1   force =     0.00000000    0.00000000    0.00000000
     atom   20 type  2   force =    -0.00000407    0.00079513   -0.02122681
     atom   21 type  1   force =     0.00000000    0.00000000    0.00000000
     atom   22 type  2   force =     0.00006920   -0.00016931    0.02076499
     atom   23 type  2   force =    -0.00072851    0.00079080   -0.02091346
     atom   24 type  1   force =     0.00000000    0.00000000    0.00000000
     atom   25 type  2   force =    -0.00009581    0.00046110    0.02130695
     atom   26 type  2   force =    -0.00021189    0.00020641   -0.02078739
     atom   27 type  1   force =     0.00000000    0.00000000    0.00000000
     atom   28 type  2   force =     0.00001488    0.00063090    0.02150898
     atom   29 type  2   force =    -0.00005337    0.00043768   -0.02078421
     atom   30 type  1   force =     0.00000000    0.00000000    0.00000000
     atom   31 type  2   force =     0.00048712    0.00004968    0.02099983
     atom   32 type  2   force =    -0.00061134    0.00080992   -0.02101871
     atom   33 type  1   force =     0.00000000    0.00000000    0.00000000
     atom   34 type  2   force =     0.00016668    0.00032656    0.02161077
     atom   35 type  2   force =     0.00006223    0.00067509   -0.02092360
     atom   36 type  3   force =     0.00010029    0.00109827    0.02455468
     The Hubbard contrib.    to forces
     atom    1 type  1   force =     0.00000000    0.00000000    0.00000000
     atom    2 type  2   force =     0.00000000    0.00000000    0.00000000
     atom    3 type  2   force =     0.00000000    0.00000000    0.00000000
     atom    4 type  1   force =     0.00000000    0.00000000    0.00000000
     atom    5 type  2   force =     0.00000000    0.00000000    0.00000000
     atom    6 type  2   force =     0.00000000    0.00000000    0.00000000
     atom    7 type  1   force =     0.00000000    0.00000000    0.00000000
     atom    8 type  2   force =     0.00000000    0.00000000    0.00000000
     atom    9 type  2   force =     0.00000000    0.00000000    0.00000000
     atom   10 type  1   force =     0.00000000    0.00000000    0.00000000
     atom   11 type  2   force =     0.00000000    0.00000000    0.00000000
     atom   12 type  2   force =     0.00000000    0.00000000    0.00000000
     atom   13 type  1   force =     0.00000000    0.00000000    0.00000000
     atom   14 type  2   force =     0.00000000    0.00000000    0.00000000
     atom   15 type  2   force =     0.00000000    0.00000000    0.00000000
     atom   16 type  1   force =     0.00000000    0.00000000    0.00000000
     atom   17 type  2   force =     0.00000000    0.00000000    0.00000000
     atom   18 type  2   force =     0.00000000    0.00000000    0.00000000
     atom   19 type  1   force =     0.00000000    0.00000000    0.00000000
     atom   20 type  2   force =     0.00000000    0.00000000    0.00000000
     atom   21 type  1   force =     0.00000000    0.00000000    0.00000000
     atom   22 type  2   force =     0.00000000    0.00000000    0.00000000
     atom   23 type  2   force =     0.00000000    0.00000000    0.00000000
     atom   24 type  1   force =     0.00000000    0.00000000    0.00000000
     atom   25 type  2   force =     0.00000000    0.00000000    0.00000000
     atom   26 type  2   force =     0.00000000    0.00000000    0.00000000
     atom   27 type  1   force =     0.00000000    0.00000000    0.00000000
     atom   28 type  2   force =     0.00000000    0.00000000    0.00000000
     atom   29 type  2   force =     0.00000000    0.00000000    0.00000000
     atom   30 type  1   force =     0.00000000    0.00000000    0.00000000
     atom   31 type  2   force =     0.00000000    0.00000000    0.00000000
     atom   32 type  2   force =     0.00000000    0.00000000    0.00000000
     atom   33 type  1   force =     0.00000000    0.00000000    0.00000000
     atom   34 type  2   force =     0.00000000    0.00000000    0.00000000
     atom   35 type  2   force =     0.00000000    0.00000000    0.00000000
     atom   36 type  3   force =     0.00000000    0.00000000    0.00000000
     The SCF correction term to forces
     atom    1 type  1   force =    -0.00001822    0.00007313   -0.00002612
     atom    2 type  2   force =     0.00002015    0.00004400   -0.00000234
     atom    3 type  2   force =     0.00000832    0.00002072   -0.00000203
     atom    4 type  1   force =     0.00001633   -0.00002979    0.00001709
     atom    5 type  2   force =     0.00000967   -0.00000072    0.00000303
     atom    6 type  2   force =    -0.00000159   -0.00000628    0.00000608
     atom    7 type  1   force =    -0.00000677   -0.00003098    0.00001212
     atom    8 type  2   force =     0.00001222   -0.00001877    0.00001256
     atom    9 type  2   force =     0.00000864   -0.00001525   -0.00000044
     atom   10 type  1   force =     0.00002619   -0.00002578   -0.00003834
     atom   11 type  2   force =    -0.00000343   -0.00001474   -0.00000053
     atom   12 type  2   force =     0.00000212    0.00000152   -0.00000183
     atom   13 type  1   force =    -0.00001693    0.00002954   -0.00002037
     atom   14 type  2   force =    -0.00001856    0.00002043   -0.00001416
     atom   15 type  2   force =    -0.00001687    0.00002165    0.00000059
     atom   16 type  1   force =    -0.00002301   -0.00002453    0.00000544
     atom   17 type  2   force =    -0.00001048    0.00000031   -0.00000521
     atom   18 type  2   force =    -0.00000730   -0.00001011    0.00000634
     atom   19 type  1   force =    -0.00002237   -0.00002957    0.00002190
     atom   20 type  2   force =    -0.00000806   -0.00001504    0.00000156
     atom   21 type  1   force =    -0.00002695    0.00001511   -0.00000970
     atom   22 type  2   force =    -0.00001380   -0.00000837    0.00000407
     atom   23 type  2   force =    -0.00000740    0.00000340    0.00000412
     atom   24 type  1   force =     0.00006389    0.00006031   -0.00001885
     atom   25 type  2   force =    -0.00000457    0.00001852   -0.00001780
     atom   26 type  2   force =    -0.00000253    0.00002275    0.00001262
     atom   27 type  1   force =    -0.00000711   -0.00002485    0.00001034
     atom   28 type  2   force =     0.00000394   -0.00000335    0.00000260
     atom   29 type  2   force =     0.00000961   -0.00001116    0.00001503
     atom   30 type  1   force =     0.00000773   -0.00003208    0.00002434
     atom   31 type  2   force =     0.00000190   -0.00001137    0.00000651
     atom   32 type  2   force =     0.00000510   -0.00001680    0.00000823
     atom   33 type  1   force =     0.00000549    0.00001993    0.00000522
     atom   34 type  2   force =     0.00001847   -0.00001038   -0.00000180
     atom   35 type  2   force =     0.00000569    0.00000409    0.00000578
     atom   36 type  3   force =     0.00003679    0.00009862    0.00004857

     Total force =     0.009299     Total SCF correction =     0.000227
     Energy error            =      9.7E-05 Ry
     Gradient error          =      4.9E-03 Ry/Bohr

     bfgs converged in  25 scf cycles and  24 bfgs steps
     (criteria: energy <  1.0E-04 Ry, force <  1.0E-02 Ry/Bohr)

     End of BFGS Geometry Optimization

     Final energy             =   -2246.4495894110 Ry

     File ./MoS2-V-O.bfgs deleted, as requested
Begin final coordinates

ATOMIC_POSITIONS (angstrom)
Mo            6.5458477918        1.7878526414        2.7166208799
S             8.1341827381        0.8718536217        4.2467659118
S             8.1502602220        0.8388086482        1.1654385672
Mo            8.1324062306        4.5019648565        2.7073880333
S             6.5237161280        3.6714505571        4.2956788486
S             6.5662814494        3.5959254787        1.0814432880
Mo            6.5178228267        7.1910141267        2.6810211242
S             8.0948290514        6.3046064282        4.3094022488
S             8.1511000576        6.3453116657        1.1280291092
Mo            8.1460327623        9.9160732180        2.7606684818
S             6.5237014084        8.9567277070        4.3317678036
S             6.5869303305        9.0216224669        1.1239439047
Mo            3.4323093345        1.7552970922        2.7325895894
S             5.0047622188        0.8385910649        4.3229660659
S             4.9930387686        0.8336076478        1.1364214240
Mo            5.0037137881        4.5483222640        2.6392968454
S             3.4783083268        3.6651513177        4.2896955015
S             3.4394668641        3.5734509397        1.0932887340
Mo            3.4861586156        7.1895456859        2.6836685746
S             5.0009686294        6.3337541581        1.0447808758
Mo            5.0028717704        9.9180201253        2.7255612974
S             3.4755470498        8.9681507430        4.3307439511
S             3.4031588059        9.0304112827        1.1367386117
Mo            0.2952088825        1.7765448291        2.7288515871
S             1.8561917115        0.8737648879        4.3474862728
S             1.8622337866        0.8333692100        1.1463291177
Mo            1.8759196316        4.5066064625        2.7038143496
S             0.2788511131        3.6117792880        4.3085277028
S             0.2776227013        3.5965203969        1.1213429314
Mo            0.2863965802        7.2259266237        2.7521767996
S             1.9254991025        6.3023086040        4.3152314239
S             1.8684503125        6.3429620660        1.1225377865
Mo            1.8549838449        9.9473449766        2.7697322688
S             0.2760691533        9.0374878967        4.3756293980
S             0.2867669776        9.0415568701        1.1700006468
O             8.1407469343        0.9415827839        5.7451676197
End final coordinates



     Writing all to output data dir ./MoS2-V-O.save/
 
     init_run     :      4.58s CPU      5.07s WALL (       1 calls)
     electrons    :   1994.61s CPU   2253.38s WALL (      25 calls)
     update_pot   :     73.30s CPU     78.01s WALL (      24 calls)
     forces       :     67.82s CPU     77.13s WALL (      25 calls)

     Called by init_run:
     wfcinit      :      0.48s CPU      0.53s WALL (       1 calls)
     potinit      :      2.38s CPU      2.60s WALL (       1 calls)
     hinit0       :      0.43s CPU      0.46s WALL (       1 calls)

     Called by electrons:
     c_bands      :    305.06s CPU    312.40s WALL (     215 calls)
     sum_band     :    120.52s CPU    154.25s WALL (     215 calls)
     v_of_rho     :    195.10s CPU    236.77s WALL (     224 calls)
     newd         :     66.72s CPU     97.85s WALL (     224 calls)
     PAW_pot      :      8.95s CPU      8.98s WALL (     248 calls)
     mix_rho      :   1323.26s CPU   1470.13s WALL (     215 calls)

     Called by c_bands:
     init_us_2    :      4.98s CPU      5.33s WALL (     455 calls)
     init_us_2:cp :      4.97s CPU      5.33s WALL (     455 calls)
     regterg      :    288.84s CPU    295.81s WALL (     215 calls)

     Called by *egterg:
     rdiaghg      :     20.02s CPU     20.23s WALL (    1109 calls)
     h_psi        :    187.98s CPU    189.59s WALL (    1150 calls)
     s_psi        :     17.79s CPU     17.85s WALL (    1150 calls)
     g_psi        :      0.91s CPU      0.92s WALL (     934 calls)

     Called by h_psi:
     h_psi:calbec :     20.12s CPU     20.22s WALL (    1150 calls)
     vloc_psi     :    148.02s CPU    149.40s WALL (    1150 calls)
     add_vuspsi   :     17.47s CPU     17.57s WALL (    1150 calls)

     General routines
     calbec       :     29.55s CPU     29.71s WALL (    1489 calls)
     fft          :    134.49s CPU    155.64s WALL (   15129 calls)
     ffts         :    589.89s CPU    731.75s WALL (  324713 calls)
     fftw         :     94.02s CPU     94.79s WALL (  130864 calls)
     interpolate  :      2.77s CPU      3.18s WALL (     224 calls)
 
     Parallel routines
 
     PWSCF        :  35m51.07s CPU  40m29.08s WALL

 
   This run was terminated on:  13:36:36   1Nov2023            

=------------------------------------------------------------------------------=
   JOB DONE.
=------------------------------------------------------------------------------=
