
     Program PWSCF v.7.2 starts on  1Nov2023 at 16:45:52 

     This program is part of the open-source Quantum ESPRESSO suite
     for quantum simulation of materials; please cite
         "P. Giannozzi et al., J. Phys.:Condens. Matter 21 395502 (2009);
         "P. Giannozzi et al., J. Phys.:Condens. Matter 29 465901 (2017);
         "P. Giannozzi et al., J. Chem. Phys. 152 154105 (2020);
          URL http://www.quantum-espresso.org", 
     in publications or presentations arising from this work. More details at
     http://www.quantum-espresso.org/quote

     Parallel version (MPI & OpenMP), running on      48 processor cores
     Number of MPI processes:                48
     Threads/MPI process:                     1

     MPI processes distributed on     1 nodes
     46003 MiB available memory on the printing compute node when the environment starts
 
     Waiting for input...
     Reading input from standard input
Warning: card &CELL ignored
Warning: card CELL_DYNAMICS = 'BFGS', ignored
Warning: card CELL_DOFREE = '2DXY' ignored
Warning: card / ignored

     Current dimensions of program PWSCF are:
     Max number of different atomic species (ntypx) = 10
     Max number of k-points (npk) =  40000
     Max angular momentum in pseudopotentials (lmaxx) =  4
     file O.pbe-n-kjpaw_psl.0.1.UPF: wavefunction(s)  2P renormalized

     IMPORTANT: XC functional enforced from input :
     Exchange-correlation= RVV10
                           (   1   4  13   4  26   0   0)
     Any further DFT definition will be discarded
     Please, verify this is what you really want


     gamma-point specific algorithms are used
     signal trapping enabled: kill the code with -SIGUSR1 to stop cleanly the simulation 
 
     R & G space division:  proc/nbgrp/npool/nimage =      48
     Subspace diagonalization in iterative solution of the eigenvalue problem:
     one sub-group per band group will be used
     scalapack distributed-memory algorithm (size of sub-group:  2*  2 procs)

 
     Parallelization info
     --------------------
     sticks:   dense  smooth     PW     G-vecs:    dense   smooth      PW
     Min         396     194     47               101632    35090    4376
     Max         398     196     50               101674    35128    4410
     Sum       19091    9389   2349              4879585  1685513  210763
 
     Using Slab Decomposition
 


     bravais-lattice index     =            0
     lattice parameter (alat)  =      17.8707  a.u.
     unit-cell volume          =   17436.2743 (a.u.)^3
     number of atoms/cell      =           36
     number of atomic types    =            3
     number of electrons       =       312.00
     number of Kohn-Sham states=          187
     kinetic-energy cutoff     =      80.0000  Ry
     charge density cutoff     =     650.0000  Ry
     scf convergence threshold =      1.0E-06
     mixing beta               =       0.7000
     number of iterations used =            8  local-TF  mixing
     energy convergence thresh.=      1.0E-04
     force convergence thresh. =      1.0E-02
     Exchange-correlation= RVV10
                           (   1   4  13   4  26   0   0)
     nstep                     =          200


     celldm(1)=  17.870686  celldm(2)=   0.000000  celldm(3)=   0.000000
     celldm(4)=   0.000000  celldm(5)=   0.000000  celldm(6)=   0.000000

     crystal axes: (cart. coord. in units of alat)
               a(1) = (   1.000000   0.000000   0.000000 )  
               a(2) = (   0.000000   1.155671   0.000000 )  
               a(3) = (   0.000000   0.000000   2.643601 )  

     reciprocal axes: (cart. coord. in units 2 pi/alat)
               b(1) = (  1.000000  0.000000  0.000000 )  
               b(2) = (  0.000000  0.865298  0.000000 )  
               b(3) = (  0.000000  0.000000  0.378272 )  


     PseudoPot. # 1 for Mo read from file:
     ../pseudo/Mo_ONCV_PBE-1.0.oncvpsp.upf
     MD5 check sum: 1b5d28e075c9ccadda658a603575cd1f
     Pseudo is Norm-conserving, Zval = 14.0
     Generated using ONCVPSP code by D. R. Hamann
     Using radial grid of 1526 points,  6 beta functions with: 
                l(1) =   0
                l(2) =   0
                l(3) =   1
                l(4) =   1
                l(5) =   2
                l(6) =   2

     PseudoPot. # 2 for S  read from file:
     ../pseudo/s_pbe_v1.4.uspp.F.UPF
     MD5 check sum: 88d86576ff6df21479756cfb9bdac1df
     Pseudo is Ultrasoft + core correction, Zval =  6.0
     Generated by new atomic code, or converted to UPF format
     Using radial grid of  907 points,  6 beta functions with: 
                l(1) =   0
                l(2) =   0
                l(3) =   1
                l(4) =   1
                l(5) =   2
                l(6) =   2
     Q(r) pseudized with  8 coefficients,  rinner =    1.300   1.300   1.300
                                                       1.300   1.300

     PseudoPot. # 3 for O  read from file:
     ../pseudo/O.pbe-n-kjpaw_psl.0.1.UPF
     MD5 check sum: 0234752ac141de4415c5fc33072bef88
     Pseudo is Projector augmented-wave + core cor, Zval =  6.0
     Generated using "atomic" code by A. Dal Corso  v.5.0.99 svn rev. 10869
     Shape of augmentation charge: BESSEL
     Using radial grid of 1095 points,  4 beta functions with: 
                l(1) =   0
                l(2) =   0
                l(3) =   1
                l(4) =   1
     Q(r) pseudized with 0 coefficients 


     atomic species   valence    mass     pseudopotential
        Mo            14.00    95.94000     Mo( 1.00)
        S              6.00    32.06500     S ( 1.00)
        O              6.00    15.99940     O ( 1.00)

     No symmetry found



   Cartesian axes

     site n.     atom                  positions (alat units)
         1           Mo  tau(   1) = (   0.6952221   0.1890506   0.2985846  )
         2           S   tau(   2) = (   0.8646417   0.0856217   0.4689279  )
         3           S   tau(   3) = (   0.8663890   0.0857843   0.1351291  )
         4           Mo  tau(   4) = (   0.8560186   0.4753274   0.2873942  )
         5           S   tau(   5) = (   0.6873294   0.3936244   0.4596353  )
         6           S   tau(   6) = (   0.6929804   0.3713468   0.1185692  )
         7           Mo  tau(   7) = (   0.6862796   0.7633098   0.2825370  )
         8           S   tau(   8) = (   0.8545980   0.6708292   0.4486168  )
         9           S   tau(   9) = (   0.8545123   0.6666874   0.1146125  )
        10           Mo  tau(  10) = (   0.8629403   1.0471007   0.3006803  )
        11           S   tau(  11) = (   0.6868280   0.9456650   0.4634891  )
        12           S   tau(  12) = (   0.6998113   0.9568511   0.1205389  )
        13           Mo  tau(  13) = (   0.3618216   0.1847309   0.2935964  )
        14           S   tau(  14) = (   0.5260962   0.0863870   0.4600448  )
        15           S   tau(  15) = (   0.5348379   0.0894875   0.1297123  )
        16           Mo  tau(  16) = (   0.5265817   0.4772436   0.2784130  )
        17           S   tau(  17) = (   0.3624753   0.3882513   0.4525556  )
        18           S   tau(  18) = (   0.3635411   0.3752055   0.1119148  )
        19           Mo  tau(  19) = (   0.3652268   0.7630864   0.2781795  )
        20           S   tau(  20) = (   0.5269494   0.6690381   0.1096838  )
        21           Mo  tau(  21) = (   0.5300192   1.0470394   0.2900995  )
        22           S   tau(  22) = (   0.3670346   0.9457522   0.4574073  )
        23           S   tau(  23) = (   0.3604225   0.9585725   0.1159032  )
        24           Mo  tau(  24) = (   0.0313099   0.1847895   0.3013130  )
        25           S   tau(  25) = (   0.1956761   0.0838230   0.4650863  )
        26           S   tau(  26) = (   0.1967693   0.0903508   0.1278874  )
        27           Mo  tau(  27) = (   0.1967578   0.4753919   0.2813011  )
        28           S   tau(  28) = (   0.0287851   0.3864324   0.4586755  )
        29           S   tau(  29) = (   0.0244514   0.3729871   0.1239344  )
        30           Mo  tau(  30) = (   0.0286728   0.7631204   0.2856894  )
        31           S   tau(  31) = (   0.2011512   0.6675435   0.4465001  )
        32           S   tau(  32) = (   0.1969214   0.6672839   0.1104564  )
        33           Mo  tau(  33) = (   0.1950294   1.0511147   0.2932237  )
        34           S   tau(  34) = (   0.0312912   0.9612169   0.4667423  )
        35           S   tau(  35) = (   0.0292670   0.9563028   0.1216485  )
        36           O   tau(  36) = (   0.6666667   0.5136314   0.5407634  )

     number of k points=     1  Gaussian smearing, width (Ry)=  0.0100
                       cart. coord. in units 2pi/alat
        k(    1) = (   0.0000000   0.0000000   0.0000000), wk =   2.0000000

     Dense  grid:  2439793 G-vectors     FFT dimensions: ( 150, 180, 384)

     Smooth grid:   842757 G-vectors     FFT dimensions: ( 108, 120, 270)

     Estimated max dynamical RAM per process >     269.22 MB

     Estimated total dynamical RAM >      12.62 GB

     Initial potential from superposition of free atoms

     starting charge     311.9873, renormalised to     312.0000

     negative rho (up, down):  2.725E-04 0.000E+00


---------------------------------------------------------------------------------
Carrying out rVV10 run using the following parameters:
Nqs =      20    Nr_points =    1024   r_max =   100.000
b_value =  6.30000    beta =  0.00901
     q_mesh =  0.00010000  0.00030000  0.00058939  0.00100810
               0.00161396  0.00249058  0.00375900  0.00559430
               0.00824984  0.01209221  0.01765183  0.02569619
               0.03733578  0.05417739  0.07854596  0.11380545
               0.16482331  0.23864234  0.34545298  0.50000000

Gradients computed in Reciprocal space

---------------------------------------------------------------------------------


     Starting wfcs are  216 randomized atomic wfcs
     Checking if some PAW data can be deallocated... 

     total cpu time spent up to now is        5.3 secs

     Self-consistent Calculation

     iteration #  1     ecut=    80.00 Ry     beta= 0.70
     Davidson diagonalization with overlap
     ethr =  1.00E-02,  avg # of iterations =  2.0

     Threshold (ethr) on eigenvalues was too large:
     Diagonalizing with lowered threshold

     Davidson diagonalization with overlap
     ethr =  4.66E-04,  avg # of iterations =  4.0

     negative rho (up, down):  3.411E-08 0.000E+00

     total cpu time spent up to now is       24.0 secs

     total energy              =   -2246.22981955 Ry
     estimated scf accuracy    <       1.69906377 Ry

     iteration #  2     ecut=    80.00 Ry     beta= 0.70
     Davidson diagonalization with overlap
     ethr =  5.45E-04,  avg # of iterations =  3.0

     total cpu time spent up to now is       28.7 secs

     total energy              =   -2246.21796860 Ry
     estimated scf accuracy    <       0.59276177 Ry

     iteration #  3     ecut=    80.00 Ry     beta= 0.70
     Davidson diagonalization with overlap
     ethr =  1.90E-04,  avg # of iterations =  2.0

     total cpu time spent up to now is       32.7 secs

     total energy              =   -2246.23052247 Ry
     estimated scf accuracy    <       0.12685495 Ry

     iteration #  4     ecut=    80.00 Ry     beta= 0.70
     Davidson diagonalization with overlap
     ethr =  4.07E-05,  avg # of iterations = 16.0

     total cpu time spent up to now is       37.5 secs

     total energy              =   -2246.25143975 Ry
     estimated scf accuracy    <       0.02650891 Ry

     iteration #  5     ecut=    80.00 Ry     beta= 0.70
     Davidson diagonalization with overlap
     ethr =  8.50E-06,  avg # of iterations =  2.0

     total cpu time spent up to now is       41.2 secs

     total energy              =   -2246.25083382 Ry
     estimated scf accuracy    <       0.01651773 Ry

     iteration #  6     ecut=    80.00 Ry     beta= 0.70
     Davidson diagonalization with overlap
     ethr =  5.29E-06,  avg # of iterations =  2.0

     total cpu time spent up to now is       44.8 secs

     total energy              =   -2246.24974948 Ry
     estimated scf accuracy    <       0.01048924 Ry

     iteration #  7     ecut=    80.00 Ry     beta= 0.70
     Davidson diagonalization with overlap
     ethr =  3.36E-06,  avg # of iterations =  8.0

     total cpu time spent up to now is       49.9 secs

     total energy              =   -2246.24901109 Ry
     estimated scf accuracy    <       0.00589224 Ry

     iteration #  8     ecut=    80.00 Ry     beta= 0.70
     Davidson diagonalization with overlap
     ethr =  1.89E-06,  avg # of iterations =  2.0

     negative rho (up, down):  1.238E-02 0.000E+00

     total cpu time spent up to now is       56.0 secs

     total energy              =   -2246.24795447 Ry
     estimated scf accuracy    <       0.00369489 Ry

     iteration #  9     ecut=    80.00 Ry     beta= 0.70
     Davidson diagonalization with overlap
     ethr =  1.18E-06,  avg # of iterations =  2.0

     negative rho (up, down):  2.834E-02 0.000E+00

     total cpu time spent up to now is       61.9 secs

     total energy              =   -2246.24780140 Ry
     estimated scf accuracy    <       0.00197733 Ry

     iteration # 10     ecut=    80.00 Ry     beta= 0.70
     Davidson diagonalization with overlap
     ethr =  6.34E-07,  avg # of iterations =  2.0

     negative rho (up, down):  2.517E-02 0.000E+00

     total cpu time spent up to now is       68.2 secs

     total energy              =   -2246.24780761 Ry
     estimated scf accuracy    <       0.00079309 Ry

     iteration # 11     ecut=    80.00 Ry     beta= 0.70
     Davidson diagonalization with overlap
     ethr =  2.54E-07,  avg # of iterations =  2.0

     negative rho (up, down):  1.254E-02 0.000E+00

     total cpu time spent up to now is       75.6 secs

     total energy              =   -2246.24776215 Ry
     estimated scf accuracy    <       0.00012691 Ry

     iteration # 12     ecut=    80.00 Ry     beta= 0.70
     Davidson diagonalization with overlap
     ethr =  4.07E-08,  avg # of iterations =  9.0

     negative rho (up, down):  2.905E-03 0.000E+00

     total cpu time spent up to now is       85.6 secs

     total energy              =   -2246.24781160 Ry
     estimated scf accuracy    <       0.00002841 Ry

     iteration # 13     ecut=    80.00 Ry     beta= 0.70
     Davidson diagonalization with overlap
     ethr =  9.11E-09,  avg # of iterations =  4.0

     negative rho (up, down):  9.322E-04 0.000E+00

     total cpu time spent up to now is       99.5 secs

     total energy              =   -2246.24782461 Ry
     estimated scf accuracy    <       0.00000576 Ry

     iteration # 14     ecut=    80.00 Ry     beta= 0.70
     Davidson diagonalization with overlap
     ethr =  1.85E-09,  avg # of iterations =  4.0

     negative rho (up, down):  2.105E-04 0.000E+00

     total cpu time spent up to now is      103.0 secs

     End of self-consistent calculation

          k = 0.0000 0.0000 0.0000 (105382 PWs)   bands (ev):

   -63.0943 -62.9197 -62.9161 -62.8864 -62.8704 -62.8675 -62.8176 -62.7890
   -62.7509 -62.7509 -62.7190 -62.6755 -37.3880 -37.2665 -37.2418 -37.2144
   -37.1748 -37.1620 -37.1548 -37.1282 -37.1151 -37.1026 -37.0858 -37.0686
   -37.0683 -37.0573 -37.0464 -37.0427 -37.0225 -37.0144 -37.0046 -36.9903
   -36.9737 -36.9521 -36.9472 -36.9367 -36.9151 -36.9108 -36.8998 -36.8859
   -36.8804 -36.8680 -36.8561 -36.8298 -36.8238 -36.7904 -36.7420 -36.6427
   -24.5529 -15.9732 -15.1723 -15.1495 -14.9656 -14.9488 -14.7877 -14.5361
   -14.4904 -14.4705 -14.4100 -14.3745 -14.3560 -14.3286 -14.2654 -14.1495
   -14.1304 -14.1271 -14.0662 -13.9288 -13.8622 -13.8591 -13.8198 -13.5021
    -8.6872  -8.4833  -8.0290  -7.6100  -7.4413  -7.3059  -7.2708  -7.2182
    -7.1997  -7.0792  -7.0608  -6.8182  -6.7862  -6.7273  -6.6552  -6.5987
    -6.4989  -6.4396  -6.3678  -6.3113  -6.1846  -6.1144  -5.9477  -5.9333
    -5.8314  -5.8047  -5.7681  -5.7361  -5.6828  -5.6654  -5.6286  -5.6083
    -5.5283  -5.4507  -5.4472  -5.3502  -5.2212  -5.2033  -5.0984  -5.0172
    -5.0008  -4.9774  -4.9047  -4.8568  -4.6892  -4.6406  -4.4656  -4.3518
    -4.2611  -4.2434  -4.1879  -4.1156  -4.0162  -3.9702  -3.9139  -3.8295
    -3.7494  -3.7008  -3.6518  -3.6091  -3.5781  -3.5254  -3.5061  -3.4878
    -3.4204  -3.3908  -3.3336  -3.2223  -3.1706  -2.9772  -2.8888  -2.8557
    -2.8037  -2.7666  -2.7138  -2.6852  -2.6621  -2.6285  -2.5198  -2.4302
    -2.2397  -2.0296  -1.9527  -1.6330  -1.0891  -0.7616  -0.5213  -0.2220
    -0.1408  -0.0967  -0.0677   0.0301   0.1230   0.1537   0.2287   0.2407
     0.2666   0.3985   0.4268   0.5079   0.5311   0.5384   0.5762   0.6093
     0.6834   0.7192   0.7312   0.7832   0.8143   0.8391   0.8590   0.9286
     0.9813   1.0511   1.2272

     the Fermi energy is    -1.3611 ev

!    total energy              =   -2246.24782578 Ry
     estimated scf accuracy    <       0.00000099 Ry
     smearing contrib. (-TS)   =      -0.00020765 Ry
     internal energy E=F+TS    =   -2246.24761813 Ry

     The total energy is F=E-TS. E is the sum of the following terms:
     one-electron contribution =  -18487.20132861 Ry
     hartree contribution      =    9232.02929580 Ry
     xc contribution           =    -392.31155896 Ry
     ewald contribution        =    7411.08529658 Ry
     one-center paw contrib.   =      -9.84932295 Ry

     convergence has been achieved in  14 iterations

     negative rho (up, down):  2.105E-04 0.000E+00

     Forces acting on atoms (cartesian axes, Ry/au):

     atom    1 type  1   force =    -0.00768837   -0.05405320    0.01690819
     atom    2 type  2   force =    -0.01254892    0.01155819   -0.00373022
     atom    3 type  2   force =    -0.01294713    0.00940134   -0.00663947
     atom    4 type  1   force =     0.02029150   -0.01779457   -0.03280697
     atom    5 type  2   force =     0.07086582   -0.20996307   -0.24753243
     atom    6 type  2   force =     0.00310299    0.01112821   -0.00186155
     atom    7 type  1   force =     0.00358067   -0.00875294   -0.00964362
     atom    8 type  2   force =     0.01355426    0.00678040    0.00721763
     atom    9 type  2   force =     0.00963865    0.00713967    0.00828016
     atom   10 type  1   force =    -0.00938370    0.00858733   -0.02277914
     atom   11 type  2   force =     0.00344095   -0.00211940   -0.00713825
     atom   12 type  2   force =    -0.00171338    0.00224027    0.00579066
     atom   13 type  1   force =     0.01401537    0.00576207   -0.00964505
     atom   14 type  2   force =     0.00775342   -0.00516635    0.00964016
     atom   15 type  2   force =    -0.00595938    0.00560797   -0.01163962
     atom   16 type  1   force =    -0.00403894   -0.01595389   -0.01408936
     atom   17 type  2   force =     0.00974745   -0.00048377    0.00612534
     atom   18 type  2   force =     0.00105316    0.00046573    0.01706957
     atom   19 type  1   force =     0.00632889   -0.00614640   -0.01455558
     atom   20 type  2   force =     0.00399449   -0.00096300    0.00248546
     atom   21 type  1   force =    -0.00564199    0.00454235    0.00247795
     atom   22 type  2   force =    -0.00187506   -0.00475549   -0.00318031
     atom   23 type  2   force =    -0.00063307    0.00282962    0.01280287
     atom   24 type  1   force =    -0.01132889    0.00296542   -0.02096870
     atom   25 type  2   force =     0.01614258    0.01822821    0.00789360
     atom   26 type  2   force =    -0.01165081   -0.00141993   -0.00284301
     atom   27 type  1   force =    -0.00484324    0.00064917   -0.00041255
     atom   28 type  2   force =    -0.00021265   -0.00186209   -0.00278829
     atom   29 type  2   force =     0.00543747   -0.00099386   -0.00104746
     atom   30 type  1   force =    -0.00248600    0.01349189   -0.00780207
     atom   31 type  2   force =     0.00108541    0.00013883    0.01806260
     atom   32 type  2   force =    -0.01139026    0.00523062    0.00949841
     atom   33 type  1   force =     0.01416001   -0.00303333   -0.01192590
     atom   34 type  2   force =     0.00291893   -0.04422175   -0.00984889
     atom   35 type  2   force =    -0.00898182    0.00704422    0.01596041
     atom   36 type  3   force =    -0.09378844    0.25389155    0.30266543
     The non-local contrib.  to forces
     atom    1 type  1   force =     0.00629212    0.02515516   -0.03013440
     atom    2 type  2   force =    -0.00872153    0.00143931   -0.26832186
     atom    3 type  2   force =    -0.01838026   -0.00130969    0.27286163
     atom    4 type  1   force =    -0.02666094   -0.01261875    0.03438864
     atom    5 type  2   force =    -0.03929014    0.10493796   -0.00630955
     atom    6 type  2   force =    -0.00296515    0.01051338    0.26170478
     atom    7 type  1   force =    -0.02064317    0.00376877   -0.02007324
     atom    8 type  2   force =     0.01175152    0.01715434   -0.25013033
     atom    9 type  2   force =     0.00647774   -0.01016457    0.27726274
     atom   10 type  1   force =     0.00870847   -0.00633537   -0.00301210
     atom   11 type  2   force =     0.01457759    0.00323559   -0.26253126
     atom   12 type  2   force =    -0.01158569   -0.01699947    0.26394758
     atom   13 type  1   force =    -0.00632771    0.02067103   -0.01057969
     atom   14 type  2   force =     0.00990416   -0.01227140   -0.26131600
     atom   15 type  2   force =    -0.00051260   -0.00449533    0.26630081
     atom   16 type  1   force =     0.04607598    0.02483886   -0.01851199
     atom   17 type  2   force =     0.00352830   -0.02454908   -0.24160322
     atom   18 type  2   force =     0.00595919   -0.00099248    0.27685525
     atom   19 type  1   force =     0.02882893   -0.00486939    0.00038976
     atom   20 type  2   force =     0.00412904   -0.01907120    0.26221558
     atom   21 type  1   force =    -0.00452255    0.01410436    0.00291349
     atom   22 type  2   force =    -0.00473231    0.00442553   -0.26414885
     atom   23 type  2   force =     0.00544512   -0.01279240    0.26441253
     atom   24 type  1   force =     0.00808141    0.00755580   -0.01060922
     atom   25 type  2   force =     0.00784579    0.01186997   -0.25675635
     atom   26 type  2   force =    -0.00274230   -0.01047638    0.26341530
     atom   27 type  1   force =    -0.00658859    0.01704828    0.01670816
     atom   28 type  2   force =    -0.01692919   -0.01730979   -0.27398417
     atom   29 type  2   force =     0.01011779   -0.00107065    0.25966296
     atom   30 type  1   force =    -0.00023750    0.00868792    0.01068713
     atom   31 type  2   force =    -0.00789919   -0.00117533   -0.25684942
     atom   32 type  2   force =    -0.00275145   -0.01261021    0.27368254
     atom   33 type  1   force =    -0.00613628    0.00245996    0.00689991
     atom   34 type  2   force =    -0.00302068   -0.03632301   -0.27573223
     atom   35 type  2   force =    -0.00423390   -0.00722606    0.26867437
     atom   36 type  3   force =     0.23394782   -1.98329987   -1.12540796
     The ionic contribution  to forces
     atom    1 type  1   force =     0.56887643   -1.83232258    3.54706417
     atom    2 type  2   force =    -0.36163186   -0.16762109   39.09599594
     atom    3 type  2   force =    -0.06260375   -0.16962740  -36.66470275
     atom    4 type  1   force =     2.75314700   -0.00167995   -3.68659020
     atom    5 type  2   force =     0.49944651   -7.06692416   32.89271357
     atom    6 type  2   force =     0.39483627   -0.79669805  -39.22226422
     atom    7 type  1   force =    -2.42790081   -0.29937892   -0.57831041
     atom    8 type  2   force =     1.18498941    1.92682915   36.19971839
     atom    9 type  2   force =     0.57588301    0.19774425  -38.96775293
     atom   10 type  1   force =    -0.77976709   -0.05533928    4.68262915
     atom   11 type  2   force =    -0.51867573   -0.82981645   38.89567259
     atom   12 type  2   force =     0.46277483    0.88383453  -38.46794644
     atom   13 type  1   force =    -0.19535702    0.02429627    1.54769392
     atom   14 type  2   force =    -0.19918997   -0.67723296   38.28606031
     atom   15 type  2   force =     0.07854661   -0.27053661  -37.41686669
     atom   16 type  1   force =    -2.46277482    3.27895822   -4.86749151
     atom   17 type  2   force =    -0.56749761    0.81889524   37.38412870
     atom   18 type  2   force =    -0.37663825   -0.80133776  -39.35697807
     atom   19 type  1   force =     1.78567815   -1.39856335   -1.00678713
     atom   20 type  2   force =     0.03389294    0.05739841  -39.50210599
     atom   21 type  1   force =    -0.21365345    0.33485790    0.10519206
     atom   22 type  2   force =     0.19497542   -1.32965848   38.25673380
     atom   23 type  2   force =    -0.16968200    0.78912380  -38.81056155
     atom   24 type  1   force =    -0.02850494    0.32939501    4.69376124
     atom   25 type  2   force =     0.61080037    0.02748173   39.14198796
     atom   26 type  2   force =    -0.30697523   -0.05107600  -37.82053747
     atom   27 type  1   force =    -0.23971521    0.25262901   -3.78438210
     atom   28 type  2   force =     0.94558454    0.54439751   37.84595179
     atom   29 type  2   force =    -0.08354864   -0.57186245  -37.99593724
     atom   30 type  1   force =     0.36996248   -0.04487911   -1.44650916
     atom   31 type  2   force =     1.04042241    0.28113605   37.04742288
     atom   32 type  2   force =    -0.51840224    0.11488330  -39.27757755
     atom   33 type  1   force =     0.73878061   -0.72537857    1.25116659
     atom   34 type  2   force =     0.42341524   -1.15894635   39.22154189
     atom   35 type  2   force =    -0.23210127    0.59311343  -38.31640680
     atom   36 type  3   force =    -2.91739231    7.79390570   47.09427325
     The local contribution  to forces
     atom    1 type  1   force =    -0.58303766    1.75339794   -3.50070929
     atom    2 type  2   force =     0.35749298    0.17804108  -38.85265872
     atom    3 type  2   force =     0.06708834    0.18047337   36.40640465
     atom    4 type  1   force =    -2.70615198   -0.00260880    3.61878589
     atom    5 type  2   force =    -0.39095922    6.75628220  -33.14245463
     atom    6 type  2   force =    -0.38921072    0.79861468   38.97968318
     atom    7 type  1   force =     2.45247767    0.28639258    0.58820749
     atom    8 type  2   force =    -1.18235148   -1.93661327  -35.96343769
     atom    9 type  2   force =    -0.57263800   -0.18104587   38.72003748
     atom   10 type  1   force =     0.76168246    0.06970451   -4.70294062
     atom   11 type  2   force =     0.50820647    0.82468551  -38.66161715
     atom   12 type  2   force =    -0.45404341   -0.86618357   38.23085444
     atom   13 type  1   force =     0.21580457   -0.03866261   -1.54730426
     atom   14 type  2   force =     0.19769414    0.68444254  -38.03627838
     atom   15 type  2   force =    -0.08401323    0.28047641   37.15996645
     atom   16 type  1   force =     2.41246875   -3.31953481    4.87134890
     atom   17 type  2   force =     0.57418152   -0.79592028  -37.15691433
     atom   18 type  2   force =     0.37228155    0.80372712   39.11861889
     atom   19 type  1   force =    -1.80837596    1.39702966    0.99107703
     atom   20 type  2   force =    -0.03399001   -0.04008444   39.26351746
     atom   21 type  1   force =     0.21243326   -0.34500176   -0.10609896
     atom   22 type  2   force =    -0.19213920    1.32084047  -38.01719795
     atom   23 type  2   force =     0.16407089   -0.77490881   38.57986467
     atom   24 type  1   force =     0.00904980   -0.33356697   -4.70465387
     atom   25 type  2   force =    -0.60249081   -0.02029329  -38.89849760
     atom   26 type  2   force =     0.29827983    0.05963116   37.57534181
     atom   27 type  1   force =     0.24154973   -0.26846580    3.76686054
     atom   28 type  2   force =    -0.92988852   -0.53022614  -37.59623330
     atom   29 type  2   force =     0.07963871    0.57263978   37.75582156
     atom   30 type  1   force =    -0.37230476    0.04921775    1.42741443
     atom   31 type  2   force =    -1.03195619   -0.28009530  -36.79385921
     atom   32 type  2   force =     0.50989107   -0.09780266   39.03461654
     atom   33 type  1   force =    -0.71836142    0.71922985   -1.27066744
     atom   34 type  2   force =    -0.41800106    1.14968174  -38.97751430
     atom   35 type  2   force =     0.22737702   -0.57990668   38.08487873
     atom   36 type  3   force =     2.59145056   -5.57571442  -45.67656197
     The core correction contribution to forces
     atom    1 type  1   force =     0.00000000    0.00000000    0.00000000
     atom    2 type  2   force =     0.00030047   -0.00024716    0.02064599
     atom    3 type  2   force =     0.00089919   -0.00007594   -0.02102250
     atom    4 type  1   force =     0.00000000    0.00000000    0.00000000
     atom    5 type  2   force =     0.00161985   -0.00401632    0.00828333
     atom    6 type  2   force =     0.00036950   -0.00098164   -0.02080571
     atom    7 type  1   force =     0.00000000    0.00000000    0.00000000
     atom    8 type  2   force =    -0.00091385   -0.00070151    0.02048863
     atom    9 type  2   force =    -0.00007889    0.00053262   -0.02098995
     atom   10 type  1   force =     0.00000000    0.00000000    0.00000000
     atom   11 type  2   force =    -0.00067560   -0.00053745    0.02080265
     atom   12 type  2   force =     0.00111864    0.00128761   -0.02091322
     atom   13 type  1   force =     0.00000000    0.00000000    0.00000000
     atom   14 type  2   force =    -0.00063462   -0.00000487    0.02055111
     atom   15 type  2   force =     0.00004727    0.00023544   -0.02083390
     atom   16 type  1   force =     0.00000000    0.00000000    0.00000000
     atom   17 type  2   force =    -0.00034167    0.00141367    0.01985902
     atom   18 type  2   force =    -0.00045176   -0.00059917   -0.02118078
     atom   19 type  1   force =     0.00000000    0.00000000    0.00000000
     atom   20 type  2   force =    -0.00007972    0.00070083   -0.02099327
     atom   21 type  1   force =     0.00000000    0.00000000    0.00000000
     atom   22 type  2   force =     0.00005877   -0.00061698    0.02080249
     atom   23 type  2   force =    -0.00049974    0.00108374   -0.02071518
     atom   24 type  1   force =     0.00000000    0.00000000    0.00000000
     atom   25 type  2   force =    -0.00002771   -0.00079526    0.02053342
     atom   26 type  2   force =    -0.00017189    0.00051835   -0.02086436
     atom   27 type  1   force =     0.00000000    0.00000000    0.00000000
     atom   28 type  2   force =     0.00098418    0.00156737    0.02086117
     atom   29 type  2   force =    -0.00080846   -0.00036468   -0.02037709
     atom   30 type  1   force =     0.00000000    0.00000000    0.00000000
     atom   31 type  2   force =     0.00049867    0.00020004    0.02068475
     atom   32 type  2   force =    -0.00010982    0.00077747   -0.02100677
     atom   33 type  1   force =     0.00000000    0.00000000    0.00000000
     atom   34 type  2   force =     0.00049135    0.00108400    0.02125077
     atom   35 type  2   force =     0.00002935    0.00072664   -0.02098412
     atom   36 type  3   force =    -0.00183400    0.01917195    0.00995679
     The Hubbard contrib.    to forces
     atom    1 type  1   force =     0.00000000    0.00000000    0.00000000
     atom    2 type  2   force =     0.00000000    0.00000000    0.00000000
     atom    3 type  2   force =     0.00000000    0.00000000    0.00000000
     atom    4 type  1   force =     0.00000000    0.00000000    0.00000000
     atom    5 type  2   force =     0.00000000    0.00000000    0.00000000
     atom    6 type  2   force =     0.00000000    0.00000000    0.00000000
     atom    7 type  1   force =     0.00000000    0.00000000    0.00000000
     atom    8 type  2   force =     0.00000000    0.00000000    0.00000000
     atom    9 type  2   force =     0.00000000    0.00000000    0.00000000
     atom   10 type  1   force =     0.00000000    0.00000000    0.00000000
     atom   11 type  2   force =     0.00000000    0.00000000    0.00000000
     atom   12 type  2   force =     0.00000000    0.00000000    0.00000000
     atom   13 type  1   force =     0.00000000    0.00000000    0.00000000
     atom   14 type  2   force =     0.00000000    0.00000000    0.00000000
     atom   15 type  2   force =     0.00000000    0.00000000    0.00000000
     atom   16 type  1   force =     0.00000000    0.00000000    0.00000000
     atom   17 type  2   force =     0.00000000    0.00000000    0.00000000
     atom   18 type  2   force =     0.00000000    0.00000000    0.00000000
     atom   19 type  1   force =     0.00000000    0.00000000    0.00000000
     atom   20 type  2   force =     0.00000000    0.00000000    0.00000000
     atom   21 type  1   force =     0.00000000    0.00000000    0.00000000
     atom   22 type  2   force =     0.00000000    0.00000000    0.00000000
     atom   23 type  2   force =     0.00000000    0.00000000    0.00000000
     atom   24 type  1   force =     0.00000000    0.00000000    0.00000000
     atom   25 type  2   force =     0.00000000    0.00000000    0.00000000
     atom   26 type  2   force =     0.00000000    0.00000000    0.00000000
     atom   27 type  1   force =     0.00000000    0.00000000    0.00000000
     atom   28 type  2   force =     0.00000000    0.00000000    0.00000000
     atom   29 type  2   force =     0.00000000    0.00000000    0.00000000
     atom   30 type  1   force =     0.00000000    0.00000000    0.00000000
     atom   31 type  2   force =     0.00000000    0.00000000    0.00000000
     atom   32 type  2   force =     0.00000000    0.00000000    0.00000000
     atom   33 type  1   force =     0.00000000    0.00000000    0.00000000
     atom   34 type  2   force =     0.00000000    0.00000000    0.00000000
     atom   35 type  2   force =     0.00000000    0.00000000    0.00000000
     atom   36 type  3   force =     0.00000000    0.00000000    0.00000000
     The SCF correction term to forces
     atom    1 type  1   force =     0.00017934   -0.00028288    0.00068048
     atom    2 type  2   force =     0.00000962   -0.00005311    0.00060119
     atom    3 type  2   force =     0.00004794   -0.00005816   -0.00018774
     atom    4 type  1   force =    -0.00004398   -0.00088624    0.00060147
     atom    5 type  2   force =     0.00004741   -0.00024191    0.00022760
     atom    6 type  2   force =     0.00007169   -0.00031932   -0.00018681
     atom    7 type  1   force =    -0.00035443    0.00046547    0.00052529
     atom    8 type  2   force =     0.00007725    0.00011253    0.00057138
     atom    9 type  2   force =    -0.00000662    0.00007407   -0.00028442
     atom   10 type  1   force =    -0.00000894    0.00055829    0.00053718
     atom   11 type  2   force =     0.00000682    0.00031423    0.00052768
     atom   12 type  2   force =     0.00002085    0.00030202   -0.00015895
     atom   13 type  1   force =    -0.00010587   -0.00054178    0.00053775
     atom   14 type  2   force =    -0.00002169   -0.00009883    0.00061588
     atom   15 type  2   force =    -0.00002883   -0.00007111   -0.00021353
     atom   16 type  1   force =     0.00018975   -0.00021532    0.00055800
     atom   17 type  2   force =    -0.00012450   -0.00032247    0.00064793
     atom   18 type  2   force =    -0.00009897   -0.00033114   -0.00025295
     atom   19 type  1   force =     0.00019637    0.00025751    0.00075752
     atom   20 type  2   force =     0.00004083    0.00009424   -0.00015557
     atom   21 type  1   force =     0.00009935    0.00058270    0.00046412
     atom   22 type  2   force =    -0.00003915    0.00025480    0.00062295
     atom   23 type  2   force =     0.00003125    0.00032413   -0.00020484
     atom   24 type  1   force =     0.00004344   -0.00041759    0.00052591
     atom   25 type  2   force =     0.00001354   -0.00003410    0.00061892
     atom   26 type  2   force =    -0.00004262   -0.00001623   -0.00020554
     atom   27 type  1   force =    -0.00009057   -0.00056149    0.00039361
     atom   28 type  2   force =     0.00003495   -0.00029020    0.00060898
     atom   29 type  2   force =     0.00003666   -0.00033502   -0.00022490
     atom   30 type  1   force =     0.00009237    0.00046616    0.00059828
     atom   31 type  2   force =     0.00001831    0.00007421    0.00065636
     atom   32 type  2   force =    -0.00001923   -0.00001644   -0.00022360
     atom   33 type  1   force =    -0.00012431    0.00065627    0.00066780
     atom   34 type  2   force =     0.00003267    0.00028270    0.00059774
     atom   35 type  2   force =    -0.00005443    0.00033773   -0.00020901
     atom   36 type  3   force =     0.00003810   -0.00017097    0.00039808

     Total force =     0.538301     Total SCF correction =     0.003646

     BFGS Geometry Optimization
     Energy error            =      0.0E+00 Ry
     Gradient error          =      3.0E-01 Ry/Bohr

     number of scf cycles    =   1
     number of bfgs steps    =   0

     energy             new  =   -2246.2478257780 Ry

     new trust radius        =       0.4060339316 bohr
     new conv_thr            =       0.0000010000 Ry


ATOMIC_POSITIONS (angstrom)
Mo            6.5704799000        1.7592025085        2.8325904622
S             8.1700687366        0.8158203571        4.4325644078
S             8.1863817583        0.8162167219        1.2743699716
Mo            8.1059003660        4.4856404616        2.7004576949
S             6.5374098340        3.6113038140        4.2156721289
S             6.5549918284        3.5176263502        1.1202951407
Mo            6.4918765029        7.2138054259        2.6667812989
S             8.0889003315        6.3474590278        4.2462809667
S             8.0860181995        6.3084804681        1.0882446724
Mo            8.1556534107        9.9067246300        2.8314075575
S             6.4969884671        8.9418052744        4.3793281343
S             6.6170405193        9.0498967142        1.1429715880
Mo            3.4290762790        1.7500050054        2.7713672230
S             4.9792684261        0.8142072919        4.3556344451
S             5.0546801866        0.8492297161        1.2204990399
Mo            4.9776193646        4.5047355674        2.6254287822
S             3.4329997899        3.6713436865        4.2829509715
S             3.4384778894        3.5484751512        1.0673845107
Mo            3.4572108468        7.2130720012        2.6229743811
S             4.9853479850        6.3264226866        1.0385689777
Mo            5.0092783056        9.9040037604        2.7447122330
S             3.4699658786        8.9412347698        4.3239083628
S             3.4080941598        9.0664873567        1.1028432860
Mo            0.2900954976        1.7490787620        2.8383485509
S             1.8590044990        0.8023399624        4.4023865499
S             1.8546346935        0.8536745224        1.2078963962
Mo            1.8581283793        4.4960102893        2.6599790667
S             0.2721013221        3.6534134513        4.3361085995
S             0.2341085906        3.5267232996        1.1714635931
Mo            0.2698366158        7.2237856928        2.6975677489
S             1.9028126240        6.3128723008        4.2320024355
S             1.8562107509        6.3131117369        1.0495856262
Mo            1.8518398190        9.9385339838        2.7666353361
S             0.2974575328        9.0665966830        4.4086576553
S             0.2720184261        9.0472533568        1.1588466672
O             6.2548759621        4.9916425114        5.2740331143



     Writing config-only to output data dir ./MoS2-V-O.save/
     NEW-OLD atomic charge density approx. for the potential

     negative rho (up, down):  1.764E-04 0.000E+00

     total cpu time spent up to now is      110.2 secs

     Self-consistent Calculation

     iteration #  1     ecut=    80.00 Ry     beta= 0.70
     Davidson diagonalization with overlap
     c_bands:  1 eigenvalues not converged
     ethr =  1.00E-06,  avg # of iterations = 20.0

     negative rho (up, down):  3.227E-03 0.000E+00

     total cpu time spent up to now is      123.3 secs

     total energy              =   -2246.26633757 Ry
     estimated scf accuracy    <       0.07626965 Ry

     iteration #  2     ecut=    80.00 Ry     beta= 0.70
     Davidson diagonalization with overlap
     ethr =  2.44E-05,  avg # of iterations =  5.0

     negative rho (up, down):  4.348E-03 0.000E+00

     total cpu time spent up to now is      139.3 secs

     total energy              =   -2246.27403331 Ry
     estimated scf accuracy    <       0.07455446 Ry

     iteration #  3     ecut=    80.00 Ry     beta= 0.70
     Davidson diagonalization with overlap
     ethr =  2.39E-05,  avg # of iterations =  2.0

     negative rho (up, down):  7.555E-03 0.000E+00

     total cpu time spent up to now is      150.1 secs

     total energy              =   -2246.27452410 Ry
     estimated scf accuracy    <       0.00894098 Ry

     iteration #  4     ecut=    80.00 Ry     beta= 0.70
     Davidson diagonalization with overlap
     ethr =  2.87E-06,  avg # of iterations =  7.0

     negative rho (up, down):  8.491E-03 0.000E+00

     total cpu time spent up to now is      163.8 secs

     total energy              =   -2246.27587602 Ry
     estimated scf accuracy    <       0.00354410 Ry

     iteration #  5     ecut=    80.00 Ry     beta= 0.70
     Davidson diagonalization with overlap
     ethr =  1.14E-06,  avg # of iterations =  2.0

     negative rho (up, down):  8.750E-03 0.000E+00

     total cpu time spent up to now is      174.9 secs

     total energy              =   -2246.27564278 Ry
     estimated scf accuracy    <       0.00175684 Ry

     iteration #  6     ecut=    80.00 Ry     beta= 0.70
     Davidson diagonalization with overlap
     ethr =  5.63E-07,  avg # of iterations =  5.0

     negative rho (up, down):  8.024E-03 0.000E+00

     total cpu time spent up to now is      185.2 secs

     total energy              =   -2246.27584004 Ry
     estimated scf accuracy    <       0.00017949 Ry

     iteration #  7     ecut=    80.00 Ry     beta= 0.70
     Davidson diagonalization with overlap
     ethr =  5.75E-08,  avg # of iterations =  5.0

     negative rho (up, down):  6.096E-03 0.000E+00

     total cpu time spent up to now is      195.6 secs

     total energy              =   -2246.27580208 Ry
     estimated scf accuracy    <       0.00011491 Ry

     iteration #  8     ecut=    80.00 Ry     beta= 0.70
     Davidson diagonalization with overlap
     ethr =  3.68E-08,  avg # of iterations =  4.0

     negative rho (up, down):  4.533E-03 0.000E+00

     total cpu time spent up to now is      205.4 secs

     total energy              =   -2246.27580384 Ry
     estimated scf accuracy    <       0.00002766 Ry

     iteration #  9     ecut=    80.00 Ry     beta= 0.70
     Davidson diagonalization with overlap
     ethr =  8.87E-09,  avg # of iterations =  2.0

     negative rho (up, down):  2.573E-03 0.000E+00

     total cpu time spent up to now is      214.2 secs

     total energy              =   -2246.27578607 Ry
     estimated scf accuracy    <       0.00001226 Ry

     iteration # 10     ecut=    80.00 Ry     beta= 0.70
     Davidson diagonalization with overlap
     ethr =  3.93E-09,  avg # of iterations =  4.0

     negative rho (up, down):  1.420E-03 0.000E+00

     total cpu time spent up to now is      222.1 secs

     total energy              =   -2246.27577855 Ry
     estimated scf accuracy    <       0.00000272 Ry

     iteration # 11     ecut=    80.00 Ry     beta= 0.70
     Davidson diagonalization with overlap
     ethr =  8.71E-10,  avg # of iterations =  5.0

     negative rho (up, down):  1.115E-03 0.000E+00

     total cpu time spent up to now is      230.9 secs

     total energy              =   -2246.27577666 Ry
     estimated scf accuracy    <       0.00000133 Ry

     iteration # 12     ecut=    80.00 Ry     beta= 0.70
     Davidson diagonalization with overlap
     ethr =  4.26E-10,  avg # of iterations =  2.0

     negative rho (up, down):  1.969E-04 0.000E+00

     total cpu time spent up to now is      234.2 secs

     End of self-consistent calculation

          k = 0.0000 0.0000 0.0000 (105382 PWs)   bands (ev):

   -63.1155 -63.0021 -62.9963 -62.9670 -62.9565 -62.9511 -62.9318 -62.9156
   -62.8911 -62.8829 -62.8075 -62.7406 -37.4550 -37.3355 -37.3022 -37.2960
   -37.2596 -37.2469 -37.2384 -37.2101 -37.1967 -37.1892 -37.1849 -37.1721
   -37.1545 -37.1502 -37.1379 -37.1318 -37.1280 -37.1168 -37.1097 -37.0865
   -37.0828 -37.0789 -37.0483 -37.0419 -37.0270 -37.0211 -37.0051 -36.9802
   -36.9676 -36.9637 -36.9479 -36.9287 -36.9143 -36.8982 -36.8604 -36.7162
   -20.0086 -16.0731 -15.3154 -15.2272 -15.0620 -15.0307 -14.8847 -14.6746
   -14.5915 -14.5496 -14.5158 -14.4755 -14.4527 -14.4155 -14.3825 -14.3167
   -14.2192 -14.2117 -14.1767 -14.1426 -13.9590 -13.9462 -13.9403 -13.9008
    -7.8798  -7.7416  -7.6415  -7.5793  -7.4025  -7.3821  -7.3400  -7.3161
    -7.1894  -7.0168  -6.9848  -6.8791  -6.8318  -6.7351  -6.7033  -6.5870
    -6.5577  -6.5045  -6.4166  -6.3529  -6.1801  -6.1005  -6.0300  -5.9987
    -5.9142  -5.8741  -5.8628  -5.8182  -5.7803  -5.7566  -5.7084  -5.6583
    -5.5997  -5.5145  -5.4918  -5.3335  -5.2787  -5.2214  -5.1476  -5.0911
    -5.0798  -5.0576  -4.9883  -4.8784  -4.7372  -4.5509  -4.4995  -4.4416
    -4.3279  -4.2806  -4.2258  -4.1358  -4.0679  -3.9624  -3.9427  -3.9070
    -3.8089  -3.7776  -3.7372  -3.7056  -3.6741  -3.6095  -3.6011  -3.5633
    -3.5005  -3.4946  -3.3870  -3.3080  -3.1139  -3.0865  -2.9570  -2.9091
    -2.8750  -2.8395  -2.8131  -2.7910  -2.7684  -2.7093  -2.6169  -2.3617
    -2.3118  -2.1042  -2.0538  -1.6530  -1.2422  -0.8588  -0.6369  -0.2980
    -0.2444  -0.1726  -0.1438  -0.0301   0.0264   0.0703   0.1513   0.1652
     0.1805   0.2838   0.3087   0.4098   0.4231   0.4621   0.4943   0.5266
     0.6025   0.6251   0.6358   0.6837   0.7219   0.7525   0.7872   0.8512
     0.9065   0.9539   1.1358

     the Fermi energy is    -1.4476 ev

!    total energy              =   -2246.27577297 Ry
     estimated scf accuracy    <       0.00000075 Ry
     smearing contrib. (-TS)   =      -0.00115554 Ry
     internal energy E=F+TS    =   -2246.27461743 Ry

     The total energy is F=E-TS. E is the sum of the following terms:
     one-electron contribution =  -18471.42673961 Ry
     hartree contribution      =    9223.49687726 Ry
     xc contribution           =    -392.00193147 Ry
     ewald contribution        =    7403.52793012 Ry
     one-center paw contrib.   =      -9.87075373 Ry

     convergence has been achieved in  12 iterations

     negative rho (up, down):  1.969E-04 0.000E+00

     Forces acting on atoms (cartesian axes, Ry/au):

     atom    1 type  1   force =    -0.00156780   -0.06879263   -0.02295321
     atom    2 type  2   force =    -0.00513276    0.00334839   -0.00241548
     atom    3 type  2   force =    -0.01040483    0.00593206   -0.01031820
     atom    4 type  1   force =     0.02170345    0.00695444   -0.01425093
     atom    5 type  2   force =    -0.01569613    0.19372566    0.09995947
     atom    6 type  2   force =     0.00157990    0.00117472   -0.00994380
     atom    7 type  1   force =     0.00381791   -0.00863663    0.00147359
     atom    8 type  2   force =     0.00007201   -0.00936073    0.00500890
     atom    9 type  2   force =     0.01048953    0.00494811    0.00226526
     atom   10 type  1   force =    -0.00199802    0.00744789   -0.00950810
     atom   11 type  2   force =     0.00296709   -0.00264982   -0.00758516
     atom   12 type  2   force =    -0.00359230    0.00060152    0.00186826
     atom   13 type  1   force =     0.00465170    0.00193558   -0.00445827
     atom   14 type  2   force =     0.00051015   -0.00836032    0.01139688
     atom   15 type  2   force =    -0.00925649    0.00145371   -0.01264901
     atom   16 type  1   force =     0.00426314    0.00526793    0.01175517
     atom   17 type  2   force =     0.00626397    0.00015116    0.00113423
     atom   18 type  2   force =    -0.00138038   -0.00160594    0.00760932
     atom   19 type  1   force =     0.00275473   -0.00336002   -0.00530789
     atom   20 type  2   force =     0.00280168   -0.00416799   -0.00235106
     atom   21 type  1   force =    -0.00420074    0.00405577    0.00168090
     atom   22 type  2   force =    -0.00118538   -0.00552462   -0.00340282
     atom   23 type  2   force =     0.00075235    0.00192864    0.00622190
     atom   24 type  1   force =    -0.00341618   -0.00039769   -0.01028096
     atom   25 type  2   force =     0.01181964    0.01484730   -0.00002441
     atom   26 type  2   force =    -0.00745644   -0.00035375   -0.00368328
     atom   27 type  1   force =    -0.00322022   -0.00045319    0.00881414
     atom   28 type  2   force =     0.00148564   -0.00230317   -0.00473582
     atom   29 type  2   force =     0.00724384   -0.00200093   -0.00892165
     atom   30 type  1   force =     0.00116268    0.00621929   -0.00231967
     atom   31 type  2   force =     0.00081870    0.00110558    0.01036323
     atom   32 type  2   force =    -0.00866087    0.00386917    0.00437087
     atom   33 type  1   force =     0.00581862   -0.00026356   -0.00092429
     atom   34 type  2   force =     0.00102490   -0.03272726   -0.01310276
     atom   35 type  2   force =    -0.00660140    0.00875105    0.00810821
     atom   36 type  3   force =    -0.00823168   -0.12275973   -0.03289357
     The non-local contrib.  to forces
     atom    1 type  1   force =     0.00384261    0.02742059   -0.02645831
     atom    2 type  2   force =    -0.00576342   -0.00369167   -0.26941647
     atom    3 type  2   force =    -0.01407428   -0.00435627    0.26748449
     atom    4 type  1   force =    -0.00481368    0.00069140    0.02035101
     atom    5 type  2   force =    -0.10318918    0.33995929    0.23772627
     atom    6 type  2   force =    -0.00286551    0.00460751    0.26102445
     atom    7 type  1   force =    -0.01789270    0.00239268   -0.02177613
     atom    8 type  2   force =    -0.01663954   -0.01049884   -0.25845092
     atom    9 type  2   force =     0.00508381   -0.01468412    0.27500565
     atom   10 type  1   force =     0.00815709   -0.00695387   -0.00378739
     atom   11 type  2   force =     0.01384365    0.00342678   -0.26568476
     atom   12 type  2   force =    -0.01182463   -0.01820881    0.26373045
     atom   13 type  1   force =    -0.00521693    0.02242609   -0.00950040
     atom   14 type  2   force =     0.00600092   -0.01474158   -0.26127924
     atom   15 type  2   force =    -0.00557482   -0.00805331    0.26222897
     atom   16 type  1   force =     0.01992514    0.02932369   -0.03499269
     atom   17 type  2   force =    -0.00667566   -0.02868104   -0.25184608
     atom   18 type  2   force =     0.00446952   -0.00076909    0.27254470
     atom   19 type  1   force =     0.02818656   -0.00521757    0.00050024
     atom   20 type  2   force =     0.00382458   -0.02444360    0.26178596
     atom   21 type  1   force =    -0.00684536    0.01292771    0.00221965
     atom   22 type  2   force =    -0.00292074    0.00457696   -0.26614228
     atom   23 type  2   force =     0.00712340   -0.01453684    0.26189012
     atom   24 type  1   force =     0.00736552    0.00968479   -0.00987426
     atom   25 type  2   force =     0.00551825    0.00966128   -0.26387345
     atom   26 type  2   force =     0.00043946   -0.00879619    0.26407440
     atom   27 type  1   force =    -0.00498233    0.01586728    0.01290795
     atom   28 type  2   force =    -0.01048197   -0.01785442   -0.27895194
     atom   29 type  2   force =     0.00867522   -0.00087444    0.25711994
     atom   30 type  1   force =    -0.00514669    0.00961112    0.01357650
     atom   31 type  2   force =    -0.00806165   -0.00108471   -0.26215920
     atom   32 type  2   force =    -0.00155778   -0.01403785    0.27221437
     atom   33 type  1   force =    -0.00411860    0.00141812    0.00568113
     atom   34 type  2   force =    -0.00423679   -0.02607757   -0.28020580
     atom   35 type  2   force =    -0.00293767   -0.00570790    0.26505725
     atom   36 type  3   force =     0.18599459   -1.23033062   -0.88568047
     The ionic contribution  to forces
     atom    1 type  1   force =     0.51344389   -1.86396784    3.59923153
     atom    2 type  2   force =    -0.07565998   -0.27010956   39.24453348
     atom    3 type  2   force =    -0.00727914   -0.14829767  -36.80296506
     atom    4 type  1   force =     2.34515007    0.66455832   -3.78217832
     atom    5 type  2   force =    -0.01959570   -2.85234324   33.84506196
     atom    6 type  2   force =     0.35303710   -0.82928866  -39.16833728
     atom    7 type  1   force =    -2.41780325   -0.68704289   -0.51781199
     atom    8 type  2   force =     1.01494974    1.48731925   36.10865000
     atom    9 type  2   force =     0.52870787    0.18723728  -38.86241163
     atom   10 type  1   force =    -0.45442350   -0.20813024    4.44613425
     atom   11 type  2   force =    -0.47107213   -0.89892053   38.83389641
     atom   12 type  2   force =     0.39243931    0.78974834  -38.44524573
     atom   13 type  1   force =    -0.52995344    0.02872955    1.51271532
     atom   14 type  2   force =    -0.40214052   -0.65680881   38.54276192
     atom   15 type  2   force =     0.03397837   -0.27668636  -37.58928321
     atom   16 type  1   force =    -2.04152071    3.67384087   -4.35347454
     atom   17 type  2   force =    -0.44982202    0.89488082   37.46324009
     atom   18 type  2   force =    -0.44031434   -0.75096591  -39.29130760
     atom   19 type  1   force =     1.78367134   -1.56522601   -1.19571481
     atom   20 type  2   force =     0.05648813    0.01675657  -39.43802736
     atom   21 type  1   force =    -0.29932917    0.06494427    0.28469888
     atom   22 type  2   force =     0.15470460   -1.37621738   38.25997412
     atom   23 type  2   force =    -0.14736506    0.74462416  -38.78378629
     atom   24 type  1   force =     0.30996659    0.14701853    4.50648063
     atom   25 type  2   force =     0.48719334    0.00449634   39.10802509
     atom   26 type  2   force =    -0.26997131   -0.03721893  -37.75857063
     atom   27 type  1   force =    -0.12478101    0.34910180   -3.49061343
     atom   28 type  2   force =     0.85522338    0.58982038   37.93467179
     atom   29 type  2   force =     0.02399698   -0.55047658  -38.07602963
     atom   30 type  1   force =     0.38160526   -0.29075378   -1.44015951
     atom   31 type  2   force =     1.04729935    0.25579539   37.09366370
     atom   32 type  2   force =    -0.49026639    0.09077566  -39.19877052
     atom   33 type  1   force =     0.51886272   -0.51941486    1.31476154
     atom   34 type  2   force =     0.40692931   -0.96132979   39.13932022
     atom   35 type  2   force =    -0.18090053    0.60010352  -38.24286633
     atom   36 type  3   force =    -2.38544916    4.15344797   45.19973293
     The local contribution  to forces
     atom    1 type  1   force =    -0.51885745    1.76768125   -3.59642824
     atom    2 type  2   force =     0.07595484    0.27718204  -38.99838103
     atom    3 type  2   force =     0.01026720    0.15841242   36.54557693
     atom    4 type  1   force =    -2.31876441   -0.65836760    3.74685573
     atom    5 type  2   force =     0.10169160    2.72494291  -33.97780687
     atom    6 type  2   force =    -0.34892993    0.82668296   38.91755648
     atom    7 type  1   force =     2.43948489    0.67612988    0.54027981
     atom    8 type  2   force =    -0.99847482   -1.48644836  -35.86624021
     atom    9 type  2   force =    -0.52328621   -0.16838044   38.61011267
     atom   10 type  1   force =     0.44426084    0.22265597   -4.45271641
     atom   11 type  2   force =     0.46080175    0.89346244  -38.59680367
     atom   12 type  2   force =    -0.38524637   -0.77224144   38.20385183
     atom   13 type  1   force =     0.53986940   -0.04940568   -1.50848884
     atom   14 type  2   force =     0.39727953    0.66307883  -38.29083981
     atom   15 type  2   force =    -0.03795343    0.28575581   37.33467106
     atom   16 type  1   force =     2.02597047   -3.69797836    4.39967807
     atom   17 type  2   force =     0.46254305   -0.86779915  -37.23084789
     atom   18 type  2   force =     0.43495084    0.75070723   39.04700498
     atom   19 type  1   force =    -1.80902494    1.56724890    1.18901354
     atom   20 type  2   force =    -0.05746624    0.00258267   39.19443464
     atom   21 type  1   force =     0.30200598   -0.07372279   -0.28610325
     atom   22 type  2   force =    -0.15293087    1.36686189  -38.01821938
     atom   23 type  2   force =     0.14153114   -0.72927435   38.54833972
     atom   24 type  1   force =    -0.32078151   -0.15733399   -4.50773628
     atom   25 type  2   force =    -0.48093043    0.00130641  -38.86496803
     atom   26 type  2   force =     0.26234134    0.04516484   37.51121667
     atom   27 type  1   force =     0.12657291   -0.36551707    3.48559449
     atom   28 type  2   force =    -0.84396220   -0.57591399  -37.68171648
     atom   29 type  2   force =    -0.02487404    0.54971014   37.82988745
     atom   30 type  1   force =    -0.37532916    0.28760446    1.42334107
     atom   31 type  2   force =    -1.03893182   -0.25377866  -36.84207024
     atom   32 type  2   force =     0.48334560   -0.07367078   38.95136831
     atom   33 type  1   force =    -0.50894755    0.51782590   -1.32222094
     atom   34 type  2   force =    -0.40218261    0.95404558  -38.89367393
     atom   35 type  2   force =     0.17722307   -0.58626517   38.00634580
     atom   36 type  3   force =     2.19305537   -3.06014007  -44.35645230
     The core correction contribution to forces
     atom    1 type  1   force =     0.00000000    0.00000000    0.00000000
     atom    2 type  2   force =     0.00032460   -0.00005996    0.02080077
     atom    3 type  2   force =     0.00067845    0.00012744   -0.02087239
     atom    4 type  1   force =     0.00000000    0.00000000    0.00000000
     atom    5 type  2   force =     0.00532780   -0.01870470   -0.00489366
     atom    6 type  2   force =     0.00034449   -0.00089604   -0.02066258
     atom    7 type  1   force =     0.00000000    0.00000000    0.00000000
     atom    8 type  2   force =     0.00013396    0.00022333    0.02102270
     atom    9 type  2   force =    -0.00001717    0.00081561   -0.02094912
     atom   10 type  1   force =     0.00000000    0.00000000    0.00000000
     atom   11 type  2   force =    -0.00060345   -0.00058616    0.02095640
     atom   12 type  2   force =     0.00105060    0.00135426   -0.02092755
     atom   13 type  1   force =     0.00000000    0.00000000    0.00000000
     atom   14 type  2   force =    -0.00061510    0.00010812    0.02068912
     atom   15 type  2   force =     0.00031085    0.00039871   -0.02071888
     atom   16 type  1   force =     0.00000000    0.00000000    0.00000000
     atom   17 type  2   force =     0.00034591    0.00173357    0.02055016
     atom   18 type  2   force =    -0.00047812   -0.00062260   -0.02111708
     atom   19 type  1   force =     0.00000000    0.00000000    0.00000000
     atom   20 type  2   force =    -0.00004208    0.00097534   -0.02104014
     atom   21 type  1   force =     0.00000000    0.00000000    0.00000000
     atom   22 type  2   force =    -0.00004135   -0.00068836    0.02093062
     atom   23 type  2   force =    -0.00054349    0.00116196   -0.02067958
     atom   24 type  1   force =     0.00000000    0.00000000    0.00000000
     atom   25 type  2   force =     0.00003057   -0.00067706    0.02075271
     atom   26 type  2   force =    -0.00028157    0.00044820   -0.02086590
     atom   27 type  1   force =     0.00000000    0.00000000    0.00000000
     atom   28 type  2   force =     0.00063730    0.00159183    0.02123603
     atom   29 type  2   force =    -0.00057228   -0.00041978   -0.02041015
     atom   30 type  1   force =     0.00000000    0.00000000    0.00000000
     atom   31 type  2   force =     0.00052915    0.00022599    0.02087810
     atom   32 type  2   force =    -0.00018818    0.00084716   -0.02096164
     atom   33 type  1   force =     0.00000000    0.00000000    0.00000000
     atom   34 type  2   force =     0.00051271    0.00070698    0.02143152
     atom   35 type  2   force =     0.00000728    0.00068031   -0.02088952
     atom   36 type  3   force =    -0.00189754    0.01397044    0.00963754
     The Hubbard contrib.    to forces
     atom    1 type  1   force =     0.00000000    0.00000000    0.00000000
     atom    2 type  2   force =     0.00000000    0.00000000    0.00000000
     atom    3 type  2   force =     0.00000000    0.00000000    0.00000000
     atom    4 type  1   force =     0.00000000    0.00000000    0.00000000
     atom    5 type  2   force =     0.00000000    0.00000000    0.00000000
     atom    6 type  2   force =     0.00000000    0.00000000    0.00000000
     atom    7 type  1   force =     0.00000000    0.00000000    0.00000000
     atom    8 type  2   force =     0.00000000    0.00000000    0.00000000
     atom    9 type  2   force =     0.00000000    0.00000000    0.00000000
     atom   10 type  1   force =     0.00000000    0.00000000    0.00000000
     atom   11 type  2   force =     0.00000000    0.00000000    0.00000000
     atom   12 type  2   force =     0.00000000    0.00000000    0.00000000
     atom   13 type  1   force =     0.00000000    0.00000000    0.00000000
     atom   14 type  2   force =     0.00000000    0.00000000    0.00000000
     atom   15 type  2   force =     0.00000000    0.00000000    0.00000000
     atom   16 type  1   force =     0.00000000    0.00000000    0.00000000
     atom   17 type  2   force =     0.00000000    0.00000000    0.00000000
     atom   18 type  2   force =     0.00000000    0.00000000    0.00000000
     atom   19 type  1   force =     0.00000000    0.00000000    0.00000000
     atom   20 type  2   force =     0.00000000    0.00000000    0.00000000
     atom   21 type  1   force =     0.00000000    0.00000000    0.00000000
     atom   22 type  2   force =     0.00000000    0.00000000    0.00000000
     atom   23 type  2   force =     0.00000000    0.00000000    0.00000000
     atom   24 type  1   force =     0.00000000    0.00000000    0.00000000
     atom   25 type  2   force =     0.00000000    0.00000000    0.00000000
     atom   26 type  2   force =     0.00000000    0.00000000    0.00000000
     atom   27 type  1   force =     0.00000000    0.00000000    0.00000000
     atom   28 type  2   force =     0.00000000    0.00000000    0.00000000
     atom   29 type  2   force =     0.00000000    0.00000000    0.00000000
     atom   30 type  1   force =     0.00000000    0.00000000    0.00000000
     atom   31 type  2   force =     0.00000000    0.00000000    0.00000000
     atom   32 type  2   force =     0.00000000    0.00000000    0.00000000
     atom   33 type  1   force =     0.00000000    0.00000000    0.00000000
     atom   34 type  2   force =     0.00000000    0.00000000    0.00000000
     atom   35 type  2   force =     0.00000000    0.00000000    0.00000000
     atom   36 type  3   force =     0.00000000    0.00000000    0.00000000
     The SCF correction term to forces
     atom    1 type  1   force =     0.00000239    0.00007217    0.00068203
     atom    2 type  2   force =     0.00001044    0.00002633    0.00002799
     atom    3 type  2   force =     0.00000218    0.00004494    0.00043805
     atom    4 type  1   force =     0.00013072    0.00007112    0.00070088
     atom    5 type  2   force =     0.00006860   -0.00012979   -0.00014802
     atom    6 type  2   force =    -0.00000700    0.00006775    0.00045535
     atom    7 type  1   force =     0.00002820   -0.00011751    0.00076212
     atom    8 type  2   force =     0.00010192    0.00004269    0.00000756
     atom    9 type  2   force =     0.00000047   -0.00004143    0.00048791
     atom   10 type  1   force =     0.00000680   -0.00012517    0.00084167
     atom   11 type  2   force =    -0.00000349   -0.00003354    0.00003069
     atom   12 type  2   force =    -0.00001197   -0.00005203    0.00043946
     atom   13 type  1   force =    -0.00004809    0.00018442    0.00079587
     atom   14 type  2   force =    -0.00001544    0.00000192    0.00004511
     atom   15 type  2   force =    -0.00001822    0.00003765    0.00043328
     atom   16 type  1   force =    -0.00011251    0.00008052    0.00052454
     atom   17 type  2   force =    -0.00012807    0.00001576    0.00001818
     atom   18 type  2   force =    -0.00000904    0.00004323    0.00046454
     atom   19 type  1   force =    -0.00007898   -0.00016654    0.00087336
     atom   20 type  2   force =    -0.00000346   -0.00004018    0.00047607
     atom   21 type  1   force =    -0.00003296   -0.00009462    0.00084584
     atom   22 type  2   force =     0.00000221   -0.00005893    0.00003431
     atom   23 type  2   force =     0.00000559   -0.00004749    0.00043815
     atom   24 type  1   force =     0.00003247    0.00023178    0.00082917
     atom   25 type  2   force =     0.00000716    0.00005913    0.00001948
     atom   26 type  2   force =     0.00001488    0.00004713    0.00044241
     atom   27 type  1   force =    -0.00003055    0.00009361    0.00090535
     atom   28 type  2   force =     0.00006837    0.00005182    0.00000500
     atom   29 type  2   force =     0.00001719    0.00005853    0.00049095
     atom   30 type  1   force =     0.00003251   -0.00024370    0.00090249
     atom   31 type  2   force =    -0.00001709   -0.00005362    0.00003107
     atom   32 type  2   force =     0.00000512   -0.00004622    0.00050056
     atom   33 type  1   force =     0.00002130   -0.00009392    0.00083421
     atom   34 type  2   force =     0.00000152   -0.00007366    0.00000544
     atom   35 type  2   force =     0.00000569   -0.00006091    0.00044123
     atom   36 type  3   force =     0.00006430    0.00029135   -0.00015106

     Total force =     0.272878     Total SCF correction =     0.003275
     Energy error            =      2.8E-02 Ry
     Gradient error          =      1.9E-01 Ry/Bohr

     number of scf cycles    =   2
     number of bfgs steps    =   1

     energy             old  =   -2246.2478257780 Ry
     energy             new  =   -2246.2757729677 Ry

     CASE: energy            _new < energy            _old

     new trust radius        =       0.1394692866 bohr
     new conv_thr            =       0.0000001937 Ry


ATOMIC_POSITIONS (angstrom)
Mo            6.5695341058        1.7296956836        2.8242245531
S             8.1675066628        0.8176344821        4.4314507847
S             8.1817168753        0.8189617980        1.2700063913
Mo            8.1153465864        4.4876387580        2.6934303260
S             6.5341994812        3.6790650592        4.2447432998
S             6.5557482934        3.5185622370        1.1162819623
Mo            6.4935386817        7.2100177052        2.6669560934
S             8.0895026198        6.3440423901        4.2485683391
S             8.0905765344        6.3107404893        1.0894914738
Mo            8.1544656296        9.9100350016        2.8266812541
S             6.4983080969        8.9406671208        4.3760247954
S             6.6155466538        9.0502295490        1.1439559224
Mo            3.4315100939        1.7510147658        2.7691949494
S             4.9797985009        0.8106807308        4.3605518480
S             5.0507654729        0.8500422959        1.2150015757
Mo            4.9791351424        4.5061444977        2.6294833939
S             3.4358908427        3.6713830166        4.2836590502
S             3.4379763118        3.5478594601        1.0711178362
Mo            3.4585687109        7.2114823739        2.6202580680
S             4.9866256031        6.3247328098        1.0377439746
Mo            5.0073773901        9.9058007634        2.7454821994
S             3.4694174915        8.9388475774        4.3224273644
S             3.4083650349        9.0673702328        1.1058470393
Mo            0.2882642572        1.7490469467        2.8333930989
S             1.8643644409        0.8089861261        4.4027110545
S             1.8511912512        0.8534744480        1.2063187108
Mo            1.8566492311        4.4958584620        2.6634490156
S             0.2726801308        3.6524233477        4.3341167816
S             0.2372048813        3.5258895345        1.1678893012
Mo            0.2701914025        7.2268175809        2.6963196579
S             1.9031825005        6.3133156144        4.2368674127
S             1.8523017925        6.3148640466        1.0517171078
Mo            1.8547414640        9.9383012929        2.7657647662
S             0.2979866135        9.0517757219        4.4030564658
S             0.2690262771        9.0510140127        1.1627304314
O             6.2476486198        4.9538193670        5.2738312776



     Writing config-only to output data dir ./MoS2-V-O.save/
     NEW-OLD atomic charge density approx. for the potential

     negative rho (up, down):  2.100E-04 0.000E+00

     total cpu time spent up to now is      241.4 secs

     Self-consistent Calculation

     iteration #  1     ecut=    80.00 Ry     beta= 0.70
     Davidson diagonalization with overlap
     ethr =  1.00E-06,  avg # of iterations = 12.0

     negative rho (up, down):  9.634E-05 0.000E+00

     total cpu time spent up to now is      258.3 secs

     total energy              =   -2246.31546280 Ry
     estimated scf accuracy    <       0.00820042 Ry

     iteration #  2     ecut=    80.00 Ry     beta= 0.70
     Davidson diagonalization with overlap
     ethr =  2.63E-06,  avg # of iterations =  4.0

     negative rho (up, down):  6.939E-05 0.000E+00

     total cpu time spent up to now is      269.7 secs

     total energy              =   -2246.31650042 Ry
     estimated scf accuracy    <       0.00346313 Ry

     iteration #  3     ecut=    80.00 Ry     beta= 0.70
     Davidson diagonalization with overlap
     ethr =  1.11E-06,  avg # of iterations =  3.0

     negative rho (up, down):  3.535E-05 0.000E+00

     total cpu time spent up to now is      285.0 secs

     total energy              =   -2246.31675833 Ry
     estimated scf accuracy    <       0.00031420 Ry

     iteration #  4     ecut=    80.00 Ry     beta= 0.70
     Davidson diagonalization with overlap
     ethr =  1.01E-07,  avg # of iterations =  5.0

     negative rho (up, down):  2.918E-05 0.000E+00

     total cpu time spent up to now is      296.8 secs

     total energy              =   -2246.31679106 Ry
     estimated scf accuracy    <       0.00004220 Ry

     iteration #  5     ecut=    80.00 Ry     beta= 0.70
     Davidson diagonalization with overlap
     ethr =  1.35E-08,  avg # of iterations =  5.0

     negative rho (up, down):  2.790E-05 0.000E+00

     total cpu time spent up to now is      307.7 secs

     total energy              =   -2246.31679418 Ry
     estimated scf accuracy    <       0.00001258 Ry

     iteration #  6     ecut=    80.00 Ry     beta= 0.70
     Davidson diagonalization with overlap
     ethr =  4.03E-09,  avg # of iterations =  4.0

     negative rho (up, down):  3.172E-05 0.000E+00

     total cpu time spent up to now is      318.8 secs

     total energy              =   -2246.31679553 Ry
     estimated scf accuracy    <       0.00000548 Ry

     iteration #  7     ecut=    80.00 Ry     beta= 0.70
     Davidson diagonalization with overlap
     ethr =  1.76E-09,  avg # of iterations =  2.0

     negative rho (up, down):  4.499E-05 0.000E+00

     total cpu time spent up to now is      330.4 secs

     total energy              =   -2246.31679633 Ry
     estimated scf accuracy    <       0.00000112 Ry

     iteration #  8     ecut=    80.00 Ry     beta= 0.70
     Davidson diagonalization with overlap
     ethr =  3.60E-10,  avg # of iterations =  6.0

     negative rho (up, down):  6.105E-05 0.000E+00

     total cpu time spent up to now is      342.3 secs

     total energy              =   -2246.31679692 Ry
     estimated scf accuracy    <       0.00000040 Ry

     iteration #  9     ecut=    80.00 Ry     beta= 0.70
     Davidson diagonalization with overlap
     ethr =  1.28E-10,  avg # of iterations =  4.0

     negative rho (up, down):  1.967E-04 0.000E+00

     total cpu time spent up to now is      345.7 secs

     End of self-consistent calculation

          k = 0.0000 0.0000 0.0000 (105382 PWs)   bands (ev):

   -63.1228 -62.9963 -62.9856 -62.9630 -62.9542 -62.9404 -62.9081 -62.8961
   -62.8857 -62.8722 -62.8097 -62.7455 -37.4281 -37.3332 -37.3059 -37.2854
   -37.2531 -37.2400 -37.2285 -37.1999 -37.1869 -37.1779 -37.1751 -37.1626
   -37.1462 -37.1427 -37.1299 -37.1238 -37.1209 -37.1047 -37.1003 -37.0766
   -37.0743 -37.0687 -37.0398 -37.0344 -37.0183 -37.0124 -36.9968 -36.9811
   -36.9666 -36.9532 -36.9412 -36.9255 -36.9117 -36.8982 -36.8506 -36.7180
   -20.8473 -16.0598 -15.2812 -15.2241 -15.0433 -15.0228 -14.8679 -14.5951
   -14.5699 -14.5459 -14.5108 -14.4701 -14.4469 -14.4094 -14.3489 -14.2689
   -14.2138 -14.2082 -14.1464 -14.1184 -13.9537 -13.9415 -13.9301 -13.8963
    -7.8882  -7.7618  -7.6494  -7.5885  -7.4064  -7.3860  -7.3286  -7.3093
    -7.2185  -7.0235  -7.0168  -6.8819  -6.8417  -6.7383  -6.6913  -6.6062
    -6.5669  -6.5118  -6.4205  -6.3563  -6.1945  -6.1101  -6.0147  -5.9938
    -5.8917  -5.8654  -5.8622  -5.8090  -5.7697  -5.7434  -5.6999  -5.6646
    -5.5913  -5.5137  -5.4872  -5.3364  -5.2636  -5.2314  -5.1442  -5.0882
    -5.0711  -5.0642  -4.9901  -4.8863  -4.7439  -4.5905  -4.5056  -4.4358
    -4.3274  -4.2898  -4.2441  -4.1448  -4.0774  -3.9872  -3.9551  -3.9087
    -3.8078  -3.7727  -3.7374  -3.6870  -3.6826  -3.6044  -3.5887  -3.5485
    -3.4993  -3.4895  -3.3945  -3.3013  -3.1370  -3.0749  -2.9321  -2.9040
    -2.8687  -2.8259  -2.8206  -2.7865  -2.7702  -2.7179  -2.6091  -2.4509
    -2.3286  -2.1014  -2.0564  -1.6871  -1.1259  -0.8474  -0.6301  -0.2801
    -0.2355  -0.1637  -0.1300  -0.0121   0.0351   0.0735   0.1634   0.1741
     0.1982   0.2971   0.3174   0.4182   0.4398   0.4754   0.4981   0.5400
     0.6046   0.6252   0.6452   0.6859   0.7301   0.7599   0.8058   0.8582
     0.9145   0.9626   1.1653

     the Fermi energy is    -1.4065 ev

!    total energy              =   -2246.31679708 Ry
     estimated scf accuracy    <       0.00000013 Ry
     smearing contrib. (-TS)   =      -0.00016043 Ry
     internal energy E=F+TS    =   -2246.31663665 Ry

     The total energy is F=E-TS. E is the sum of the following terms:
     one-electron contribution =  -18468.80776411 Ry
     hartree contribution      =    9222.27674842 Ry
     xc contribution           =    -392.04219478 Ry
     ewald contribution        =    7402.12344149 Ry
     one-center paw contrib.   =      -9.86686766 Ry

     convergence has been achieved in   9 iterations

     negative rho (up, down):  1.967E-04 0.000E+00

     Forces acting on atoms (cartesian axes, Ry/au):

     atom    1 type  1   force =    -0.00003855   -0.02182922   -0.00110359
     atom    2 type  2   force =    -0.00425098    0.00173264   -0.00327966
     atom    3 type  2   force =    -0.00807916    0.00274043   -0.01264221
     atom    4 type  1   force =     0.01451181    0.00689573   -0.00721737
     atom    5 type  2   force =    -0.01387885    0.14066825    0.05932827
     atom    6 type  2   force =     0.00152700   -0.00271563   -0.00204816
     atom    7 type  1   force =     0.00214528   -0.00525007   -0.00030094
     atom    8 type  2   force =     0.00388567   -0.00607418    0.00147886
     atom    9 type  2   force =     0.00939315    0.00550937   -0.00026156
     atom   10 type  1   force =    -0.00006513    0.00549886   -0.00517321
     atom   11 type  2   force =     0.00261289   -0.00325504   -0.00738259
     atom   12 type  2   force =    -0.00345086   -0.00013680    0.00109220
     atom   13 type  1   force =     0.00571479    0.00121153   -0.00147659
     atom   14 type  2   force =    -0.00015484   -0.00656577    0.00881129
     atom   15 type  2   force =    -0.00924229   -0.00247002   -0.01319481
     atom   16 type  1   force =     0.00003148    0.00626001    0.00148371
     atom   17 type  2   force =     0.00612849   -0.00007144    0.00147377
     atom   18 type  2   force =    -0.00077229   -0.00046966    0.00762891
     atom   19 type  1   force =     0.00152419   -0.00492056   -0.00224456
     atom   20 type  2   force =     0.00345249   -0.00415390   -0.00254299
     atom   21 type  1   force =    -0.00388331    0.00337310    0.00175251
     atom   22 type  2   force =    -0.00035356   -0.00533672   -0.00356288
     atom   23 type  2   force =     0.00090154    0.00136359    0.00421271
     atom   24 type  1   force =    -0.00542902   -0.00074361   -0.00588257
     atom   25 type  2   force =     0.00905494    0.01232250   -0.00213798
     atom   26 type  2   force =    -0.00525435   -0.00046171   -0.00370110
     atom   27 type  1   force =    -0.00047570   -0.00107970    0.00634594
     atom   28 type  2   force =     0.00089850   -0.00286047   -0.00519618
     atom   29 type  2   force =     0.00894475   -0.00218425   -0.01007578
     atom   30 type  1   force =     0.00013836    0.00107923    0.00115983
     atom   31 type  2   force =     0.00096100    0.00104015    0.00791159
     atom   32 type  2   force =    -0.00746503    0.00354511    0.00375893
     atom   33 type  1   force =     0.00280116   -0.00014095    0.00194116
     atom   34 type  2   force =     0.00038328   -0.02577585   -0.01324493
     atom   35 type  2   force =    -0.00489694    0.00843480    0.00518523
     atom   36 type  3   force =    -0.00731991   -0.10517979   -0.01089525
     The non-local contrib.  to forces
     atom    1 type  1   force =     0.00502476    0.01457358   -0.02884401
     atom    2 type  2   force =    -0.00351538   -0.00424793   -0.26806537
     atom    3 type  2   force =    -0.01247348   -0.00725961    0.26531227
     atom    4 type  1   force =    -0.00677736   -0.00088566    0.02360072
     atom    5 type  2   force =    -0.09584658    0.31446607    0.23650539
     atom    6 type  2   force =    -0.00175879    0.00038327    0.26797298
     atom    7 type  1   force =    -0.01849749    0.00070820   -0.02202271
     atom    8 type  2   force =    -0.00544234   -0.00428212   -0.26302099
     atom    9 type  2   force =     0.00529595   -0.01511264    0.27400279
     atom   10 type  1   force =     0.00737200   -0.00646368   -0.00443974
     atom   11 type  2   force =     0.01286489    0.00294988   -0.26559014
     atom   12 type  2   force =    -0.01206773   -0.01880678    0.26348155
     atom   13 type  1   force =    -0.00342497    0.02285389   -0.00985326
     atom   14 type  2   force =     0.00391821   -0.01382102   -0.26058841
     atom   15 type  2   force =    -0.00543508   -0.01160721    0.26020098
     atom   16 type  1   force =     0.02522092    0.02765537   -0.03222567
     atom   17 type  2   force =    -0.00773169   -0.02689263   -0.25026971
     atom   18 type  2   force =     0.00411391   -0.00147225    0.27154355
     atom   19 type  1   force =     0.02929935   -0.00399817   -0.00008032
     atom   20 type  2   force =     0.00386178   -0.02340978    0.26158791
     atom   21 type  1   force =    -0.00551033    0.01336741    0.00206391
     atom   22 type  2   force =    -0.00247369    0.00390361   -0.26587835
[...]
     atom   28 type  2   force =     0.00166740   -0.00841090   -0.27892470
     atom   29 type  2   force =     0.00117885   -0.00791843    0.26468284
     atom   30 type  1   force =     0.00064332    0.01963212    0.00808381
     atom   31 type  2   force =    -0.00848657   -0.00115830   -0.26972849
     atom   32 type  2   force =     0.00800322   -0.01613286    0.27005715
     atom   33 type  1   force =    -0.00180296    0.00621944    0.00152222
     atom   34 type  2   force =    -0.00246356   -0.00743987   -0.27582625
     atom   35 type  2   force =    -0.00017177   -0.01654518    0.26700351
     atom   36 type  3   force =    -0.00144864   -0.02829992   -2.31944599
     The ionic contribution  to forces
     atom    1 type  1   force =    -0.12389539   -0.57245648   -1.27399435
     atom    2 type  2   force =     0.38481362   -0.86918066   38.40991126
     atom    3 type  2   force =     0.14177451   -0.15120925  -38.19692939
     atom    4 type  1   force =     0.83797299    0.82074756   -3.87778838
     atom    5 type  2   force =    -0.87337698    1.02111984   28.07375719
     atom    6 type  2   force =     0.17072544   -0.44437262  -38.57347701
     atom    7 type  1   force =    -2.68835221   -0.93189884    1.10502826
     atom    8 type  2   force =    -0.59518057    1.24367979   37.48258728
     atom    9 type  2   force =     0.32704082    0.19184597  -38.76459556
     atom   10 type  1   force =    -0.33704730   -0.90594178    2.59199961
     atom   11 type  2   force =    -0.47304972   -1.37559711   38.26983999
     atom   12 type  2   force =     0.21257411    0.39253320  -38.17779526
     atom   13 type  1   force =    -0.46923923    0.04338562    1.73915504
     atom   14 type  2   force =    -0.55325866   -1.02545524   38.08614947
     atom   15 type  2   force =    -0.11685305   -0.21495603  -38.16084546
     atom   16 type  1   force =    -0.52963869    3.77591800   -2.28800711
     atom   17 type  2   force =    -0.26075399    1.12118097   37.72823244
     atom   18 type  2   force =    -0.26670069   -0.53593696  -38.88567085
     atom   19 type  1   force =     2.37510778   -1.08968149    0.35434972
     atom   20 type  2   force =     0.06495665    0.18626120  -39.61565616
     atom   21 type  1   force =    -0.18778016   -0.73129743    0.45490766
     atom   22 type  2   force =     0.38586566   -1.47170789   38.32051935
     atom   23 type  2   force =    -0.20517480    0.43205281  -38.35561531
     atom   24 type  1   force =     0.58915504   -0.09108452    1.26305157
     atom   25 type  2   force =     0.19444318   -0.23387081   38.69579172
     atom   26 type  2   force =    -0.03006987   -0.16779322  -37.74434421
     atom   27 type  1   force =    -0.08695256    0.46466224   -1.09138568
     atom   28 type  2   force =     0.97549312    0.47086022   37.37171506
     atom   29 type  2   force =     0.05240932   -0.24914932  -38.39012248
     atom   30 type  1   force =     0.26007038   -0.08440916    0.59141042
     atom   31 type  2   force =     1.12195679    0.47325107   37.82624930
     atom   32 type  2   force =    -0.40877373    0.09205555  -38.62936279
     atom   33 type  1   force =     0.46237145   -0.44623788    2.75382386
     atom   34 type  2   force =     0.13973836   -0.51527937   38.80850367
     atom   35 type  2   force =     0.03567993    0.23782742  -37.87695304
     atom   36 type  3   force =    -0.52605157    1.14013462   49.97556019
     The local contribution  to forces
     atom    1 type  1   force =     0.12274901    0.54076500    1.26698350
     atom    2 type  2   force =    -0.38412438    0.87877342  -38.16036756
     atom    3 type  2   force =    -0.13842082    0.16024209   37.95147073
     atom    4 type  1   force =    -0.82851286   -0.81869539    3.85431350
     atom    5 type  2   force =     0.86029599   -1.02587756  -28.36302261
     atom    6 type  2   force =    -0.17022805    0.44745115   38.31732413
     atom    7 type  1   force =     2.69998116    0.93157670   -1.08156633
     atom    8 type  2   force =     0.58912532   -1.24387886  -37.23321546
     atom    9 type  2   force =    -0.32164139   -0.17771269   38.51511080
     atom   10 type  1   force =     0.32849290    0.90181281   -2.59188885
     atom   11 type  2   force =     0.46733029    1.37498893  -38.02944747
     atom   12 type  2   force =    -0.20300052   -0.37820189   37.93218973
     atom   13 type  1   force =     0.46796929   -0.06857572   -1.73229687
     atom   14 type  2   force =     0.55313741    1.03468160  -37.83414951
     atom   15 type  2   force =     0.11585329    0.22447580   37.91986464
     atom   16 type  1   force =     0.52081997   -3.79779843    2.30909703
     atom   17 type  2   force =     0.26009941   -1.10513992  -37.48959118
     atom   18 type  2   force =     0.26759891    0.53667571   38.64567663
     atom   19 type  1   force =    -2.39287507    1.07733182   -0.33543261
     atom   20 type  2   force =    -0.06381033   -0.17364063   39.37481725
     atom   21 type  1   force =     0.18933622    0.70675391   -0.45813735
     atom   22 type  2   force =    -0.38045634    1.47119375  -38.08023816
     atom   23 type  2   force =     0.19783612   -0.41623112   38.11395525
     atom   24 type  1   force =    -0.58676396    0.07615078   -1.26115363
     atom   25 type  2   force =    -0.19417294    0.24335384  -38.44747592
     atom   26 type  2   force =     0.02695650    0.17621018   37.49631879
     atom   27 type  1   force =     0.08792467   -0.47467225    1.07846994
     atom   28 type  2   force =    -0.97661161   -0.46395654  -37.11369029
     atom   29 type  2   force =    -0.05325189    0.25562053   38.14504443
     atom   30 type  1   force =    -0.26084078    0.06463210   -0.59828650
     atom   31 type  2   force =    -1.11372889   -0.47361630  -37.57644217
     atom   32 type  2   force =     0.40139391   -0.07601574   38.38086048
     atom   33 type  1   force =    -0.46055706    0.44008592   -2.75575361
     atom   34 type  2   force =    -0.13822124    0.52259615  -38.55456084
     atom   35 type  2   force =    -0.03617711   -0.22291317   37.63155724
     atom   36 type  3   force =     0.52771790   -1.11142641  -47.68047437
     The core correction contribution to forces
     atom    1 type  1   force =     0.00000000    0.00000000    0.00000000
     atom    2 type  2   force =     0.00004827    0.00048782    0.02125514
     atom    3 type  2   force =     0.00030078    0.00032712   -0.02090954
     atom    4 type  1   force =     0.00000000    0.00000000    0.00000000
     atom    5 type  2   force =    -0.00086460   -0.00023058   -0.00989225
     atom    6 type  2   force =     0.00007374   -0.00039950   -0.02126005
     atom    7 type  1   force =     0.00000000    0.00000000    0.00000000
     atom    8 type  2   force =    -0.00032916    0.00022972    0.02119498
     atom    9 type  2   force =     0.00049528    0.00080237   -0.02102969
     atom   10 type  1   force =     0.00000000    0.00000000    0.00000000
     atom   11 type  2   force =    -0.00011530   -0.00028617    0.02070363
     atom   12 type  2   force =     0.00082186    0.00108609   -0.02086021
     atom   13 type  1   force =     0.00000000    0.00000000    0.00000000
     atom   14 type  2   force =    -0.00006714    0.00015420    0.02131957
     atom   15 type  2   force =    -0.00017592    0.00046117   -0.02067828
     atom   16 type  1   force =     0.00000000    0.00000000    0.00000000
     atom   17 type  2   force =     0.00011034    0.00077988    0.02087228
     atom   18 type  2   force =    -0.00008743   -0.00058364   -0.02077668
     atom   19 type  1   force =     0.00000000    0.00000000    0.00000000
     atom   20 type  2   force =     0.00019051    0.00069695   -0.02117517
     atom   21 type  1   force =     0.00000000    0.00000000    0.00000000
     atom   22 type  2   force =     0.00014326   -0.00045124    0.02075668
     atom   23 type  2   force =    -0.00064936    0.00118595   -0.02080947
     atom   24 type  1   force =     0.00000000    0.00000000    0.00000000
     atom   25 type  2   force =     0.00001649    0.00040108    0.02097878
     atom   26 type  2   force =    -0.00014204    0.00030926   -0.02093431
     atom   27 type  1   force =     0.00000000    0.00000000    0.00000000
     atom   28 type  2   force =    -0.00011143    0.00065835    0.02151671
     atom   29 type  2   force =    -0.00006343    0.00010259   -0.02066111
     atom   30 type  1   force =     0.00000000    0.00000000    0.00000000
     atom   31 type  2   force =     0.00043809    0.00033585    0.02110792
     atom   32 type  2   force =    -0.00079713    0.00077837   -0.02101458
     atom   33 type  1   force =     0.00000000    0.00000000    0.00000000
     atom   34 type  2   force =     0.00014995    0.00019132    0.02134777
     atom   35 type  2   force =     0.00002057    0.00099919   -0.02097040
     atom   36 type  3   force =     0.00000330    0.00027197    0.02460354
     The Hubbard contrib.    to forces
     atom    1 type  1   force =     0.00000000    0.00000000    0.00000000
     atom    2 type  2   force =     0.00000000    0.00000000    0.00000000
     atom    3 type  2   force =     0.00000000    0.00000000    0.00000000
     atom    4 type  1   force =     0.00000000    0.00000000    0.00000000
     atom    5 type  2   force =     0.00000000    0.00000000    0.00000000
     atom    6 type  2   force =     0.00000000    0.00000000    0.00000000
     atom    7 type  1   force =     0.00000000    0.00000000    0.00000000
     atom    8 type  2   force =     0.00000000    0.00000000    0.00000000
     atom    9 type  2   force =     0.00000000    0.00000000    0.00000000
     atom   10 type  1   force =     0.00000000    0.00000000    0.00000000
     atom   11 type  2   force =     0.00000000    0.00000000    0.00000000
     atom   12 type  2   force =     0.00000000    0.00000000    0.00000000
     atom   13 type  1   force =     0.00000000    0.00000000    0.00000000
     atom   14 type  2   force =     0.00000000    0.00000000    0.00000000
     atom   15 type  2   force =     0.00000000    0.00000000    0.00000000
     atom   16 type  1   force =     0.00000000    0.00000000    0.00000000
     atom   17 type  2   force =     0.00000000    0.00000000    0.00000000
     atom   18 type  2   force =     0.00000000    0.00000000    0.00000000
     atom   19 type  1   force =     0.00000000    0.00000000    0.00000000
     atom   20 type  2   force =     0.00000000    0.00000000    0.00000000
     atom   21 type  1   force =     0.00000000    0.00000000    0.00000000
     atom   22 type  2   force =     0.00000000    0.00000000    0.00000000
     atom   23 type  2   force =     0.00000000    0.00000000    0.00000000
     atom   24 type  1   force =     0.00000000    0.00000000    0.00000000
     atom   25 type  2   force =     0.00000000    0.00000000    0.00000000
     atom   26 type  2   force =     0.00000000    0.00000000    0.00000000
     atom   27 type  1   force =     0.00000000    0.00000000    0.00000000
     atom   28 type  2   force =     0.00000000    0.00000000    0.00000000
     atom   29 type  2   force =     0.00000000    0.00000000    0.00000000
     atom   30 type  1   force =     0.00000000    0.00000000    0.00000000
     atom   31 type  2   force =     0.00000000    0.00000000    0.00000000
     atom   32 type  2   force =     0.00000000    0.00000000    0.00000000
     atom   33 type  1   force =     0.00000000    0.00000000    0.00000000
     atom   34 type  2   force =     0.00000000    0.00000000    0.00000000
     atom   35 type  2   force =     0.00000000    0.00000000    0.00000000
     atom   36 type  3   force =     0.00000000    0.00000000    0.00000000
     The SCF correction term to forces
     atom    1 type  1   force =     0.00001073   -0.00008065    0.00002345
     atom    2 type  2   force =    -0.00000655   -0.00002715    0.00000394
     atom    3 type  2   force =    -0.00000316   -0.00001552    0.00001553
     atom    4 type  1   force =     0.00003385   -0.00000109   -0.00004605
     atom    5 type  2   force =     0.00000574   -0.00002886   -0.00000147
     atom    6 type  2   force =     0.00000410   -0.00000095   -0.00001796
     atom    7 type  1   force =    -0.00000471    0.00006067   -0.00002219
     atom    8 type  2   force =     0.00000074    0.00002245    0.00000234
     atom    9 type  2   force =     0.00000306    0.00000948   -0.00002130
     atom   10 type  1   force =    -0.00001319    0.00001185    0.00003483
     atom   11 type  2   force =     0.00000491    0.00002975    0.00000724
     atom   12 type  2   force =     0.00000054    0.00000523    0.00000433
     atom   13 type  1   force =    -0.00000251   -0.00005674    0.00001257
     atom   14 type  2   force =     0.00000861   -0.00002346    0.00000791
     atom   15 type  2   force =     0.00000288   -0.00001476    0.00000733
     atom   16 type  1   force =    -0.00001537    0.00001136   -0.00005226
     atom   17 type  2   force =    -0.00001287   -0.00002015    0.00000557
     atom   18 type  2   force =    -0.00001265    0.00000218   -0.00001949
     atom   19 type  1   force =    -0.00001444    0.00006048   -0.00002767
     atom   20 type  2   force =    -0.00000326    0.00001870   -0.00002920
     atom   21 type  1   force =     0.00000531    0.00000196    0.00002160
     atom   22 type  2   force =     0.00000415    0.00002523    0.00000718
     atom   23 type  2   force =    -0.00000003    0.00000168   -0.00000351
     atom   24 type  1   force =    -0.00000056   -0.00005582    0.00001232
     atom   25 type  2   force =    -0.00000397   -0.00002497    0.00001196
     atom   26 type  2   force =    -0.00000015   -0.00001470    0.00000294
     atom   27 type  1   force =     0.00000208   -0.00000494   -0.00004079
     atom   28 type  2   force =     0.00000000   -0.00001951   -0.00000074
     atom   29 type  2   force =     0.00000442    0.00000554   -0.00001145
     atom   30 type  1   force =     0.00000199    0.00005176   -0.00002967
     atom   31 type  2   force =     0.00000191    0.00001532    0.00000187
     atom   32 type  2   force =     0.00000248    0.00000584   -0.00002642
     atom   33 type  1   force =    -0.00001232    0.00001207    0.00002264
     atom   34 type  2   force =    -0.00000335    0.00002929    0.00000601
     atom   35 type  2   force =     0.00000300    0.00000414    0.00000209
     atom   36 type  3   force =    -0.00000008   -0.00003189    0.00005056

     Total force =     0.006654     Total SCF correction =     0.000230
     Energy error            =      9.2E-05 Ry
     Gradient error          =      1.7E-03 Ry/Bohr

     bfgs converged in  26 scf cycles and  25 bfgs steps
     (criteria: energy <  1.0E-04 Ry, force <  1.0E-02 Ry/Bohr)

     End of BFGS Geometry Optimization

     Final energy             =   -2246.4442176987 Ry

     File ./MoS2-V-O.bfgs deleted, as requested
Begin final coordinates

ATOMIC_POSITIONS (angstrom)
Mo            6.5636182515        1.7502160688        2.7446241136
S             8.1339489253        0.8792222504        4.3758415237
S             8.1599295855        0.8565079026        1.1676242986
Mo            8.1378196528        4.5462319967        2.6860617956
S             6.5215929544        3.6813596919        4.2061563085
S             6.5483817287        3.5860617393        1.1200530007
Mo            6.5021333095        7.2175386500        2.6610558702
S             8.0706446037        6.3351954565        4.2947270719
S             8.1237631650        6.3777246035        1.0909537957
Mo            8.1424058024        9.9684534708        2.7759503549
S             6.5124970947        8.9759881932        4.3233001584
S             6.5877743858        9.0740957017        1.1337219468
Mo            3.4275090435        1.8020973670        2.7652948315
S             4.9886865712        0.8476619150        4.3496979046
S             4.9759791018        0.8659804345        1.1619297748
Mo            4.9611038250        4.5992448936        2.6319015983
S             3.4724712163        3.7302124093        4.3114870216
S             3.4278818903        3.5873036553        1.0936291168
Mo            3.4510557894        7.2159741295        2.6396155859
S             4.9844995787        6.3688547531        1.0126634283
Mo            4.9824000027        9.9421774798        2.7313211203
S             3.4618296364        8.9639249854        4.3163159817
S             3.3877410006        9.0764961615        1.1205343155
Mo            0.2626802962        1.7788163524        2.7687145842
S             1.8540319640        0.8902119004        4.3745193945
S             1.8491471086        0.8772200781        1.1849960548
Mo            1.8690949957        4.5265007926        2.6991703880
S             0.2594954087        3.6569852588        4.3027105603
S             0.2717718349        3.5849933232        1.1322322789
Mo            0.2518133538        7.2519370451        2.7235257130
S             1.8941827707        6.3421588501        4.2830407325
S             1.8267713510        6.3590969988        1.0912108903
Mo            1.8494105495        9.9707647213        2.7741915709
S             0.2683957661        9.0503233048        4.3651015628
S             0.2676209376        9.0934493894        1.1720263269
O             6.5267702267        3.7072533751        5.7048466014
End final coordinates



     Writing all to output data dir ./MoS2-V-O.save/
 
     init_run     :      4.63s CPU      5.13s WALL (       1 calls)
     electrons    :   2491.08s CPU   2810.85s WALL (      26 calls)
     update_pot   :     76.12s CPU     81.08s WALL (      25 calls)
     forces       :     70.27s CPU     80.01s WALL (      26 calls)

     Called by init_run:
     wfcinit      :      0.50s CPU      0.56s WALL (       1 calls)
     potinit      :      2.39s CPU      2.63s WALL (       1 calls)
     hinit0       :      0.44s CPU      0.47s WALL (       1 calls)

     Called by electrons:
     c_bands      :    353.94s CPU    362.32s WALL (     249 calls)
     sum_band     :    138.79s CPU    178.50s WALL (     249 calls)
     v_of_rho     :    240.52s CPU    290.34s WALL (     268 calls)
     newd         :     79.85s CPU    117.75s WALL (     268 calls)
     PAW_pot      :     10.57s CPU     10.61s WALL (     293 calls)
     mix_rho      :   1692.85s CPU   1878.76s WALL (     249 calls)

     Called by c_bands:
     init_us_2    :      5.70s CPU      6.12s WALL (     524 calls)
     init_us_2:cp :      5.70s CPU      6.11s WALL (     524 calls)
     regterg      :    335.27s CPU    343.22s WALL (     249 calls)

     Called by *egterg:
     rdiaghg      :     23.11s CPU     23.33s WALL (    1316 calls)
     h_psi        :    217.99s CPU    219.89s WALL (    1349 calls)
     s_psi        :     20.66s CPU     20.73s WALL (    1349 calls)
     g_psi        :      1.06s CPU      1.07s WALL (    1099 calls)

     Called by h_psi:
     h_psi:calbec :     23.38s CPU     23.50s WALL (    1349 calls)
     vloc_psi     :    171.56s CPU    173.18s WALL (    1349 calls)
     add_vuspsi   :     20.30s CPU     20.44s WALL (    1349 calls)

     General routines
     calbec       :     33.81s CPU     34.00s WALL (    1727 calls)
     fft          :    154.55s CPU    179.80s WALL (   17862 calls)
     ffts         :    760.78s CPU    940.19s WALL (  415517 calls)
     fftw         :    108.79s CPU    109.70s WALL (  151542 calls)
     interpolate  :      3.31s CPU      3.81s WALL (     268 calls)
 
     Parallel routines
 
     PWSCF        :  44m13.19s CPU  49m53.12s WALL

 
   This run was terminated on:  17:35:45   1Nov2023            

=------------------------------------------------------------------------------=
   JOB DONE.
=------------------------------------------------------------------------------=
