
     Program PWSCF v.7.2 starts on  1Nov2023 at 19:56:51 

     This program is part of the open-source Quantum ESPRESSO suite
     for quantum simulation of materials; please cite
         "P. Giannozzi et al., J. Phys.:Condens. Matter 21 395502 (2009);
         "P. Giannozzi et al., J. Phys.:Condens. Matter 29 465901 (2017);
         "P. Giannozzi et al., J. Chem. Phys. 152 154105 (2020);
          URL http://www.quantum-espresso.org", 
     in publications or presentations arising from this work. More details at
     http://www.quantum-espresso.org/quote

     Parallel version (MPI & OpenMP), running on      48 processor cores
     Number of MPI processes:                48
     Threads/MPI process:                     1

     MPI processes distributed on     1 nodes
     19489 MiB available memory on the printing compute node when the environment starts
 
     Waiting for input...
     Reading input from standard input
Warning: card &CELL ignored
Warning: card CELL_DYNAMICS = 'BFGS', ignored
Warning: card CELL_DOFREE = '2DXY' ignored
Warning: card / ignored

     Current dimensions of program PWSCF are:
     Max number of different atomic species (ntypx) = 10
     Max number of k-points (npk) =  40000
     Max angular momentum in pseudopotentials (lmaxx) =  4
     file O.pbe-n-kjpaw_psl.0.1.UPF: wavefunction(s)  2P renormalized

     IMPORTANT: XC functional enforced from input :
     Exchange-correlation= RVV10
                           (   1   4  13   4  26   0   0)
     Any further DFT definition will be discarded
     Please, verify this is what you really want


     gamma-point specific algorithms are used
     signal trapping enabled: kill the code with -SIGUSR1 to stop cleanly the simulation 
 
     R & G space division:  proc/nbgrp/npool/nimage =      48
     Subspace diagonalization in iterative solution of the eigenvalue problem:
     one sub-group per band group will be used
     scalapack distributed-memory algorithm (size of sub-group:  2*  2 procs)

 
     Parallelization info
     --------------------
     sticks:   dense  smooth     PW     G-vecs:    dense   smooth      PW
     Min         396     194     47               101632    35090    4376
     Max         398     196     50               101674    35128    4410
     Sum       19091    9389   2349              4879585  1685513  210763
 
     Using Slab Decomposition
 


     bravais-lattice index     =            0
     lattice parameter (alat)  =      17.8707  a.u.
     unit-cell volume          =   17436.2743 (a.u.)^3
     number of atoms/cell      =           36
     number of atomic types    =            3
     number of electrons       =       312.00
     number of Kohn-Sham states=          187
     kinetic-energy cutoff     =      80.0000  Ry
     charge density cutoff     =     650.0000  Ry
     scf convergence threshold =      1.0E-06
     mixing beta               =       0.7000
     number of iterations used =            8  local-TF  mixing
     energy convergence thresh.=      1.0E-04
     force convergence thresh. =      1.0E-02
     Exchange-correlation= RVV10
                           (   1   4  13   4  26   0   0)
     nstep                     =          200


     celldm(1)=  17.870686  celldm(2)=   0.000000  celldm(3)=   0.000000
     celldm(4)=   0.000000  celldm(5)=   0.000000  celldm(6)=   0.000000

     crystal axes: (cart. coord. in units of alat)
               a(1) = (   1.000000   0.000000   0.000000 )  
               a(2) = (   0.000000   1.155671   0.000000 )  
               a(3) = (   0.000000   0.000000   2.643601 )  

     reciprocal axes: (cart. coord. in units 2 pi/alat)
               b(1) = (  1.000000  0.000000  0.000000 )  
               b(2) = (  0.000000  0.865298  0.000000 )  
               b(3) = (  0.000000  0.000000  0.378272 )  


     PseudoPot. # 1 for Mo read from file:
     ../pseudo/Mo_ONCV_PBE-1.0.oncvpsp.upf
     MD5 check sum: 1b5d28e075c9ccadda658a603575cd1f
     Pseudo is Norm-conserving, Zval = 14.0
     Generated using ONCVPSP code by D. R. Hamann
     Using radial grid of 1526 points,  6 beta functions with: 
                l(1) =   0
                l(2) =   0
                l(3) =   1
                l(4) =   1
                l(5) =   2
                l(6) =   2

     PseudoPot. # 2 for S  read from file:
     ../pseudo/s_pbe_v1.4.uspp.F.UPF
     MD5 check sum: 88d86576ff6df21479756cfb9bdac1df
     Pseudo is Ultrasoft + core correction, Zval =  6.0
     Generated by new atomic code, or converted to UPF format
     Using radial grid of  907 points,  6 beta functions with: 
                l(1) =   0
                l(2) =   0
                l(3) =   1
                l(4) =   1
                l(5) =   2
                l(6) =   2
     Q(r) pseudized with  8 coefficients,  rinner =    1.300   1.300   1.300
                                                       1.300   1.300

     PseudoPot. # 3 for O  read from file:
     ../pseudo/O.pbe-n-kjpaw_psl.0.1.UPF
     MD5 check sum: 0234752ac141de4415c5fc33072bef88
     Pseudo is Projector augmented-wave + core cor, Zval =  6.0
     Generated using "atomic" code by A. Dal Corso  v.5.0.99 svn rev. 10869
     Shape of augmentation charge: BESSEL
     Using radial grid of 1095 points,  4 beta functions with: 
                l(1) =   0
                l(2) =   0
                l(3) =   1
                l(4) =   1
     Q(r) pseudized with 0 coefficients 


     atomic species   valence    mass     pseudopotential
        Mo            14.00    95.94000     Mo( 1.00)
        S              6.00    32.06500     S ( 1.00)
        O              6.00    15.99940     O ( 1.00)

     No symmetry found



   Cartesian axes

     site n.     atom                  positions (alat units)
         1           Mo  tau(   1) = (   0.6952221   0.1890506   0.2985846  )
         2           S   tau(   2) = (   0.8646417   0.0856217   0.4689279  )
         3           S   tau(   3) = (   0.8663890   0.0857843   0.1351291  )
         4           Mo  tau(   4) = (   0.8560186   0.4753274   0.2873942  )
         5           S   tau(   5) = (   0.6873294   0.3936244   0.4596353  )
         6           S   tau(   6) = (   0.6929804   0.3713468   0.1185692  )
         7           Mo  tau(   7) = (   0.6862796   0.7633098   0.2825370  )
         8           S   tau(   8) = (   0.8545980   0.6708292   0.4486168  )
         9           S   tau(   9) = (   0.8545123   0.6666874   0.1146125  )
        10           Mo  tau(  10) = (   0.8629403   1.0471007   0.3006803  )
        11           S   tau(  11) = (   0.6868280   0.9456650   0.4634891  )
        12           S   tau(  12) = (   0.6998113   0.9568511   0.1205389  )
        13           Mo  tau(  13) = (   0.3618216   0.1847309   0.2935964  )
        14           S   tau(  14) = (   0.5260962   0.0863870   0.4600448  )
        15           S   tau(  15) = (   0.5348379   0.0894875   0.1297123  )
        16           Mo  tau(  16) = (   0.5265817   0.4772436   0.2784130  )
        17           S   tau(  17) = (   0.3624753   0.3882513   0.4525556  )
        18           S   tau(  18) = (   0.3635411   0.3752055   0.1119148  )
        19           Mo  tau(  19) = (   0.3652268   0.7630864   0.2781795  )
        20           S   tau(  20) = (   0.5269494   0.6690381   0.1096838  )
        21           Mo  tau(  21) = (   0.5300192   1.0470394   0.2900995  )
        22           S   tau(  22) = (   0.3670346   0.9457522   0.4574073  )
        23           S   tau(  23) = (   0.3604225   0.9585725   0.1159032  )
        24           Mo  tau(  24) = (   0.0313099   0.1847895   0.3013130  )
        25           S   tau(  25) = (   0.1956761   0.0838230   0.4650863  )
        26           S   tau(  26) = (   0.1967693   0.0903508   0.1278874  )
        27           Mo  tau(  27) = (   0.1967578   0.4753919   0.2813011  )
        28           S   tau(  28) = (   0.0287851   0.3864324   0.4586755  )
        29           S   tau(  29) = (   0.0244514   0.3729871   0.1239344  )
        30           Mo  tau(  30) = (   0.0286728   0.7631204   0.2856894  )
        31           S   tau(  31) = (   0.2011512   0.6675435   0.4465001  )
        32           S   tau(  32) = (   0.1969214   0.6672839   0.1104564  )
        33           Mo  tau(  33) = (   0.1950294   1.0511147   0.2932237  )
        34           S   tau(  34) = (   0.0312912   0.9612169   0.4667423  )
        35           S   tau(  35) = (   0.0292670   0.9563028   0.1216485  )
        36           O   tau(  36) = (   1.0000000   0.7704471   0.5656742  )

     number of k points=     1  Gaussian smearing, width (Ry)=  0.0100
                       cart. coord. in units 2pi/alat
        k(    1) = (   0.0000000   0.0000000   0.0000000), wk =   2.0000000

     Dense  grid:  2439793 G-vectors     FFT dimensions: ( 150, 180, 384)

     Smooth grid:   842757 G-vectors     FFT dimensions: ( 108, 120, 270)

     Estimated max dynamical RAM per process >     269.22 MB

     Estimated total dynamical RAM >      12.62 GB

     Initial potential from superposition of free atoms

     starting charge     311.9873, renormalised to     312.0000

     negative rho (up, down):  2.755E-04 0.000E+00


---------------------------------------------------------------------------------
Carrying out rVV10 run using the following parameters:
Nqs =      20    Nr_points =    1024   r_max =   100.000
b_value =  6.30000    beta =  0.00901
     q_mesh =  0.00010000  0.00030000  0.00058939  0.00100810
               0.00161396  0.00249058  0.00375900  0.00559430
               0.00824984  0.01209221  0.01765183  0.02569619
               0.03733578  0.05417739  0.07854596  0.11380545
               0.16482331  0.23864234  0.34545298  0.50000000

Gradients computed in Reciprocal space

---------------------------------------------------------------------------------


     Starting wfcs are  216 randomized atomic wfcs
     Checking if some PAW data can be deallocated... 

     total cpu time spent up to now is        6.1 secs

     Self-consistent Calculation

     iteration #  1     ecut=    80.00 Ry     beta= 0.70
     Davidson diagonalization with overlap
     ethr =  1.00E-02,  avg # of iterations =  2.0

     Threshold (ethr) on eigenvalues was too large:
     Diagonalizing with lowered threshold

     Davidson diagonalization with overlap
     ethr =  4.22E-04,  avg # of iterations =  4.0

     negative rho (up, down):  2.794E-08 0.000E+00

     total cpu time spent up to now is       21.6 secs

     total energy              =   -2246.14273601 Ry
     estimated scf accuracy    <       1.56047176 Ry

     iteration #  2     ecut=    80.00 Ry     beta= 0.70
     Davidson diagonalization with overlap
     ethr =  5.00E-04,  avg # of iterations =  4.0

     total cpu time spent up to now is       29.6 secs

     total energy              =   -2246.12339762 Ry
     estimated scf accuracy    <       1.63331748 Ry

     iteration #  3     ecut=    80.00 Ry     beta= 0.70
     Davidson diagonalization with overlap
     ethr =  5.00E-04,  avg # of iterations =  2.0

     total cpu time spent up to now is       34.1 secs

     total energy              =   -2246.13023961 Ry
     estimated scf accuracy    <       0.36631819 Ry

     iteration #  4     ecut=    80.00 Ry     beta= 0.70
     Davidson diagonalization with overlap
     ethr =  1.17E-04,  avg # of iterations =  4.0

     total cpu time spent up to now is       38.7 secs

     total energy              =   -2246.17952089 Ry
     estimated scf accuracy    <       0.07193221 Ry

     iteration #  5     ecut=    80.00 Ry     beta= 0.70
     Davidson diagonalization with overlap
     ethr =  2.31E-05,  avg # of iterations = 15.0

     total cpu time spent up to now is       43.6 secs

     total energy              =   -2246.18290768 Ry
     estimated scf accuracy    <       0.02673322 Ry

     iteration #  6     ecut=    80.00 Ry     beta= 0.70
     Davidson diagonalization with overlap
     ethr =  8.57E-06,  avg # of iterations =  4.0

     total cpu time spent up to now is       47.9 secs

     total energy              =   -2246.18318742 Ry
     estimated scf accuracy    <       0.01395221 Ry

     iteration #  7     ecut=    80.00 Ry     beta= 0.70
     Davidson diagonalization with overlap
     ethr =  4.47E-06,  avg # of iterations =  5.0

     total cpu time spent up to now is       52.3 secs

     total energy              =   -2246.18226954 Ry
     estimated scf accuracy    <       0.01177229 Ry

     iteration #  8     ecut=    80.00 Ry     beta= 0.70
     Davidson diagonalization with overlap
     ethr =  3.77E-06,  avg # of iterations =  1.0

     negative rho (up, down):  3.694E-05 0.000E+00

     total cpu time spent up to now is       58.3 secs

     total energy              =   -2246.18085201 Ry
     estimated scf accuracy    <       0.00700521 Ry

     iteration #  9     ecut=    80.00 Ry     beta= 0.70
     Davidson diagonalization with overlap
     ethr =  2.25E-06,  avg # of iterations =  2.0

     negative rho (up, down):  1.343E-02 0.000E+00

     total cpu time spent up to now is       65.3 secs

     total energy              =   -2246.18030478 Ry
     estimated scf accuracy    <       0.00294757 Ry

     iteration # 10     ecut=    80.00 Ry     beta= 0.70
     Davidson diagonalization with overlap
     ethr =  9.45E-07,  avg # of iterations =  2.0

     negative rho (up, down):  2.101E-02 0.000E+00

     total cpu time spent up to now is       72.7 secs

     total energy              =   -2246.18012962 Ry
     estimated scf accuracy    <       0.00164089 Ry

     iteration # 11     ecut=    80.00 Ry     beta= 0.70
     Davidson diagonalization with overlap
     ethr =  5.26E-07,  avg # of iterations =  2.0

     negative rho (up, down):  2.066E-02 0.000E+00

     total cpu time spent up to now is       79.4 secs

     total energy              =   -2246.18023414 Ry
     estimated scf accuracy    <       0.00061722 Ry

     iteration # 12     ecut=    80.00 Ry     beta= 0.70
     Davidson diagonalization with overlap
     ethr =  1.98E-07,  avg # of iterations =  5.0

     negative rho (up, down):  6.952E-03 0.000E+00

     total cpu time spent up to now is       87.9 secs

     total energy              =   -2246.18020189 Ry
     estimated scf accuracy    <       0.00008425 Ry

     iteration # 13     ecut=    80.00 Ry     beta= 0.70
     Davidson diagonalization with overlap
     ethr =  2.70E-08,  avg # of iterations =  8.0

     negative rho (up, down):  3.152E-03 0.000E+00

     total cpu time spent up to now is       97.9 secs

     total energy              =   -2246.18026638 Ry
     estimated scf accuracy    <       0.00003128 Ry

     iteration # 14     ecut=    80.00 Ry     beta= 0.70
     Davidson diagonalization with overlap
     ethr =  1.00E-08,  avg # of iterations =  2.0

     negative rho (up, down):  8.262E-04 0.000E+00

     total cpu time spent up to now is      108.9 secs

     total energy              =   -2246.18028119 Ry
     estimated scf accuracy    <       0.00000624 Ry

     iteration # 15     ecut=    80.00 Ry     beta= 0.70
     Davidson diagonalization with overlap
     ethr =  2.00E-09,  avg # of iterations =  5.0

     negative rho (up, down):  4.426E-04 0.000E+00

     total cpu time spent up to now is      120.6 secs

     total energy              =   -2246.18028072 Ry
     estimated scf accuracy    <       0.00000470 Ry

     iteration # 16     ecut=    80.00 Ry     beta= 0.70
     Davidson diagonalization with overlap
     ethr =  1.51E-09,  avg # of iterations =  2.0

     negative rho (up, down):  1.761E-04 0.000E+00

     total cpu time spent up to now is      125.0 secs

     End of self-consistent calculation

          k = 0.0000 0.0000 0.0000 (105382 PWs)   bands (ev):

   -63.0352 -62.9456 -62.9383 -62.9292 -62.9263 -62.9139 -62.8949 -62.8891
   -62.8649 -62.8609 -62.8501 -62.8397 -37.3113 -37.2664 -37.2613 -37.2366
   -37.2259 -37.2068 -37.1884 -37.1685 -37.1586 -37.1428 -37.1393 -37.1303
   -37.1235 -37.1226 -37.1140 -37.1004 -37.0927 -37.0888 -37.0811 -37.0681
   -37.0545 -37.0529 -37.0366 -37.0203 -37.0135 -37.0089 -37.0018 -36.9885
   -36.9851 -36.9594 -36.9462 -36.9405 -36.9230 -36.8816 -36.8448 -36.7960
   -19.6953 -16.0034 -15.3562 -15.1843 -15.1116 -14.9614 -14.8272 -14.7785
   -14.6160 -14.5443 -14.4747 -14.4275 -14.4107 -14.3692 -14.3257 -14.2905
   -14.2158 -14.1921 -14.1542 -14.0607 -13.9935 -13.9413 -13.9149 -13.8916
    -7.9355  -7.6554  -7.5575  -7.5144  -7.4056  -7.2832  -7.2638  -7.2097
    -7.0894  -6.9171  -6.8700  -6.8495  -6.7890  -6.7503  -6.6645  -6.6192
    -6.5477  -6.4913  -6.3509  -6.3322  -6.1542  -6.0854  -5.9960  -5.9467
    -5.9258  -5.8584  -5.8309  -5.7695  -5.7583  -5.7165  -5.6360  -5.6236
    -5.5835  -5.5323  -5.5070  -5.3341  -5.2136  -5.1899  -5.1608  -5.1050
    -5.0592  -5.0251  -4.9906  -4.7882  -4.7320  -4.6581  -4.5625  -4.3969
    -4.3608  -4.3338  -4.2278  -4.1586  -4.0680  -4.0137  -3.9633  -3.8891
    -3.8401  -3.7951  -3.7067  -3.6364  -3.6044  -3.5874  -3.5756  -3.5257
    -3.4817  -3.4501  -3.3862  -3.3040  -3.1036  -3.0696  -3.0065  -2.9123
    -2.8860  -2.8156  -2.7666  -2.7465  -2.7221  -2.6624  -2.3576  -2.2450
    -2.1410  -2.0973  -1.9137  -1.4417  -1.3240  -0.8975  -0.6825  -0.2833
    -0.2151  -0.1510  -0.1439  -0.0616   0.0950   0.1401   0.1635   0.1734
     0.2077   0.2751   0.3399   0.3870   0.4364   0.4625   0.4833   0.5259
     0.5800   0.6527   0.6823   0.7033   0.7083   0.7873   0.8271   0.8621
     0.9414   1.0068   1.1020

     the Fermi energy is    -1.3829 ev

!    total energy              =   -2246.18028288 Ry
     estimated scf accuracy    <       0.00000098 Ry
     smearing contrib. (-TS)   =      -0.00935794 Ry
     internal energy E=F+TS    =   -2246.17092494 Ry

     The total energy is F=E-TS. E is the sum of the following terms:
     one-electron contribution =  -18452.22091370 Ry
     hartree contribution      =    9214.24280438 Ry
     xc contribution           =    -391.91156119 Ry
     ewald contribution        =    7393.59631197 Ry
     one-center paw contrib.   =      -9.87756640 Ry

     convergence has been achieved in  16 iterations

     negative rho (up, down):  1.761E-04 0.000E+00

     Forces acting on atoms (cartesian axes, Ry/au):

     atom    1 type  1   force =     0.01313299   -0.02654522    0.00707899
     atom    2 type  2   force =    -0.01699330    0.01800214    0.00307664
     atom    3 type  2   force =    -0.01154138    0.01252333   -0.00563854
     atom    4 type  1   force =    -0.00493750    0.00105883   -0.01031511
     atom    5 type  2   force =    -0.00005620   -0.00638315   -0.00456389
     atom    6 type  2   force =     0.00446981    0.01002312    0.00050367
     atom    7 type  1   force =     0.01166303   -0.01924766   -0.00403777
     atom    8 type  2   force =    -0.00346239   -0.00133530    0.02055575
     atom    9 type  2   force =     0.01315564    0.00456130    0.01195656
     atom   10 type  1   force =    -0.01113153   -0.00330367   -0.01988123
     atom   11 type  2   force =     0.00380340    0.00267920   -0.00452512
     atom   12 type  2   force =     0.00147981    0.00092669    0.00417563
     atom   13 type  1   force =     0.00583662    0.00450680   -0.00674447
     atom   14 type  2   force =     0.00810319   -0.00051517    0.01345380
     atom   15 type  2   force =    -0.01236991    0.00288125   -0.00774157
     atom   16 type  1   force =    -0.00170209    0.01628570    0.00461827
     atom   17 type  2   force =     0.00361751    0.00045128    0.00216020
     atom   18 type  2   force =    -0.00364122   -0.00686623    0.01295383
     atom   19 type  1   force =     0.00075340   -0.02280054   -0.00278581
     atom   20 type  2   force =     0.00344715   -0.00358175    0.00095970
     atom   21 type  1   force =    -0.00824551    0.01038089   -0.00315260
     atom   22 type  2   force =    -0.00001892    0.00219674    0.00025703
     atom   23 type  2   force =     0.00044670    0.00204672    0.00763678
     atom   24 type  1   force =    -0.00934074   -0.00836744   -0.02334889
     atom   25 type  2   force =     0.01671541    0.01764859    0.01189170
     atom   26 type  2   force =    -0.01016992   -0.00175546   -0.00498587
     atom   27 type  1   force =     0.00732645    0.00460993    0.00654341
     atom   28 type  2   force =     0.00104146   -0.00295997   -0.00315904
     atom   29 type  2   force =     0.00503705   -0.00295074   -0.00545421
     atom   30 type  1   force =     0.00543935   -0.02125304   -0.02349066
     atom   31 type  2   force =     0.04077306   -0.01417602   -0.01614424
     atom   32 type  2   force =    -0.01090110    0.00699565    0.00756177
     atom   33 type  1   force =     0.01428150   -0.00849023   -0.02146302
     atom   34 type  2   force =    -0.00090304   -0.00564945    0.02551391
     atom   35 type  2   force =    -0.00766005    0.00996622    0.01693745
     atom   36 type  3   force =    -0.04744873    0.02843665    0.00959694
     The non-local contrib.  to forces
     atom    1 type  1   force =    -0.00171839    0.03127848   -0.01274408
     atom    2 type  2   force =    -0.00946571    0.00381569   -0.27384843
     atom    3 type  2   force =    -0.01403039   -0.00180214    0.27018326
     atom    4 type  1   force =     0.00022250    0.02068734    0.00464019
     atom    5 type  2   force =     0.00516456   -0.03107234   -0.25439392
     atom    6 type  2   force =    -0.00130760    0.01137963    0.26315523
     atom    7 type  1   force =    -0.02838687   -0.02541359   -0.02355260
     atom    8 type  2   force =     0.17699942    0.12555756   -0.09635924
     atom    9 type  2   force =     0.01267260   -0.00639690    0.27854301
     atom   10 type  1   force =     0.00925067    0.00235055   -0.00179052
     atom   11 type  2   force =     0.01133729    0.00784005   -0.26299883
     atom   12 type  2   force =    -0.00646661   -0.01308656    0.25978501
     atom   13 type  1   force =    -0.00170192    0.02041193   -0.00806753
     atom   14 type  2   force =     0.01150615   -0.01121363   -0.26243185
     atom   15 type  2   force =    -0.01318456   -0.00531513    0.26001294
     atom   16 type  1   force =     0.00152173    0.03048306   -0.03142692
     atom   17 type  2   force =    -0.00031621   -0.02538972   -0.25135825
     atom   18 type  2   force =    -0.00416139   -0.00262445    0.27371441
     atom   19 type  1   force =     0.01797375   -0.01598718   -0.02018344
     atom   20 type  2   force =    -0.00015599   -0.02138406    0.26776870
     atom   21 type  1   force =    -0.00036849    0.02719907    0.00825281
     atom   22 type  2   force =    -0.00509744    0.00417609   -0.26116531
     atom   23 type  2   force =     0.00462319   -0.01186730    0.26645916
     atom   24 type  1   force =     0.01072563    0.02472679   -0.01432663
     atom   25 type  2   force =     0.00697746    0.00576653   -0.26200978
     atom   26 type  2   force =    -0.00426631   -0.01342108    0.26432276
     atom   27 type  1   force =    -0.00260147    0.01270034    0.01238155
     atom   28 type  2   force =    -0.00339394   -0.02528100   -0.27399448
     atom   29 type  2   force =     0.00776073    0.00128966    0.26352365
     atom   30 type  1   force =    -0.00210976    0.00826549   -0.00145959
     atom   31 type  2   force =     0.02271273   -0.00851399   -0.26401419
     atom   32 type  2   force =    -0.01029655   -0.00666130    0.27317730
     atom   33 type  1   force =    -0.00028082   -0.00403047    0.01217644
     atom   34 type  2   force =    -0.04327131   -0.28091254   -0.21753216
     atom   35 type  2   force =    -0.00260622   -0.01363457    0.27027462
     atom   36 type  3   force =    -0.26618337    0.22876230   -0.57243770
     The ionic contribution  to forces
     atom    1 type  1   force =     0.11465393    0.24010911    4.74654960
     atom    2 type  2   force =    -0.85485969    0.85424049   39.03682478
     atom    3 type  2   force =    -0.22633967    0.14839245  -36.65529158
     atom    4 type  1   force =    -0.62692404   -0.97788732   -1.45972746
     atom    5 type  2   force =    -1.29603070    1.01164244   38.48674078
     atom    6 type  2   force =     0.25916682   -0.64246041  -38.57392364
     atom    7 type  1   force =    -4.07807504   -2.81925318    0.21450340
     atom    8 type  2   force =    -4.29600265   -2.28798979   34.55793473
     atom    9 type  2   force =     0.14933533   -0.19832537  -39.03496781
     atom   10 type  1   force =    -1.93894796    1.48302833    3.32667965
     atom   11 type  2   force =    -1.57456079   -0.89454659   38.63261294
     atom   12 type  2   force =     0.26695518    0.86658192  -38.59016206
     atom   13 type  1   force =     0.69576227    1.01046159    1.93173048
     atom   14 type  2   force =     0.02598041    0.17360232   38.34013261
     atom   15 type  2   force =     0.14124369    0.01006672  -37.27991106
     atom   16 type  1   force =    -0.12731253    3.35750510   -0.72191344
     atom   17 type  2   force =     1.05780854    1.10890408   37.68555256
     atom   18 type  2   force =    -0.09377698   -0.77190464  -39.09409452
     atom   19 type  1   force =     3.75926067   -2.47614714   -1.31257271
     atom   20 type  2   force =     0.19792602   -0.27259330  -39.13331000
     atom   21 type  1   force =    -0.09297489    0.67429815   -0.04537757
     atom   22 type  2   force =     1.13652716   -1.20771229   38.02025020
     atom   23 type  2   force =     0.04527453    0.81355468  -38.96355804
     atom   24 type  1   force =    -0.48971426    1.18864670    4.70559123
     atom   25 type  2   force =     0.88802879    0.67213441   39.03361492
     atom   26 type  2   force =    -0.21393758    0.17613193  -37.87916592
     atom   27 type  1   force =     0.80570389   -0.88976283   -4.16282428
     atom   28 type  2   force =     0.13558197   -0.04640780   37.77153000
     atom   29 type  2   force =    -0.24985557   -0.64876147  -37.92433643
     atom   30 type  1   force =     0.27534954   -1.06030641   -6.84913406
     atom   31 type  2   force =     3.73292683   -1.39745003   35.66275732
     atom   32 type  2   force =    -0.26802647   -0.14581051  -39.57734389
     atom   33 type  1   force =     1.69034722    0.57744965    0.05278423
     atom   34 type  2   force =     0.89836579    2.63872821   37.14257520
     atom   35 type  2   force =    -0.25974392    0.76878145  -38.84164149
     atom   36 type  3   force =     0.41088416   -1.03694063   46.75089133
     The local contribution  to forces
     atom    1 type  1   force =    -0.09965853   -0.29803802   -4.72800702
     atom    2 type  2   force =     0.84714452   -0.83993614  -38.78131611
     atom    3 type  2   force =     0.22818999   -0.13414200   36.39985762
     atom    4 type  1   force =     0.62200123    0.95842215    1.44360153
     atom    5 type  2   force =     1.29145955   -0.98858447  -38.25777514
     atom    6 type  2   force =    -0.25363080    0.64220978   38.33160823
     atom    7 type  1   force =     4.11811164    2.82552699   -0.19609309
     atom    8 type  2   force =     4.12428579    2.16702758  -34.45404695
     atom    9 type  2   force =    -0.14835545    0.20892873   38.78901881
     atom   10 type  1   force =     1.91852495   -1.48880398   -3.34594937
     atom   11 type  2   force =     1.56761428    0.88994480  -38.39550995
     atom   12 type  2   force =    -0.25980312   -0.85373924   38.35476541
     atom   13 type  1   force =    -0.68828262   -1.02641284   -1.93172476
     atom   14 type  2   force =    -0.02876417   -0.16307804  -38.08536853
     atom   15 type  2   force =    -0.14112739   -0.00226046   37.03214293
     atom   16 type  1   force =     0.12406948   -3.37147952    0.75670540
     atom   17 type  2   force =    -1.05406688   -1.08435726  -37.45281081
     atom   18 type  2   force =     0.09421319    0.76823144   38.85385234
     atom   19 type  1   force =    -3.77653450    2.46937884    1.32884983
     atom   20 type  2   force =    -0.19444879    0.28958577   38.88728424
     atom   21 type  1   force =     0.08514103   -0.69123654    0.03269061
     atom   22 type  2   force =    -1.13160056    1.20613405  -37.78000570
     atom   23 type  2   force =    -0.04900523   -0.80080959   38.72506342
     atom   24 type  1   force =     0.46958513   -1.22169289   -4.71584357
     atom   25 type  2   force =    -0.87836431   -0.65987557  -38.78095067
     atom   26 type  2   force =     0.20809644   -0.16521514   37.63023632
     atom   27 type  1   force =    -0.79595374    0.88187146    4.15576656
     atom   28 type  2   force =    -0.13143934    0.06700397  -37.52213683
     atom   29 type  2   force =     0.24779289    0.64515035   37.67540913
     atom   30 type  1   force =    -0.26777435    1.03073672    6.82604228
     atom   31 type  2   force =    -3.71319658    1.39104863  -35.43705969
     atom   32 type  2   force =     0.26714308    0.15907214   39.33231138
     atom   33 type  1   force =    -1.67578770   -0.58213241   -0.08764409
     atom   34 type  2   force =    -0.85834351   -2.37663460  -36.91816760
     atom   35 type  2   force =     0.25474219   -0.74627605   38.60894546
     atom   36 type  3   force =    -0.19506291    0.83930927  -46.17492936
     The core correction contribution to forces
     atom    1 type  1   force =     0.00000000    0.00000000    0.00000000
     atom    2 type  2   force =     0.00020293   -0.00017695    0.02093723
     atom    3 type  2   force =     0.00062871    0.00003761   -0.02089891
     atom    4 type  1   force =     0.00000000    0.00000000    0.00000000
     atom    5 type  2   force =    -0.00058271    0.00170145    0.02043862
     atom    6 type  2   force =     0.00026818   -0.00110460   -0.02088174
     atom    7 type  1   force =     0.00000000    0.00000000    0.00000000
     atom    8 type  2   force =    -0.00867924   -0.00590649    0.01270460
     atom    9 type  2   force =    -0.00046188    0.00034382   -0.02109773
     atom   10 type  1   force =     0.00000000    0.00000000    0.00000000
     atom   11 type  2   force =    -0.00052679   -0.00060636    0.02091598
     atom   12 type  2   force =     0.00080107    0.00118811   -0.02068364
     atom   13 type  1   force =     0.00000000    0.00000000    0.00000000
     atom   14 type  2   force =    -0.00059912    0.00010438    0.02063958
     atom   15 type  2   force =     0.00070852    0.00034338   -0.02053344
     atom   16 type  1   force =     0.00000000    0.00000000    0.00000000
     atom   17 type  2   force =     0.00012540    0.00136007    0.02032555
     atom   18 type  2   force =     0.00005766   -0.00054996   -0.02104483
     atom   19 type  1   force =     0.00000000    0.00000000    0.00000000
     atom   20 type  2   force =     0.00011089    0.00083018   -0.02126626
     atom   21 type  1   force =     0.00000000    0.00000000    0.00000000
     atom   22 type  2   force =     0.00010177   -0.00047278    0.02071118
     atom   23 type  2   force =    -0.00045251    0.00116460   -0.02078143
     atom   24 type  1   force =     0.00000000    0.00000000    0.00000000
     atom   25 type  2   force =     0.00003900   -0.00042897    0.02078264
     atom   26 type  2   force =    -0.00007149    0.00072390   -0.02091739
     atom   27 type  1   force =     0.00000000    0.00000000    0.00000000
     atom   28 type  2   force =     0.00027630    0.00182910    0.02098291
     atom   29 type  2   force =    -0.00066083   -0.00057952   -0.02053870
     atom   30 type  1   force =     0.00000000    0.00000000    0.00000000
     atom   31 type  2   force =    -0.00174453    0.00078866    0.02175455
     atom   32 type  2   force =     0.00026495    0.00039566   -0.02100081
     atom   33 type  1   force =     0.00000000    0.00000000    0.00000000
     atom   34 type  2   force =     0.00233467    0.01304299    0.01828366
     atom   35 type  2   force =    -0.00005780    0.00109639   -0.02111191
     atom   36 type  3   force =     0.00289192   -0.00267829    0.00564157
     The Hubbard contrib.    to forces
     atom    1 type  1   force =     0.00000000    0.00000000    0.00000000
     atom    2 type  2   force =     0.00000000    0.00000000    0.00000000
     atom    3 type  2   force =     0.00000000    0.00000000    0.00000000
     atom    4 type  1   force =     0.00000000    0.00000000    0.00000000
     atom    5 type  2   force =     0.00000000    0.00000000    0.00000000
     atom    6 type  2   force =     0.00000000    0.00000000    0.00000000
     atom    7 type  1   force =     0.00000000    0.00000000    0.00000000
     atom    8 type  2   force =     0.00000000    0.00000000    0.00000000
     atom    9 type  2   force =     0.00000000    0.00000000    0.00000000
     atom   10 type  1   force =     0.00000000    0.00000000    0.00000000
     atom   11 type  2   force =     0.00000000    0.00000000    0.00000000
     atom   12 type  2   force =     0.00000000    0.00000000    0.00000000
     atom   13 type  1   force =     0.00000000    0.00000000    0.00000000
     atom   14 type  2   force =     0.00000000    0.00000000    0.00000000
     atom   15 type  2   force =     0.00000000    0.00000000    0.00000000
     atom   16 type  1   force =     0.00000000    0.00000000    0.00000000
     atom   17 type  2   force =     0.00000000    0.00000000    0.00000000
     atom   18 type  2   force =     0.00000000    0.00000000    0.00000000
     atom   19 type  1   force =     0.00000000    0.00000000    0.00000000
     atom   20 type  2   force =     0.00000000    0.00000000    0.00000000
     atom   21 type  1   force =     0.00000000    0.00000000    0.00000000
     atom   22 type  2   force =     0.00000000    0.00000000    0.00000000
     atom   23 type  2   force =     0.00000000    0.00000000    0.00000000
     atom   24 type  1   force =     0.00000000    0.00000000    0.00000000
     atom   25 type  2   force =     0.00000000    0.00000000    0.00000000
     atom   26 type  2   force =     0.00000000    0.00000000    0.00000000
     atom   27 type  1   force =     0.00000000    0.00000000    0.00000000
     atom   28 type  2   force =     0.00000000    0.00000000    0.00000000
     atom   29 type  2   force =     0.00000000    0.00000000    0.00000000
     atom   30 type  1   force =     0.00000000    0.00000000    0.00000000
     atom   31 type  2   force =     0.00000000    0.00000000    0.00000000
     atom   32 type  2   force =     0.00000000    0.00000000    0.00000000
     atom   33 type  1   force =     0.00000000    0.00000000    0.00000000
     atom   34 type  2   force =     0.00000000    0.00000000    0.00000000
     atom   35 type  2   force =     0.00000000    0.00000000    0.00000000
     atom   36 type  3   force =     0.00000000    0.00000000    0.00000000
     The SCF correction term to forces
     atom    1 type  1   force =    -0.00014497    0.00010530    0.00125015
     atom    2 type  2   force =    -0.00001631    0.00005913    0.00044882
     atom    3 type  2   force =     0.00000903    0.00003748    0.00048072
     atom    4 type  1   force =    -0.00023815   -0.00016326    0.00114030
     atom    5 type  2   force =    -0.00006786   -0.00007016    0.00039542
     atom    6 type  2   force =    -0.00002775   -0.00000121    0.00051526
     atom    7 type  1   force =     0.00001234   -0.00010781    0.00107418
     atom    8 type  2   force =    -0.00006667   -0.00002408    0.00029227
     atom    9 type  2   force =    -0.00003591    0.00001109    0.00042995
     atom   10 type  1   force =     0.00003986    0.00012151    0.00114867
     atom   11 type  2   force =    -0.00006154    0.00004738    0.00042440
     atom   12 type  2   force =    -0.00000766   -0.00001746    0.00044057
     atom   13 type  1   force =     0.00005793    0.00004620    0.00128700
     atom   14 type  2   force =    -0.00002103    0.00006988    0.00045166
     atom   15 type  2   force =    -0.00001112    0.00004681    0.00051671
     atom   16 type  1   force =     0.00001827   -0.00022286    0.00122288
     atom   17 type  2   force =     0.00006570   -0.00006582    0.00042079
     atom   18 type  2   force =     0.00002535   -0.00001854    0.00049609
     atom   19 type  1   force =     0.00005252   -0.00004499    0.00109016
     atom   20 type  2   force =     0.00001406   -0.00002026    0.00045268
     atom   21 type  1   force =    -0.00004412    0.00012028    0.00125120
     atom   22 type  2   force =     0.00004920    0.00007175    0.00043632
     atom   23 type  2   force =     0.00000575    0.00000440    0.00042333
     atom   24 type  1   force =     0.00006180   -0.00004796    0.00119975
     atom   25 type  2   force =     0.00003350    0.00005226    0.00042424
     atom   26 type  2   force =     0.00000806    0.00002500    0.00050802
     atom   27 type  1   force =     0.00017681   -0.00019897    0.00118924
     atom   28 type  2   force =     0.00001552   -0.00010416    0.00042901
     atom   29 type  2   force =    -0.00000114   -0.00004968    0.00045780
     atom   30 type  1   force =    -0.00002703    0.00005124    0.00103038
     atom   31 type  2   force =     0.00007365   -0.00004922    0.00038743
     atom   32 type  2   force =     0.00001294   -0.00000028    0.00038746
     atom   33 type  1   force =     0.00000184    0.00022307    0.00119006
     atom   34 type  2   force =     0.00001038    0.00012656    0.00032447
     atom   35 type  2   force =     0.00000474   -0.00000092    0.00044043
     atom   36 type  3   force =     0.00002051   -0.00001592    0.00040076

     Total force =     0.127090     Total SCF correction =     0.004645

     BFGS Geometry Optimization
     Energy error            =      0.0E+00 Ry
     Gradient error          =      4.7E-02 Ry/Bohr

     number of scf cycles    =   1
     number of bfgs steps    =   0

     energy             new  =   -2246.1802828803 Ry

     new trust radius        =       0.0561437954 bohr
     new conv_thr            =       0.0000010000 Ry


ATOMIC_POSITIONS (angstrom)
Mo            6.5814980866        1.7737591061        2.8273890725
S             8.1677168736        0.8192303482        4.4361664401
S             8.1871256529        0.8178688041        1.2748996367
Mo            8.0925497545        4.4956172554        2.7123598735
S             6.4998795189        3.7190336677        4.3442455412
S             6.5557151180        3.5170415603        1.1215467586
Mo            6.4961535084        7.2082518618        2.6697477866
S             8.0798955086        6.3431643832        4.2533391993
S             8.0878793134        6.3071160502        1.0901901398
Mo            8.1547284959        9.9004321876        2.8329410684
S             6.4971802681        8.9443445879        4.3807109441
S             6.6187302836        9.0492015973        1.1421169505
Mo            3.4247482710        1.7493407462        2.7729021450
S             4.9794535141        0.8166685939        4.3576525375
S             5.0512878791        0.8477868020        1.2225617983
Mo            4.9788559751        4.5217960267        2.6353284297
S             3.4297559637        3.6718384919        4.2808527069
S             3.4359937299        3.5445952472        1.0652065522
Mo            3.4542604212        7.2042590106        2.6292026722
S             4.9850583452        6.3250369065        1.0377615806
Mo            5.0079005831        9.9070933796        2.7417326758
S             3.4709481074        8.9449137358        4.3257273290
S             3.4086655489        9.0660730625        1.1001095092
Mo            0.2911475809        1.7430816716        2.8370890095
S             1.8593076243        0.8020332360        4.4045022542
S             1.8554183442        0.8534969693        1.2067624428
Mo            1.8645682971        4.4981062307        2.6636600057
S             0.2727649680        3.6528324789        4.3359124080
S             0.2338967004        3.5256877628        1.1691316418
Mo            0.2740305323        7.2053994719        2.6892657081
S             1.9238144195        6.3052972063        4.2139009597
S             1.8564695997        6.3140457493        1.0485608013
Mo            1.8519041049        9.9356463184        2.7615885093
S             0.2954350300        9.0870082655        4.4273708478
S             0.2727178739        9.0487996111        1.1593636933
O             9.4316512156        7.3009813592        5.3545231905



     Writing config-only to output data dir ./MoS2-V-O.save/
     NEW-OLD atomic charge density approx. for the potential

     negative rho (up, down):  1.717E-04 0.000E+00

     total cpu time spent up to now is      133.3 secs

     Self-consistent Calculation

     iteration #  1     ecut=    80.00 Ry     beta= 0.70
     Davidson diagonalization with overlap
     ethr =  1.00E-06,  avg # of iterations =  8.0

     negative rho (up, down):  2.400E-04 0.000E+00

     total cpu time spent up to now is      146.9 secs

     total energy              =   -2246.19345221 Ry
     estimated scf accuracy    <       0.00248255 Ry

     iteration #  2     ecut=    80.00 Ry     beta= 0.70
     Davidson diagonalization with overlap
     ethr =  7.96E-07,  avg # of iterations =  2.0

     negative rho (up, down):  2.315E-04 0.000E+00

     total cpu time spent up to now is      158.3 secs

     total energy              =   -2246.19358375 Ry
     estimated scf accuracy    <       0.00116598 Ry

     iteration #  3     ecut=    80.00 Ry     beta= 0.70
     Davidson diagonalization with overlap
     ethr =  3.74E-07,  avg # of iterations =  2.0

     negative rho (up, down):  2.596E-04 0.000E+00

     total cpu time spent up to now is      172.5 secs

     total energy              =   -2246.19367296 Ry
     estimated scf accuracy    <       0.00021147 Ry

     iteration #  4     ecut=    80.00 Ry     beta= 0.70
     Davidson diagonalization with overlap
     ethr =  6.78E-08,  avg # of iterations =  5.0

     negative rho (up, down):  2.621E-04 0.000E+00

     total cpu time spent up to now is      190.2 secs

     total energy              =   -2246.19370154 Ry
     estimated scf accuracy    <       0.00001567 Ry

     iteration #  5     ecut=    80.00 Ry     beta= 0.70
     Davidson diagonalization with overlap
     ethr =  5.02E-09,  avg # of iterations =  6.0

     negative rho (up, down):  2.578E-04 0.000E+00

     total cpu time spent up to now is      203.5 secs

     total energy              =   -2246.19370918 Ry
     estimated scf accuracy    <       0.00000446 Ry

     iteration #  6     ecut=    80.00 Ry     beta= 0.70
     Davidson diagonalization with overlap
     ethr =  1.43E-09,  avg # of iterations =  2.0

     negative rho (up, down):  2.478E-04 0.000E+00

     total cpu time spent up to now is      215.1 secs

     total energy              =   -2246.19370939 Ry
     estimated scf accuracy    <       0.00000104 Ry

     iteration #  7     ecut=    80.00 Ry     beta= 0.70
     Davidson diagonalization with overlap
     ethr =  3.34E-10,  avg # of iterations =  5.0

     negative rho (up, down):  1.798E-04 0.000E+00

     total cpu time spent up to now is      219.8 secs

     End of self-consistent calculation

          k = 0.0000 0.0000 0.0000 (105382 PWs)   bands (ev):

   -63.0162 -62.9495 -62.9392 -62.9338 -62.9278 -62.9127 -62.8930 -62.8888
   -62.8710 -62.8625 -62.8464 -62.8419 -37.3094 -37.2598 -37.2518 -37.2333
   -37.2126 -37.2012 -37.1910 -37.1691 -37.1591 -37.1415 -37.1364 -37.1312
   -37.1263 -37.1236 -37.1138 -37.1012 -37.0931 -37.0900 -37.0800 -37.0687
   -37.0600 -37.0532 -37.0347 -37.0182 -37.0133 -37.0095 -36.9972 -36.9903
   -36.9892 -36.9627 -36.9462 -36.9397 -36.9235 -36.8836 -36.8417 -36.8001
   -19.7388 -16.0041 -15.3484 -15.1878 -15.1210 -14.9582 -14.8214 -14.7770
   -14.6092 -14.5428 -14.4777 -14.4338 -14.4194 -14.3730 -14.3220 -14.2821
   -14.2172 -14.1881 -14.1600 -14.0543 -13.9811 -13.9500 -13.9125 -13.8910
    -7.9334  -7.6494  -7.5534  -7.5201  -7.3965  -7.2932  -7.2653  -7.2216
    -7.1033  -6.9249  -6.8744  -6.8457  -6.7876  -6.7485  -6.6660  -6.6295
    -6.5428  -6.4913  -6.3575  -6.3395  -6.1453  -6.0823  -5.9968  -5.9377
    -5.9178  -5.8563  -5.8281  -5.7596  -5.7563  -5.7194  -5.6394  -5.6111
    -5.5936  -5.5260  -5.4923  -5.3320  -5.2172  -5.1840  -5.1348  -5.1069
    -5.0639  -5.0295  -4.9916  -4.7954  -4.7330  -4.6541  -4.5481  -4.4071
    -4.3484  -4.3331  -4.2372  -4.1688  -4.0899  -4.0243  -3.9504  -3.8854
    -3.8353  -3.7891  -3.7110  -3.6464  -3.6060  -3.5947  -3.5829  -3.5261
    -3.4708  -3.4607  -3.3838  -3.3103  -3.0750  -3.0684  -3.0021  -2.9029
    -2.8851  -2.8105  -2.7698  -2.7536  -2.7314  -2.6598  -2.3617  -2.2751
    -2.1651  -2.1042  -1.9386  -1.4476  -1.3128  -0.8699  -0.6917  -0.2765
    -0.2297  -0.1481  -0.1234  -0.0634   0.0903   0.1407   0.1580   0.1797
     0.2147   0.2855   0.3450   0.3893   0.4439   0.4660   0.4839   0.5238
     0.6027   0.6466   0.6827   0.6927   0.7029   0.7795   0.8316   0.8697
     0.9353   1.0012   1.0940

     the Fermi energy is    -1.3802 ev

!    total energy              =   -2246.19370968 Ry
     estimated scf accuracy    <       0.00000021 Ry
     smearing contrib. (-TS)   =      -0.00882723 Ry
     internal energy E=F+TS    =   -2246.18488245 Ry

     The total energy is F=E-TS. E is the sum of the following terms:
     one-electron contribution =  -18450.12272359 Ry
     hartree contribution      =    9213.16076026 Ry
     xc contribution           =    -391.90386751 Ry
     ewald contribution        =    7392.55831393 Ry
     one-center paw contrib.   =      -9.87736554 Ry

     convergence has been achieved in   7 iterations

     negative rho (up, down):  1.798E-04 0.000E+00

     Forces acting on atoms (cartesian axes, Ry/au):

     atom    1 type  1   force =     0.00299060   -0.01330048    0.00116609
     atom    2 type  2   force =    -0.01112443    0.01139809   -0.00024573
     atom    3 type  2   force =    -0.01068688    0.00787862   -0.00958754
     atom    4 type  1   force =    -0.00173280   -0.00020132   -0.00428245
     atom    5 type  2   force =     0.00067908   -0.00587228   -0.00506006
     atom    6 type  2   force =     0.00211352    0.00612290    0.00245129
     atom    7 type  1   force =     0.00738300   -0.01057934    0.00123015
     atom    8 type  2   force =     0.00530176   -0.00041697    0.01613277
     atom    9 type  2   force =     0.01126615    0.00215486    0.00479761
     atom   10 type  1   force =    -0.00545279    0.00061289   -0.00417159
     atom   11 type  2   force =     0.00237864    0.00118495   -0.00820305
     atom   12 type  2   force =    -0.00047189   -0.00081834    0.00149463
     atom   13 type  1   force =     0.00415245    0.00266566   -0.00169918
     atom   14 type  2   force =     0.00556748   -0.00042911    0.00944437
     atom   15 type  2   force =    -0.00854956    0.00298967   -0.00667037
     atom   16 type  1   force =    -0.00014954    0.00869396    0.00382742
     atom   17 type  2   force =     0.00437766   -0.00002606    0.00256374
     atom   18 type  2   force =    -0.00152121   -0.00380717    0.01036713
     atom   19 type  1   force =     0.00548188   -0.01088229   -0.00322353
     atom   20 type  2   force =     0.00414002   -0.00383593   -0.00258308
     atom   21 type  1   force =    -0.00487090    0.00421209    0.00138456
     atom   22 type  2   force =    -0.00026347    0.00053589   -0.00309222
     atom   23 type  2   force =     0.00160351   -0.00081032    0.00360354
     atom   24 type  1   force =    -0.00466648   -0.00565431   -0.00918591
     atom   25 type  2   force =     0.01169695    0.01260526    0.00199074
     atom   26 type  2   force =    -0.00635623   -0.00154495   -0.00660516
     atom   27 type  1   force =     0.00419467   -0.00229164    0.00251460
     atom   28 type  2   force =    -0.00025651   -0.00356967   -0.00629207
     atom   29 type  2   force =     0.00483784   -0.00096499   -0.00527384
     atom   30 type  1   force =     0.00446976   -0.01447793   -0.01123601
     atom   31 type  2   force =     0.02763327   -0.00981379   -0.00792959
     atom   32 type  2   force =    -0.00768133    0.00362048    0.00163177
     atom   33 type  1   force =     0.00872160   -0.00457342   -0.00462721
     atom   34 type  2   force =    -0.00328281   -0.00927299    0.01806934
     atom   35 type  2   force =    -0.00630708    0.00665266    0.01076417
     atom   36 type  3   force =    -0.04561593    0.03181531    0.00653465
     The non-local contrib.  to forces
     atom    1 type  1   force =     0.00021128    0.02798159   -0.01328133
     atom    2 type  2   force =    -0.00520531   -0.00124323   -0.27408738
     atom    3 type  2   force =    -0.01218364   -0.00657613    0.26674542
     atom    4 type  1   force =     0.00004248    0.02283625    0.00380740
     atom    5 type  2   force =     0.00537166   -0.03143753   -0.25590824
     atom    6 type  2   force =    -0.00345908    0.00775969    0.26548791
     atom    7 type  1   force =    -0.02766558   -0.02773696   -0.02425547
     atom    8 type  2   force =     0.18355616    0.13327266   -0.08981874
     atom    9 type  2   force =     0.01139891   -0.00852441    0.27407094
     atom   10 type  1   force =     0.00840592    0.00283314   -0.00381317
     atom   11 type  2   force =     0.00843819    0.00633793   -0.26606910
     atom   12 type  2   force =    -0.00792446   -0.01415970    0.25914387
     atom   13 type  1   force =    -0.00087813    0.02214673   -0.00856628
     atom   14 type  2   force =     0.00971846   -0.01069435   -0.26405415
     atom   15 type  2   force =    -0.01041064   -0.00577413    0.25974356
     atom   16 type  1   force =     0.00181201    0.03337772   -0.03268344
     atom   17 type  2   force =     0.00051817   -0.02512829   -0.25197575
     atom   18 type  2   force =    -0.00221481   -0.00041636    0.27224947
     atom   19 type  1   force =     0.01900879   -0.01585369   -0.02107640
     atom   20 type  2   force =     0.00030702   -0.02053062    0.26470243
     atom   21 type  1   force =    -0.00137645    0.02941479    0.00706913
     atom   22 type  2   force =    -0.00393638    0.00116104   -0.26388839
     atom   23 type  2   force =     0.00546416   -0.01332000    0.26464046
     atom   24 type  1   force =     0.00891015    0.02586242   -0.01367703
     atom   25 type  2   force =     0.00276166    0.00178006   -0.26799031
     atom   26 type  2   force =    -0.00126873   -0.01351782    0.26453427
     atom   27 type  1   force =    -0.00228217    0.01364873    0.01131833
     atom   28 type  2   force =    -0.00365052   -0.02561404   -0.27630863
     atom   29 type  2   force =     0.00686733    0.00136960    0.26509871
     atom   30 type  1   force =    -0.00296928    0.00530157   -0.00041874
     atom   31 type  2   force =     0.01949992   -0.01044463   -0.25747532
     atom   32 type  2   force =    -0.00735550   -0.00908128    0.26914833
     atom   33 type  1   force =     0.00205392   -0.00517637    0.01029678
     atom   34 type  2   force =    -0.04897639   -0.29721118   -0.21433494
     atom   35 type  2   force =    -0.00131204   -0.01694715    0.26740961
     atom   36 type  3   force =    -0.27648602    0.25922623   -0.58660665
     The ionic contribution  to forces
     atom    1 type  1   force =    -0.11666638    0.54260535    4.88674144
     atom    2 type  2   force =    -0.65059613    0.73611927   39.09283299
     atom    3 type  2   force =    -0.21924837    0.11141141  -36.74718046
     atom    4 type  1   force =    -0.52945891   -1.12186187   -1.52970054
     atom    5 type  2   force =    -1.27326082    0.97522837   38.41993201
     atom    6 type  2   force =     0.17027868   -0.73522577  -38.49266669
     atom    7 type  1   force =    -4.16050957   -2.46824154    0.23016675
     atom    8 type  2   force =    -4.19756357   -2.32473997   34.67993388
     atom    9 type  2   force =     0.10503631   -0.19518730  -39.05531106
     atom   10 type  1   force =    -1.60523882    1.39034603    3.14348199
     atom   11 type  2   force =    -1.59209167   -0.90904780   38.54174518
     atom   12 type  2   force =     0.17402638    0.80576635  -38.53575194
     atom   13 type  1   force =     0.61265960    0.94181611    1.89385291
     atom   14 type  2   force =    -0.05836792    0.18644786   38.43092899
     atom   15 type  2   force =     0.17257258    0.06376493  -37.32831237
     atom   16 type  1   force =    -0.00295039    3.02518974   -0.54237961
     atom   17 type  2   force =     1.05508203    1.01632219   37.73500262
     atom   18 type  2   force =    -0.06024167   -0.76686055  -39.03399817
     atom   19 type  1   force =     3.88315445   -2.01457491   -1.32052885
     atom   20 type  2   force =     0.20487670   -0.21115695  -39.20983921
     atom   21 type  1   force =    -0.07010093    0.45792377   -0.00981238
     atom   22 type  2   force =     1.08724125   -1.22441343   38.00044212
     atom   23 type  2   force =     0.10476794    0.72861049  -38.91781916
     atom   24 type  1   force =    -0.27299482    1.08940799    4.38936016
     atom   25 type  2   force =     0.76689371    0.58895158   38.98707590
     atom   26 type  2   force =    -0.17506706    0.18867567  -37.84676777
     atom   27 type  1   force =     0.60348784   -1.16593920   -3.91426555
     atom   28 type  2   force =     0.12068656   -0.09056950   37.72041646
     atom   29 type  2   force =    -0.21032470   -0.61215668  -37.90658853
     atom   30 type  1   force =     0.26910197   -0.76029831   -6.88441150
     atom   31 type  2   force =     3.45493641   -1.19576997   35.78249925
     atom   32 type  2   force =    -0.20829363   -0.16936717  -39.64093799
     atom   33 type  1   force =     1.40204684    0.64035190   -0.07387324
     atom   34 type  2   force =     0.97941727    2.75135012   37.07387684
     atom   35 type  2   force =    -0.24769418    0.77239026  -38.68463290
     atom   36 type  3   force =     0.48440299   -1.04726845   46.66648842
     The local contribution  to forces
     atom    1 type  1   force =     0.11965804   -0.58387186   -4.87197449
     atom    2 type  2   force =     0.64438668   -0.72329293  -38.83988862
     atom    3 type  2   force =     0.22016619   -0.09715841   36.49172900
     atom    4 type  1   force =     0.52759442    1.09888741    1.52167085
     atom    5 type  2   force =     1.26919517   -0.95129129  -38.18939132
     atom    6 type  2   force =    -0.16490957    0.73473266   38.25053878
     atom    7 type  1   force =     4.19563359    2.48494218   -0.20464450
     atom    8 type  2   force =     4.02832222    2.19727325  -34.58601918
     atom    9 type  2   force =    -0.10474691    0.20531037   38.80709009
     atom   10 type  1   force =     1.59094142   -1.39243202   -3.14409612
     atom   11 type  2   force =     1.58646234    0.90443200  -38.30470901
     atom   12 type  2   force =    -0.16726395   -0.79358330   38.29871455
     atom   13 type  1   force =    -0.60756605   -0.96101596   -1.88685748
     atom   14 type  2   force =     0.05485712   -0.17622402  -38.17802314
     atom   15 type  2   force =    -0.17132428   -0.05539631   37.08245818
     atom   16 type  1   force =     0.00097332   -3.04967660    0.57907443
     atom   17 type  2   force =    -1.05134960   -0.99242146  -37.50070132
     atom   18 type  2   force =     0.06093935    0.76415764   38.79317072
     atom   19 type  1   force =    -3.89680470    2.01896917    1.33860963
     atom   20 type  2   force =    -0.20109555    0.22687311   38.96373156
     atom   21 type  1   force =     0.06668043   -0.48289032    0.00421881
     atom   22 type  2   force =    -1.08357065    1.22414768  -37.76027076
     atom   23 type  2   force =    -0.10824030   -0.71717748   38.67747051
     atom   24 type  1   force =     0.25920465   -1.12051867   -4.38485533
     atom   25 type  2   force =    -0.75804218   -0.57770403  -38.73781001
     atom   26 type  2   force =     0.17013945   -0.17742450   37.59649599
     atom   27 type  1   force =    -0.59693519    1.15018711    3.90576600
     atom   28 type  2   force =    -0.11757058    0.11093066  -37.47130560
     atom   29 type  2   force =     0.20881245    0.61040071   37.65681014
     atom   30 type  1   force =    -0.26171612    0.73993408    6.87327752
     atom   31 type  2   force =    -3.44508760    1.19523105  -35.55434974
     atom   32 type  2   force =     0.20775565    0.18149996   39.39437743
     atom   33 type  1   force =    -1.39504858   -0.63971426    0.05860136
     atom   34 type  2   force =    -0.93643422   -2.47757686  -36.85890918
     atom   35 type  2   force =     0.24278700   -0.75003699   38.44888907
     atom   36 type  3   force =    -0.25671255    0.82270348  -46.07875849
     The core correction contribution to forces
     atom    1 type  1   force =     0.00000000    0.00000000    0.00000000
     atom    2 type  2   force =     0.00013220   -0.00002379    0.02098501
     atom    3 type  2   force =     0.00052168    0.00025053   -0.02084491
     atom    4 type  1   force =     0.00000000    0.00000000    0.00000000
     atom    5 type  2   force =    -0.00058967    0.00168408    0.02044872
     atom    6 type  2   force =     0.00028646   -0.00101486   -0.02091236
     atom    7 type  1   force =     0.00000000    0.00000000    0.00000000
     atom    8 type  2   force =    -0.00902567   -0.00634785    0.01223127
     atom    9 type  2   force =    -0.00043799    0.00043706   -0.02102751
     atom   10 type  1   force =     0.00000000    0.00000000    0.00000000
     atom   11 type  2   force =    -0.00040244   -0.00056164    0.02100192
     atom   12 type  2   force =     0.00076962    0.00117578   -0.02065166
     atom   13 type  1   force =     0.00000000    0.00000000    0.00000000
     atom   14 type  2   force =    -0.00057541    0.00010761    0.02070919
     atom   15 type  2   force =     0.00062131    0.00041479   -0.02054588
     atom   16 type  1   force =     0.00000000    0.00000000    0.00000000
     atom   17 type  2   force =     0.00010067    0.00130495    0.02035521
     atom   18 type  2   force =    -0.00001823   -0.00062511   -0.02101544
     atom   19 type  1   force =     0.00000000    0.00000000    0.00000000
     atom   20 type  2   force =     0.00010209    0.00082975   -0.02118813
     atom   21 type  1   force =     0.00000000    0.00000000    0.00000000
     atom   22 type  2   force =     0.00004052   -0.00037469    0.02080000
     atom   23 type  2   force =    -0.00042260    0.00113469   -0.02074253
     atom   24 type  1   force =     0.00000000    0.00000000    0.00000000
     atom   25 type  2   force =     0.00017860   -0.00026822    0.02092497
     atom   26 type  2   force =    -0.00016585    0.00075657   -0.02092483
     atom   27 type  1   force =     0.00000000    0.00000000    0.00000000
     atom   28 type  2   force =     0.00026583    0.00179030    0.02103018
     atom   29 type  2   force =    -0.00057650   -0.00051526   -0.02057637
     atom   30 type  1   force =     0.00000000    0.00000000    0.00000000
     atom   31 type  2   force =    -0.00164253    0.00093443    0.02151782
     atom   32 type  2   force =     0.00016966    0.00046617   -0.02092410
     atom   33 type  1   force =     0.00000000    0.00000000    0.00000000
     atom   34 type  2   force =     0.00263641    0.01404631    0.01775584
     atom   35 type  2   force =    -0.00012978    0.00123439   -0.02101132
     atom   36 type  3   force =     0.00298686   -0.00303347    0.00580808
     The Hubbard contrib.    to forces
     atom    1 type  1   force =     0.00000000    0.00000000    0.00000000
     atom    2 type  2   force =     0.00000000    0.00000000    0.00000000
     atom    3 type  2   force =     0.00000000    0.00000000    0.00000000
     atom    4 type  1   force =     0.00000000    0.00000000    0.00000000
     atom    5 type  2   force =     0.00000000    0.00000000    0.00000000
     atom    6 type  2   force =     0.00000000    0.00000000    0.00000000
     atom    7 type  1   force =     0.00000000    0.00000000    0.00000000
     atom    8 type  2   force =     0.00000000    0.00000000    0.00000000
     atom    9 type  2   force =     0.00000000    0.00000000    0.00000000
     atom   10 type  1   force =     0.00000000    0.00000000    0.00000000
     atom   11 type  2   force =     0.00000000    0.00000000    0.00000000
     atom   12 type  2   force =     0.00000000    0.00000000    0.00000000
     atom   13 type  1   force =     0.00000000    0.00000000    0.00000000
     atom   14 type  2   force =     0.00000000    0.00000000    0.00000000
     atom   15 type  2   force =     0.00000000    0.00000000    0.00000000
     atom   16 type  1   force =     0.00000000    0.00000000    0.00000000
     atom   17 type  2   force =     0.00000000    0.00000000    0.00000000
     atom   18 type  2   force =     0.00000000    0.00000000    0.00000000
     atom   19 type  1   force =     0.00000000    0.00000000    0.00000000
     atom   20 type  2   force =     0.00000000    0.00000000    0.00000000
     atom   21 type  1   force =     0.00000000    0.00000000    0.00000000
     atom   22 type  2   force =     0.00000000    0.00000000    0.00000000
     atom   23 type  2   force =     0.00000000    0.00000000    0.00000000
     atom   24 type  1   force =     0.00000000    0.00000000    0.00000000
     atom   25 type  2   force =     0.00000000    0.00000000    0.00000000
     atom   26 type  2   force =     0.00000000    0.00000000    0.00000000
     atom   27 type  1   force =     0.00000000    0.00000000    0.00000000
     atom   28 type  2   force =     0.00000000    0.00000000    0.00000000
     atom   29 type  2   force =     0.00000000    0.00000000    0.00000000
     atom   30 type  1   force =     0.00000000    0.00000000    0.00000000
     atom   31 type  2   force =     0.00000000    0.00000000    0.00000000
     atom   32 type  2   force =     0.00000000    0.00000000    0.00000000
     atom   33 type  1   force =     0.00000000    0.00000000    0.00000000
     atom   34 type  2   force =     0.00000000    0.00000000    0.00000000
     atom   35 type  2   force =     0.00000000    0.00000000    0.00000000
     atom   36 type  3   force =     0.00000000    0.00000000    0.00000000
     The SCF correction term to forces
     atom    1 type  1   force =    -0.00021318   -0.00001700   -0.00031470
     atom    2 type  2   force =     0.00015729   -0.00016267   -0.00008290
     atom    3 type  2   force =     0.00005642   -0.00005023   -0.00003175
     atom    4 type  1   force =     0.00008836   -0.00006455   -0.00005533
     atom    5 type  2   force =    -0.00003810   -0.00005735   -0.00013639
     atom    6 type  2   force =    -0.00008382   -0.00013027    0.00000849
     atom    7 type  1   force =    -0.00007628    0.00045555   -0.00003180
     atom    8 type  2   force =     0.00001177    0.00012350   -0.00018962
     atom    9 type  2   force =     0.00001499    0.00011769   -0.00002002
     atom   10 type  1   force =     0.00043785   -0.00013569    0.00026055
     atom   11 type  2   force =    -0.00002863    0.00002302   -0.00016721
     atom   12 type  2   force =    -0.00008033   -0.00001892    0.00004465
     atom   13 type  1   force =    -0.00006381   -0.00028265   -0.00012349
     atom   14 type  2   force =    -0.00006561   -0.00006765   -0.00011168
     atom   15 type  2   force =    -0.00000938   -0.00002105   -0.00000902
     atom   16 type  1   force =     0.00001467   -0.00019835   -0.00017913
     atom   17 type  2   force =     0.00002555   -0.00010489   -0.00011218
     atom   18 type  2   force =     0.00001330   -0.00006423   -0.00003462
     atom   19 type  1   force =     0.00012249    0.00057570   -0.00022307
     atom   20 type  2   force =    -0.00005109    0.00014733    0.00001510
     atom   21 type  1   force =    -0.00007480   -0.00023758   -0.00008616
     atom   22 type  2   force =    -0.00003906    0.00001385   -0.00017035
     atom   23 type  2   force =     0.00003346   -0.00005947    0.00005910
     atom   24 type  1   force =     0.00021269   -0.00040749   -0.00000887
     atom   25 type  2   force =    -0.00009570   -0.00015557   -0.00020497
     atom   26 type  2   force =     0.00000511   -0.00003632    0.00006201
     atom   27 type  1   force =    -0.00007667   -0.00018974   -0.00029934
     atom   28 type  2   force =     0.00001135   -0.00010853   -0.00011964
     atom   29 type  2   force =     0.00005841   -0.00006480   -0.00001295
     atom   30 type  1   force =     0.00005235    0.00058329    0.00032154
     atom   31 type  2   force =    -0.00007377    0.00023389   -0.00011676
     atom   32 type  2   force =     0.00004165    0.00010137   -0.00002707
     atom   33 type  1   force =    -0.00033142   -0.00003612    0.00035272
     atom   34 type  2   force =     0.00007327    0.00011717   -0.00031438
     atom   35 type  2   force =     0.00004108    0.00001071    0.00011454
     atom   36 type  3   force =     0.00019194    0.00018607   -0.00039188

     Total force =     0.090802     Total SCF correction =     0.001790
     Energy error            =      1.3E-02 Ry
     Gradient error          =      4.6E-02 Ry/Bohr

     number of scf cycles    =   2
     number of bfgs steps    =   1

     energy             old  =   -2246.1802828803 Ry
     energy             new  =   -2246.1937096807 Ry

     CASE: energy            _new < energy            _old

     new trust radius        =       0.0617581750 bohr
     new conv_thr            =       0.0000000456 Ry


ATOMIC_POSITIONS (angstrom)
Mo            6.5842958271        1.7646219311        2.8286831134
S             8.1606149962        0.8265682250        4.4363676866
S             8.1807993716        0.8229491920        1.2697133390
Mo            8.0912059008        4.4956304830        2.7092344767
S             6.5001995977        3.7155531807        4.3413436016
S             6.5571931712        3.5210199483        1.1227754570
Mo            6.5009067882        7.2011777139        2.6699192796
S             8.0820807708        6.3428257400        4.2632143028
S             8.0946510738        6.3086234327        1.0937330655
Mo            8.1509567215        9.9003835981        2.8288764538
S             6.4987164247        8.9451912308        4.3763046143
S             6.6186573319        9.0489049896        1.1432674624
Mo            3.4273466634        1.7510876264        2.7713869665
S             4.9829661603        0.8164092078        4.3635809051
S             5.0459013995        0.8495205433        1.2185573599
Mo            4.9786076250        4.5276580421        2.6376444325
S             3.4322322223        3.6718728030        4.2823072261
S             3.4348859044        3.5420557509        1.0715259084
Mo            3.4569694930        7.1966708774        2.6273665974
S             4.9874028808        6.3228243488        1.0366214516
Mo            5.0047074793        9.9101918346        2.7420701048
S             3.4708196969        8.9453988218        4.3242699509
S             3.4094814610        9.0658965024        1.1026312200
Mo            0.2879389613        1.7394999359        2.8302581329
S             1.8666554412        0.8099137887        4.4066913573
S             1.8513127421        0.8525733857        1.2030751843
Mo            1.8673415094        4.4974846557        2.6655456732
S             0.2727499072        3.6508122164        4.3325649321
S             0.2367410789        3.5249185181        1.1660347376
Mo            0.2767399976        7.1962462335        2.6814362181
S             1.9413063591        6.2991166160        4.2084204597
S             1.8516521901        6.3165090765        1.0501284206
Mo            1.8575714625        9.9325705967        2.7571411274
S             0.2937658305        9.0819717997        4.4386897463
S             0.2688962451        9.0530263439        1.1662868779
O             9.4048363259        7.3192005532        5.3586549762



     Writing config-only to output data dir ./MoS2-V-O.save/
     NEW-OLD atomic charge density approx. for the potential

     negative rho (up, down):  1.716E-04 0.000E+00

     total cpu time spent up to now is      228.1 secs

     Self-consistent Calculation

     iteration #  1     ecut=    80.00 Ry     beta= 0.70
     Davidson diagonalization with overlap
     ethr =  1.00E-06,  avg # of iterations =  9.0

     negative rho (up, down):  2.126E-04 0.000E+00

     total cpu time spent up to now is      246.0 secs

     total energy              =   -2246.20191720 Ry
     estimated scf accuracy    <       0.00164356 Ry

     iteration #  2     ecut=    80.00 Ry     beta= 0.70
     Davidson diagonalization with overlap
     ethr =  5.27E-07,  avg # of iterations =  4.0

     negative rho (up, down):  1.988E-04 0.000E+00

     total cpu time spent up to now is      258.6 secs

     total energy              =   -2246.20206325 Ry
     estimated scf accuracy    <       0.00138695 Ry

     iteration #  3     ecut=    80.00 Ry     beta= 0.70
     Davidson diagonalization with overlap
     ethr =  4.45E-07,  avg # of iterations =  4.0

     negative rho (up, down):  1.996E-04 0.000E+00

     total cpu time spent up to now is      270.7 secs

     total energy              =   -2246.20216471 Ry
     estimated scf accuracy    <       0.00009909 Ry

     iteration #  4     ecut=    80.00 Ry     beta= 0.70
     Davidson diagonalization with overlap
     ethr =  3.18E-08,  avg # of iterations =  5.0

     negative rho (up, down):  1.968E-04 0.000E+00

     total cpu time spent up to now is      283.7 secs

     total energy              =   -2246.20219002 Ry
     estimated scf accuracy    <       0.00001823 Ry

     iteration #  5     ecut=    80.00 Ry     beta= 0.70
     Davidson diagonalization with overlap
     ethr =  5.84E-09,  avg # of iterations =  6.0

     negative rho (up, down):  1.950E-04 0.000E+00

     total cpu time spent up to now is      303.1 secs

     total energy              =   -2246.20219284 Ry
     estimated scf accuracy    <       0.00000203 Ry

     iteration #  6     ecut=    80.00 Ry     beta= 0.70
     Davidson diagonalization with overlap
     ethr =  6.51E-10,  avg # of iterations =  4.0

     negative rho (up, down):  1.930E-04 0.000E+00

     total cpu time spent up to now is      316.3 secs

     total energy              =   -2246.20219354 Ry
     estimated scf accuracy    <       0.00000049 Ry

     iteration #  7     ecut=    80.00 Ry     beta= 0.70
     Davidson diagonalization with overlap
     ethr =  1.57E-10,  avg # of iterations =  2.0

     negative rho (up, down):  1.902E-04 0.000E+00

     total cpu time spent up to now is      329.7 secs

     total energy              =   -2246.20219359 Ry
     estimated scf accuracy    <       0.00000013 Ry

     iteration #  8     ecut=    80.00 Ry     beta= 0.70
     Davidson diagonalization with overlap
     ethr =  4.33E-11,  avg # of iterations =  5.0

     negative rho (up, down):  1.824E-04 0.000E+00

     total cpu time spent up to now is      334.1 secs

     End of self-consistent calculation

          k = 0.0000 0.0000 0.0000 (105382 PWs)   bands (ev):

   -62.9997 -62.9541 -62.9433 -62.9385 -62.9264 -62.9122 -62.8953 -62.8838
   -62.8804 -62.8631 -62.8448 -62.8435 -37.3093 -37.2562 -37.2447 -37.2339
   -37.2105 -37.1935 -37.1884 -37.1711 -37.1594 -37.1419 -37.1360 -37.1332
   -37.1283 -37.1268 -37.1125 -37.1022 -37.0936 -37.0902 -37.0808 -37.0701
   -37.0638 -37.0532 -37.0345 -37.0191 -37.0139 -37.0076 -36.9941 -36.9934
   -36.9920 -36.9664 -36.9482 -36.9383 -36.9224 -36.8850 -36.8397 -36.8030
   -19.8164 -16.0048 -15.3479 -15.1912 -15.1257 -14.9565 -14.8195 -14.7811
   -14.6013 -14.5433 -14.4815 -14.4396 -14.4235 -14.3774 -14.3193 -14.2791
   -14.2180 -14.1875 -14.1609 -14.0499 -13.9761 -13.9554 -13.9149 -13.8815
    -7.9474  -7.6534  -7.5517  -7.5259  -7.3930  -7.3013  -7.2689  -7.2268
    -7.1241  -6.9313  -6.8799  -6.8434  -6.7884  -6.7517  -6.6688  -6.6379
    -6.5400  -6.4924  -6.3646  -6.3461  -6.1422  -6.0783  -5.9920  -5.9342
    -5.9136  -5.8584  -5.8262  -5.7558  -5.7527  -5.7240  -5.6432  -5.6056
    -5.5976  -5.5231  -5.4820  -5.3363  -5.2175  -5.1809  -5.1209  -5.1055
    -5.0689  -5.0341  -4.9930  -4.8004  -4.7324  -4.6512  -4.5408  -4.4165
    -4.3436  -4.3349  -4.2426  -4.1763  -4.1058  -4.0312  -3.9409  -3.8839
    -3.8344  -3.7822  -3.7160  -3.6534  -3.6197  -3.5951  -3.5838  -3.5269
    -3.4699  -3.4620  -3.3837  -3.3143  -3.0810  -3.0482  -2.9986  -2.9014
    -2.8827  -2.8087  -2.7713  -2.7579  -2.7348  -2.6582  -2.3723  -2.3012
    -2.1796  -2.1066  -1.9562  -1.4506  -1.2992  -0.8539  -0.6970  -0.2764
    -0.2398  -0.1464  -0.1093  -0.0657   0.0843   0.1322   0.1577   0.1822
     0.2151   0.2915   0.3489   0.3858   0.4457   0.4643   0.4836   0.5262
     0.6169   0.6468   0.6767   0.6861   0.7015   0.7739   0.8395   0.8745
     0.9318   0.9960   1.0886

     the Fermi energy is    -1.3749 ev

!    total energy              =   -2246.20219360 Ry
     estimated scf accuracy    <       0.00000003 Ry
     smearing contrib. (-TS)   =      -0.00827882 Ry
     internal energy E=F+TS    =   -2246.19391478 Ry

     The total energy is F=E-TS. E is the sum of the following terms:
     one-electron contribution =  -18448.21114041 Ry
     hartree contribution      =    9212.19709042 Ry
     xc contribution           =    -391.90177489 Ry
     ewald contribution        =    7391.59902866 Ry
     one-center paw contrib.   =      -9.87711856 Ry

     convergence has been achieved in   8 iterations

     negative rho (up, down):  1.824E-04 0.000E+00

     Forces acting on atoms (cartesian axes, Ry/au):

     atom    1 type  1   force =    -0.00269056   -0.00509252   -0.00281957
     atom    2 type  2   force =    -0.00708389    0.00723915   -0.00138272
     atom    3 type  2   force =    -0.00913254    0.00451086   -0.00991838
     atom    4 type  1   force =     0.00045013   -0.00100296   -0.00146369
     atom    5 type  2   force =     0.00109200   -0.00504146   -0.00457469
     atom    6 type  2   force =     0.00058564    0.00371003    0.00305428
     atom    7 type  1   force =     0.00527292   -0.00515113    0.00294256
     atom    8 type  2   force =     0.01109147    0.00077904    0.01260737
     atom    9 type  2   force =     0.00904067    0.00054001    0.00088576
     atom   10 type  1   force =    -0.00260458    0.00257613    0.00280308
     atom   11 type  2   force =     0.00142805    0.00007443   -0.00852989
     atom   12 type  2   force =    -0.00115026   -0.00177813    0.00103984
     atom   13 type  1   force =     0.00282247    0.00099050    0.00023683
     atom   14 type  2   force =     0.00361571   -0.00045287    0.00670542
     atom   15 type  2   force =    -0.00620799    0.00218210   -0.00517474
     atom   16 type  1   force =     0.00088319    0.00393926    0.00301185
     atom   17 type  2   force =     0.00450602   -0.00040255    0.00289746
     atom   18 type  2   force =     0.00010829   -0.00186908    0.00789176
     atom   19 type  1   force =     0.00712063   -0.00370523   -0.00418573
     atom   20 type  2   force =     0.00497215   -0.00381520   -0.00408385
     atom   21 type  1   force =    -0.00236374    0.00127331    0.00217894
     atom   22 type  2   force =    -0.00017652   -0.00073133   -0.00379917
     atom   23 type  2   force =     0.00188425   -0.00210562    0.00139639
     atom   24 type  1   force =    -0.00255539   -0.00389294   -0.00342621
     atom   25 type  2   force =     0.00811836    0.00892661   -0.00248011
     atom   26 type  2   force =    -0.00340295   -0.00170789   -0.00570703
     atom   27 type  1   force =     0.00255380   -0.00510924    0.00000107
     atom   28 type  2   force =    -0.00079455   -0.00378075   -0.00697956
     atom   29 type  2   force =     0.00412065   -0.00032573   -0.00448215
     atom   30 type  1   force =     0.00426749   -0.00866483   -0.00523169
     atom   31 type  2   force =     0.01753792   -0.00672478   -0.00183670
     atom   32 type  2   force =    -0.00448792    0.00093512   -0.00143584
     atom   33 type  1   force =     0.00489640   -0.00253272    0.00260238
     atom   34 type  2   force =    -0.00524981   -0.01198116    0.01403623
     atom   35 type  2   force =    -0.00478218    0.00400975    0.00778367
     atom   36 type  3   force =    -0.04368535    0.03418180    0.00543685
     The non-local contrib.  to forces
     atom    1 type  1   force =     0.00097397    0.02606555   -0.01345731
     atom    2 type  2   force =    -0.00204857   -0.00466066   -0.27343906
     atom    3 type  2   force =    -0.01028656   -0.00966942    0.26548517
     atom    4 type  1   force =    -0.00004382    0.02447023    0.00326436
     atom    5 type  2   force =     0.00554185   -0.03121343   -0.25640157
     atom    6 type  2   force =    -0.00490215    0.00538093    0.26635217
     atom    7 type  1   force =    -0.02740630   -0.02914646   -0.02444710
     atom    8 type  2   force =     0.18749403    0.14135013   -0.08192847
     atom    9 type  2   force =     0.00971776   -0.01017920    0.27142039
     atom   10 type  1   force =     0.00809712    0.00340951   -0.00490320
     atom   11 type  2   force =     0.00646300    0.00536986   -0.26675155
     atom   12 type  2   force =    -0.00837857   -0.01460725    0.25931935
     atom   13 type  1   force =    -0.00036129    0.02358836   -0.00866531
     atom   14 type  2   force =     0.00812804   -0.01063764   -0.26516642
     atom   15 type  2   force =    -0.00859055   -0.00676405    0.25969542
     atom   16 type  1   force =     0.00200241    0.03526853   -0.03359418
     atom   17 type  2   force =     0.00094429   -0.02517302   -0.25233246
     atom   18 type  2   force =    -0.00079775    0.00094819    0.27064065
     atom   19 type  1   force =     0.01994033   -0.01526598   -0.02131668
     atom   20 type  2   force =     0.00079665   -0.01963433    0.26284960
     atom   21 type  1   force =    -0.00210258    0.03085952    0.00658346
     atom   22 type  2   force =    -0.00306041   -0.00082554   -0.26467932
     atom   23 type  2   force =     0.00593243   -0.01368937    0.26341648
     atom   24 type  1   force =     0.00800979    0.02669234   -0.01270106
     atom   25 type  2   force =    -0.00030588   -0.00135263   -0.27059115
     atom   26 type  2   force =     0.00113398   -0.01363271    0.26565690
     atom   27 type  1   force =    -0.00228705    0.01381464    0.01075517
     atom   28 type  2   force =    -0.00364839   -0.02596385   -0.27687470
     atom   29 type  2   force =     0.00574196    0.00077445    0.26643313
     atom   30 type  1   force =    -0.00373919    0.00280040    0.00136444
     atom   31 type  2   force =     0.01722971   -0.01214868   -0.25276517
     atom   32 type  2   force =    -0.00408466   -0.01136149    0.26693473
     atom   33 type  1   force =     0.00381170   -0.00598289    0.00917457
     atom   34 type  2   force =    -0.05491804   -0.31220112   -0.20687669
     atom   35 type  2   force =     0.00009756   -0.01950256    0.26616718
     atom   36 type  3   force =    -0.28276922    0.28538611   -0.60629793
     The ionic contribution  to forces
     atom    1 type  1   force =    -0.23286896    0.71476397    4.89230669
     atom    2 type  2   force =    -0.51543413    0.67288119   39.12052682
     atom    3 type  2   force =    -0.19507067    0.07349848  -36.83385016
     atom    4 type  1   force =    -0.46042609   -1.19522068   -1.56946760
     atom    5 type  2   force =    -1.24890886    0.95517606   38.36727391
[...]
     atom   28 type  2   force =     0.00199485   -0.01285357   -0.27661354
     atom   29 type  2   force =    -0.00151433   -0.00836675    0.27077721
     atom   30 type  1   force =    -0.00007101    0.03042580    0.01876940
     atom   31 type  2   force =    -0.00882459    0.00456775   -0.27156716
     atom   32 type  2   force =     0.00643309   -0.01344051    0.26854942
     atom   33 type  1   force =    -0.01068963   -0.00131745    0.02016560
     atom   34 type  2   force =    -0.00157282   -0.00894281    0.29670383
     atom   35 type  2   force =    -0.00019504   -0.01445483    0.27701654
     atom   36 type  3   force =     0.01494320    0.03092419   -2.31725092
     The ionic contribution  to forces
     atom    1 type  1   force =    -0.58892049    1.25778546    1.48503326
     atom    2 type  2   force =    -0.71789972    1.12302617   38.24223811
     atom    3 type  2   force =     0.03415850    0.15937011  -38.31100652
     atom    4 type  1   force =    -0.37238056   -0.24953540   -0.67637020
     atom    5 type  2   force =    -0.94433904    1.10993716   38.13897879
     atom    6 type  2   force =     0.09419794   -0.37772865  -38.44357923
     atom    7 type  1   force =    -3.30806835   -2.47905040    1.11976587
     atom    8 type  2   force =    -1.78220371   -0.83200717   37.61386384
     atom    9 type  2   force =     0.22470987   -0.10270243  -38.78905751
     atom   10 type  1   force =    -1.41546236    0.27382089   -1.36714472
     atom   11 type  2   force =    -1.43171367   -1.48862207   37.84379198
     atom   12 type  2   force =     0.10155795    0.29174178  -38.77608390
     atom   13 type  1   force =     0.59911318    1.26070293    1.88329528
     atom   14 type  2   force =     0.00311685    0.28738060   38.28194718
     atom   15 type  2   force =    -0.03121432    0.03492345  -37.87777404
     atom   16 type  1   force =    -0.02863263    3.18719169    1.34036407
     atom   17 type  2   force =     0.96109269    1.11467927   38.22207447
     atom   18 type  2   force =    -0.11973558   -0.36852417  -38.31208231
     atom   19 type  1   force =     3.26373481   -2.45956283    1.15716586
     atom   20 type  2   force =    -0.03346258   -0.14860243  -39.03775893
     atom   21 type  1   force =    -0.04918284    0.09499211   -0.22632234
     atom   22 type  2   force =     1.40550809   -1.48800492   37.85247679
     atom   23 type  2   force =    -0.13619687    0.29010791  -38.69464449
     atom   24 type  1   force =     0.00663312    1.36936524    0.97146961
     atom   25 type  2   force =     0.70310228    1.10557486   38.32941512
     atom   26 type  2   force =    -0.00612182    0.14612574  -38.27598902
     atom   27 type  1   force =     0.40300928   -0.25320781   -0.14180537
     atom   28 type  2   force =    -0.00927860    0.44614879   37.84146343
     atom   29 type  2   force =     0.02014418   -0.13875508  -38.03311938
     atom   30 type  1   force =     0.03909597   -1.77717676   -2.16929086
     atom   31 type  2   force =     1.77938846   -0.79062785   37.66891618
     atom   32 type  2   force =    -0.18797157   -0.11970649  -38.73562168
     atom   33 type  1   force =     1.46611046    0.22830054   -1.03997421
     atom   34 type  2   force =     0.06025491   -0.39704581   28.64485516
     atom   35 type  2   force =     0.03458317    0.15415074  -38.18189786
     atom   36 type  3   force =    -0.03672701   -0.46446518   50.45240759
     The local contribution  to forces
     atom    1 type  1   force =     0.59201571   -1.28233484   -1.48050289
     atom    2 type  2   force =     0.71832024   -1.11169782  -37.99186588
     atom    3 type  2   force =    -0.03183537   -0.14978778   38.06636439
     atom    4 type  1   force =     0.37029062    0.24534973    0.67377753
     atom    5 type  2   force =     0.94020303   -1.08733592  -37.90315295
     atom    6 type  2   force =    -0.09492886    0.38000143   38.19854120
     atom    7 type  1   force =     3.32266602    2.47420431   -1.09796881
     atom    8 type  2   force =     1.77397357    0.82777670  -37.36394094
     atom    9 type  2   force =    -0.21944284    0.11544976   38.54186916
     atom   10 type  1   force =     1.40501863   -0.27186800    1.34632304
     atom   11 type  2   force =     1.42825737    1.48560533  -37.60112641
     atom   12 type  2   force =    -0.09407029   -0.27858864   38.53527417
     atom   13 type  1   force =    -0.60199101   -1.28458622   -1.87878619
     atom   14 type  2   force =    -0.00281355   -0.27698901  -38.02962797
     atom   15 type  2   force =     0.03082576   -0.02319275   37.63323233
     atom   16 type  1   force =     0.02843519   -3.22151960   -1.30400727
     atom   17 type  2   force =    -0.95632000   -1.09233031  -37.98636488
     atom   18 type  2   force =     0.11994975    0.37100945   38.06647437
     atom   19 type  1   force =    -3.27814987    2.45509499   -1.13442359
     atom   20 type  2   force =     0.03306139    0.15957237   38.79437816
     atom   21 type  1   force =     0.04828408   -0.12557170    0.21459829
     atom   22 type  2   force =    -1.40162446    1.48479280  -37.60957104
     atom   23 type  2   force =     0.12834700   -0.27655020   38.45318637
     atom   24 type  1   force =    -0.00684630   -1.38260447   -0.97013054
     atom   25 type  2   force =    -0.70375193   -1.09445340  -38.07949328
     atom   26 type  2   force =     0.00405531   -0.13663319   38.03188383
     atom   27 type  1   force =    -0.40004987    0.24894039    0.13920035
     atom   28 type  2   force =     0.00879884   -0.43407766  -37.58525302
     atom   29 type  2   force =    -0.01947227    0.14686352   37.78407136
     atom   30 type  1   force =    -0.03891096    1.74614016    2.15053900
     atom   31 type  2   force =    -1.77125751    0.78673591  -37.41907858
     atom   32 type  2   force =     0.18296273    0.13196543   38.48840161
     atom   33 type  1   force =    -1.45550482   -0.22786251    1.01938803
     atom   34 type  2   force =    -0.05880383    0.40433097  -28.93043056
     atom   35 type  2   force =    -0.03433650   -0.14066838   37.92610623
     atom   36 type  3   force =     0.02250779    0.43453466  -48.16054867
     The core correction contribution to forces
     atom    1 type  1   force =     0.00000000    0.00000000    0.00000000
     atom    2 type  2   force =     0.00004083    0.00045367    0.02123389
     atom    3 type  2   force =     0.00019149    0.00043507   -0.02083073
     atom    4 type  1   force =     0.00000000    0.00000000    0.00000000
     atom    5 type  2   force =    -0.00036604    0.00105140    0.02047058
     atom    6 type  2   force =     0.00011914   -0.00031166   -0.02087637
     atom    7 type  1   force =     0.00000000    0.00000000    0.00000000
     atom    8 type  2   force =    -0.00044355    0.00008937    0.02129445
     atom    9 type  2   force =     0.00054200    0.00072502   -0.02097914
     atom   10 type  1   force =     0.00000000    0.00000000    0.00000000
     atom   11 type  2   force =     0.00004845   -0.00041528    0.02103692
     atom   12 type  2   force =     0.00065544    0.00089509   -0.02073987
     atom   13 type  1   force =     0.00000000    0.00000000    0.00000000
     atom   14 type  2   force =     0.00004433    0.00014781    0.02112829
     atom   15 type  2   force =    -0.00004668    0.00056028   -0.02070859
     atom   16 type  1   force =     0.00000000    0.00000000    0.00000000
     atom   17 type  2   force =     0.00043638    0.00108830    0.02050137
     atom   18 type  2   force =    -0.00019757   -0.00031607   -0.02084478
     atom   19 type  1   force =     0.00000000    0.00000000    0.00000000
     atom   20 type  2   force =     0.00003714    0.00054097   -0.02127531
     atom   21 type  1   force =     0.00000000    0.00000000    0.00000000
     atom   22 type  2   force =     0.00001208   -0.00045226    0.02102829
     atom   23 type  2   force =    -0.00067164    0.00090679   -0.02073191
     atom   24 type  1   force =     0.00000000    0.00000000    0.00000000
     atom   25 type  2   force =    -0.00007900    0.00050712    0.02124026
     atom   26 type  2   force =    -0.00017076    0.00046142   -0.02084978
     atom   27 type  1   force =     0.00000000    0.00000000    0.00000000
     atom   28 type  2   force =    -0.00011924    0.00084874    0.02125469
     atom   29 type  2   force =     0.00009065    0.00021409   -0.02090017
     atom   30 type  1   force =     0.00000000    0.00000000    0.00000000
     atom   31 type  2   force =     0.00044401    0.00012149    0.02130903
     atom   32 type  2   force =    -0.00056144    0.00069310   -0.02098119
     atom   33 type  1   force =     0.00000000    0.00000000    0.00000000
     atom   34 type  2   force =     0.00008652    0.00038738   -0.00973062
     atom   35 type  2   force =     0.00003054    0.00081600   -0.02131960
     atom   36 type  3   force =    -0.00016115   -0.00034631    0.02457195
     The Hubbard contrib.    to forces
     atom    1 type  1   force =     0.00000000    0.00000000    0.00000000
     atom    2 type  2   force =     0.00000000    0.00000000    0.00000000
     atom    3 type  2   force =     0.00000000    0.00000000    0.00000000
     atom    4 type  1   force =     0.00000000    0.00000000    0.00000000
     atom    5 type  2   force =     0.00000000    0.00000000    0.00000000
     atom    6 type  2   force =     0.00000000    0.00000000    0.00000000
     atom    7 type  1   force =     0.00000000    0.00000000    0.00000000
     atom    8 type  2   force =     0.00000000    0.00000000    0.00000000
     atom    9 type  2   force =     0.00000000    0.00000000    0.00000000
     atom   10 type  1   force =     0.00000000    0.00000000    0.00000000
     atom   11 type  2   force =     0.00000000    0.00000000    0.00000000
     atom   12 type  2   force =     0.00000000    0.00000000    0.00000000
     atom   13 type  1   force =     0.00000000    0.00000000    0.00000000
     atom   14 type  2   force =     0.00000000    0.00000000    0.00000000
     atom   15 type  2   force =     0.00000000    0.00000000    0.00000000
     atom   16 type  1   force =     0.00000000    0.00000000    0.00000000
     atom   17 type  2   force =     0.00000000    0.00000000    0.00000000
     atom   18 type  2   force =     0.00000000    0.00000000    0.00000000
     atom   19 type  1   force =     0.00000000    0.00000000    0.00000000
     atom   20 type  2   force =     0.00000000    0.00000000    0.00000000
     atom   21 type  1   force =     0.00000000    0.00000000    0.00000000
     atom   22 type  2   force =     0.00000000    0.00000000    0.00000000
     atom   23 type  2   force =     0.00000000    0.00000000    0.00000000
     atom   24 type  1   force =     0.00000000    0.00000000    0.00000000
     atom   25 type  2   force =     0.00000000    0.00000000    0.00000000
     atom   26 type  2   force =     0.00000000    0.00000000    0.00000000
     atom   27 type  1   force =     0.00000000    0.00000000    0.00000000
     atom   28 type  2   force =     0.00000000    0.00000000    0.00000000
     atom   29 type  2   force =     0.00000000    0.00000000    0.00000000
     atom   30 type  1   force =     0.00000000    0.00000000    0.00000000
     atom   31 type  2   force =     0.00000000    0.00000000    0.00000000
     atom   32 type  2   force =     0.00000000    0.00000000    0.00000000
     atom   33 type  1   force =     0.00000000    0.00000000    0.00000000
     atom   34 type  2   force =     0.00000000    0.00000000    0.00000000
     atom   35 type  2   force =     0.00000000    0.00000000    0.00000000
     atom   36 type  3   force =     0.00000000    0.00000000    0.00000000
     The SCF correction term to forces
     atom    1 type  1   force =     0.00000339    0.00000890    0.00000326
     atom    2 type  2   force =    -0.00000406   -0.00000004    0.00000668
     atom    3 type  2   force =    -0.00000041    0.00001382   -0.00000111
     atom    4 type  1   force =    -0.00001658   -0.00001410   -0.00003538
     atom    5 type  2   force =    -0.00000105   -0.00001955   -0.00000342
     atom    6 type  2   force =     0.00000810   -0.00000370   -0.00001545
     atom    7 type  1   force =     0.00001271    0.00002137   -0.00000910
     atom    8 type  2   force =    -0.00001184    0.00002272    0.00000760
     atom    9 type  2   force =    -0.00001153    0.00000558   -0.00001968
     atom   10 type  1   force =     0.00001349   -0.00000852    0.00003210
     atom   11 type  2   force =    -0.00000605   -0.00000406    0.00001865
     atom   12 type  2   force =     0.00000120   -0.00002523   -0.00000392
     atom   13 type  1   force =    -0.00000304    0.00000050    0.00003564
     atom   14 type  2   force =     0.00000402   -0.00000182    0.00001584
     atom   15 type  2   force =     0.00002479    0.00001448    0.00000412
     atom   16 type  1   force =     0.00000393   -0.00000009   -0.00002751
     atom   17 type  2   force =    -0.00000171   -0.00000843    0.00000796
     atom   18 type  2   force =     0.00000188    0.00001181   -0.00000694
     atom   19 type  1   force =     0.00002637    0.00000146    0.00000325
     atom   20 type  2   force =     0.00001405    0.00000133   -0.00001504
     atom   21 type  1   force =     0.00003019   -0.00001566    0.00004407
     atom   22 type  2   force =     0.00000721    0.00000186    0.00001901
     atom   23 type  2   force =     0.00000789   -0.00001863   -0.00000031
     atom   24 type  1   force =    -0.00001474    0.00000867    0.00001156
     atom   25 type  2   force =     0.00000036    0.00000272    0.00000739
     atom   26 type  2   force =    -0.00001289    0.00001444    0.00001023
     atom   27 type  1   force =    -0.00001945   -0.00000820   -0.00002193
     atom   28 type  2   force =     0.00000851   -0.00001646   -0.00000193
     atom   29 type  2   force =     0.00000278    0.00000257   -0.00000553
     atom   30 type  1   force =    -0.00001473    0.00001379    0.00000897
     atom   31 type  2   force =    -0.00000243    0.00000379    0.00000645
     atom   32 type  2   force =    -0.00000460   -0.00001338   -0.00001127
     atom   33 type  1   force =    -0.00003121   -0.00001084    0.00005282
     atom   34 type  2   force =    -0.00001422    0.00000028    0.00000733
     atom   35 type  2   force =    -0.00001234   -0.00000330    0.00000378
     atom   36 type  3   force =    -0.00005229   -0.00001291   -0.00001873

     Total force =     0.005545     Total SCF correction =     0.000162
     Energy error            =      9.3E-05 Ry
     Gradient error          =      1.4E-03 Ry/Bohr

     bfgs converged in  32 scf cycles and  31 bfgs steps
     (criteria: energy <  1.0E-04 Ry, force <  1.0E-02 Ry/Bohr)

     End of BFGS Geometry Optimization

     Final energy             =   -2246.4498861124 Ry

     File ./MoS2-V-O.bfgs deleted, as requested
Begin final coordinates

ATOMIC_POSITIONS (angstrom)
Mo            6.5585572380        1.7117443291        2.7577551711
S             8.1247533684        0.7992171867        4.3703010916
S             8.1333776526        0.8108406863        1.1644772968
Mo            8.1115417711        4.4527354305        2.7088073046
S             6.5175250964        3.6185397757        4.3070422503
S             6.5444827720        3.5180186623        1.1123996617
Mo            6.5155782174        7.1384811821        2.6668925967
S             8.0785493184        6.2574362974        4.3042510472
S             8.1225470122        6.2698344611        1.0966538554
Mo            8.1078906285        9.9068378711        2.7506282450
S             6.5220808239        8.9032432912        4.3206573645
S             6.5746115794        8.9760742925        1.1136782009
Mo            3.4180557723        1.7119271316        2.7651635910
S             4.9917002803        0.7625773059        4.3462475905
S             4.9862741508        0.7938323902        1.1746293740
Mo            4.9885528612        4.4925618018        2.6623514584
S             3.4619294628        3.6229541920        4.3157239017
S             3.4271759712        3.5176571452        1.1229153552
Mo            3.4618716318        7.1364814379        2.6682579313
S             4.9908132481        6.2661122625        1.0475662584
Mo            4.9899988698        9.8501646530        2.7291989685
S             3.4592900426        8.9015703082        4.3223568488
S             3.4026261054        8.9753649505        1.1188185899
Mo            0.2600456062        1.6955357635        2.7681910382
S             1.8500871047        0.8045027571        4.3766136168
S             1.8457106682        0.8128564323        1.1671320527
Mo            1.8621686569        4.4530765723        2.7184675350
S             0.2520630581        3.5624049043        4.3145989311
S             0.2633919706        3.5154902620        1.1489538405
Mo            0.2597778072        7.1396841308        2.7211553655
S             1.8964074696        6.2590094524        4.3094090104
S             1.8525460984        6.2679015669        1.1008349113
Mo            1.8699769280        9.9100958561        2.7562902023
S             0.2582916359        8.9797964009        4.2588962736
S             0.2629538127        9.0065983675        1.1810091930
O             9.7059023209        8.9657202331        5.7579968954
End final coordinates



     Writing all to output data dir ./MoS2-V-O.save/
 
     init_run     :      5.40s CPU      5.90s WALL (       1 calls)
     electrons    :   3283.45s CPU   3811.53s WALL (      32 calls)
     update_pot   :    101.28s CPU    110.12s WALL (      31 calls)
     forces       :    100.19s CPU    119.37s WALL (      32 calls)

     Called by init_run:
     wfcinit      :      0.50s CPU      0.54s WALL (       1 calls)
     potinit      :      3.13s CPU      3.36s WALL (       1 calls)
     hinit0       :      0.47s CPU      0.49s WALL (       1 calls)

     Called by electrons:
     c_bands      :    468.43s CPU    480.46s WALL (     308 calls)
     sum_band     :    196.09s CPU    301.91s WALL (     308 calls)
     v_of_rho     :    407.50s CPU    510.44s WALL (     330 calls)
     newd         :    116.93s CPU    200.01s WALL (     330 calls)
     PAW_pot      :     13.06s CPU     13.13s WALL (     361 calls)
     mix_rho      :   2121.88s CPU   2355.10s WALL (     308 calls)

     Called by c_bands:
     init_us_2    :      7.06s CPU      7.59s WALL (     648 calls)
     init_us_2:cp :      7.05s CPU      7.59s WALL (     648 calls)
     regterg      :    445.45s CPU    456.93s WALL (     308 calls)

     Called by *egterg:
     rdiaghg      :     29.86s CPU     30.17s WALL (    1725 calls)
     h_psi        :    285.54s CPU    287.92s WALL (    1767 calls)
     s_psi        :     26.24s CPU     26.34s WALL (    1767 calls)
     g_psi        :      1.67s CPU      1.69s WALL (    1458 calls)

     Called by h_psi:
     h_psi:calbec :     30.72s CPU     30.89s WALL (    1767 calls)
     vloc_psi     :    224.86s CPU    226.89s WALL (    1767 calls)
     add_vuspsi   :     26.37s CPU     26.51s WALL (    1767 calls)

     General routines
     calbec       :     44.08s CPU     44.34s WALL (    2234 calls)
     fft          :    279.37s CPU    311.78s WALL (   21995 calls)
     ffts         :    950.11s CPU   1174.61s WALL (  519482 calls)
     fftw         :    147.73s CPU    148.93s WALL (  190820 calls)
     interpolate  :      4.19s CPU      4.77s WALL (     330 calls)
 
     Parallel routines
 
     PWSCF        :  58m25.94s CPU      1h 7m WALL

 
   This run was terminated on:  21: 4:43   1Nov2023            

=------------------------------------------------------------------------------=
   JOB DONE.
=------------------------------------------------------------------------------=
