
     Program PWSCF v.7.2 starts on  1Nov2023 at 14:43: 0 

     This program is part of the open-source Quantum ESPRESSO suite
     for quantum simulation of materials; please cite
         "P. Giannozzi et al., J. Phys.:Condens. Matter 21 395502 (2009);
         "P. Giannozzi et al., J. Phys.:Condens. Matter 29 465901 (2017);
         "P. Giannozzi et al., J. Chem. Phys. 152 154105 (2020);
          URL http://www.quantum-espresso.org", 
     in publications or presentations arising from this work. More details at
     http://www.quantum-espresso.org/quote

     Parallel version (MPI & OpenMP), running on      48 processor cores
     Number of MPI processes:                48
     Threads/MPI process:                     1

     MPI processes distributed on     1 nodes
     78599 MiB available memory on the printing compute node when the environment starts
 
     Waiting for input...
     Reading input from standard input
Warning: card &CELL ignored
Warning: card CELL_DYNAMICS = 'BFGS', ignored
Warning: card CELL_DOFREE = '2DXY' ignored
Warning: card / ignored

     Current dimensions of program PWSCF are:
     Max number of different atomic species (ntypx) = 10
     Max number of k-points (npk) =  40000
     Max angular momentum in pseudopotentials (lmaxx) =  4
     file O.pbe-n-kjpaw_psl.0.1.UPF: wavefunction(s)  2P renormalized

     IMPORTANT: XC functional enforced from input :
     Exchange-correlation= RVV10
                           (   1   4  13   4  26   0   0)
     Any further DFT definition will be discarded
     Please, verify this is what you really want


     gamma-point specific algorithms are used
     signal trapping enabled: kill the code with -SIGUSR1 to stop cleanly the simulation 
 
     R & G space division:  proc/nbgrp/npool/nimage =      48
     Subspace diagonalization in iterative solution of the eigenvalue problem:
     one sub-group per band group will be used
     scalapack distributed-memory algorithm (size of sub-group:  2*  2 procs)

 
     Parallelization info
     --------------------
     sticks:   dense  smooth     PW     G-vecs:    dense   smooth      PW
     Min         396     194     47               101632    35090    4376
     Max         398     196     50               101674    35128    4410
     Sum       19091    9389   2349              4879585  1685513  210763
 
     Using Slab Decomposition
 


     bravais-lattice index     =            0
     lattice parameter (alat)  =      17.8707  a.u.
     unit-cell volume          =   17436.2743 (a.u.)^3
     number of atoms/cell      =           36
     number of atomic types    =            3
     number of electrons       =       312.00
     number of Kohn-Sham states=          187
     kinetic-energy cutoff     =      80.0000  Ry
     charge density cutoff     =     650.0000  Ry
     scf convergence threshold =      1.0E-06
     mixing beta               =       0.7000
     number of iterations used =            8  local-TF  mixing
     energy convergence thresh.=      1.0E-04
     force convergence thresh. =      1.0E-02
     Exchange-correlation= RVV10
                           (   1   4  13   4  26   0   0)
     nstep                     =          200


     celldm(1)=  17.870686  celldm(2)=   0.000000  celldm(3)=   0.000000
     celldm(4)=   0.000000  celldm(5)=   0.000000  celldm(6)=   0.000000

     crystal axes: (cart. coord. in units of alat)
               a(1) = (   1.000000   0.000000   0.000000 )  
               a(2) = (   0.000000   1.155671   0.000000 )  
               a(3) = (   0.000000   0.000000   2.643601 )  

     reciprocal axes: (cart. coord. in units 2 pi/alat)
               b(1) = (  1.000000  0.000000  0.000000 )  
               b(2) = (  0.000000  0.865298  0.000000 )  
               b(3) = (  0.000000  0.000000  0.378272 )  


     PseudoPot. # 1 for Mo read from file:
     ../pseudo/Mo_ONCV_PBE-1.0.oncvpsp.upf
     MD5 check sum: 1b5d28e075c9ccadda658a603575cd1f
     Pseudo is Norm-conserving, Zval = 14.0
     Generated using ONCVPSP code by D. R. Hamann
     Using radial grid of 1526 points,  6 beta functions with: 
                l(1) =   0
                l(2) =   0
                l(3) =   1
                l(4) =   1
                l(5) =   2
                l(6) =   2

     PseudoPot. # 2 for S  read from file:
     ../pseudo/s_pbe_v1.4.uspp.F.UPF
     MD5 check sum: 88d86576ff6df21479756cfb9bdac1df
     Pseudo is Ultrasoft + core correction, Zval =  6.0
     Generated by new atomic code, or converted to UPF format
     Using radial grid of  907 points,  6 beta functions with: 
                l(1) =   0
                l(2) =   0
                l(3) =   1
                l(4) =   1
                l(5) =   2
                l(6) =   2
     Q(r) pseudized with  8 coefficients,  rinner =    1.300   1.300   1.300
                                                       1.300   1.300

     PseudoPot. # 3 for O  read from file:
     ../pseudo/O.pbe-n-kjpaw_psl.0.1.UPF
     MD5 check sum: 0234752ac141de4415c5fc33072bef88
     Pseudo is Projector augmented-wave + core cor, Zval =  6.0
     Generated using "atomic" code by A. Dal Corso  v.5.0.99 svn rev. 10869
     Shape of augmentation charge: BESSEL
     Using radial grid of 1095 points,  4 beta functions with: 
                l(1) =   0
                l(2) =   0
                l(3) =   1
                l(4) =   1
     Q(r) pseudized with 0 coefficients 


     atomic species   valence    mass     pseudopotential
        Mo            14.00    95.94000     Mo( 1.00)
        S              6.00    32.06500     S ( 1.00)
        O              6.00    15.99940     O ( 1.00)

     No symmetry found



   Cartesian axes

     site n.     atom                  positions (alat units)
         1           Mo  tau(   1) = (   0.6952221   0.1890506   0.2985846  )
         2           S   tau(   2) = (   0.8646417   0.0856217   0.4689279  )
         3           S   tau(   3) = (   0.8663890   0.0857843   0.1351291  )
         4           Mo  tau(   4) = (   0.8560186   0.4753274   0.2873942  )
         5           S   tau(   5) = (   0.6873294   0.3936244   0.4596353  )
         6           S   tau(   6) = (   0.6929804   0.3713468   0.1185692  )
         7           Mo  tau(   7) = (   0.6862796   0.7633098   0.2825370  )
         8           S   tau(   8) = (   0.8545980   0.6708292   0.4486168  )
         9           S   tau(   9) = (   0.8545123   0.6666874   0.1146125  )
        10           Mo  tau(  10) = (   0.8629403   1.0471007   0.3006803  )
        11           S   tau(  11) = (   0.6868280   0.9456650   0.4634891  )
        12           S   tau(  12) = (   0.6998113   0.9568511   0.1205389  )
        13           Mo  tau(  13) = (   0.3618216   0.1847309   0.2935964  )
        14           S   tau(  14) = (   0.5260962   0.0863870   0.4600448  )
        15           S   tau(  15) = (   0.5348379   0.0894875   0.1297123  )
        16           Mo  tau(  16) = (   0.5265817   0.4772436   0.2784130  )
        17           S   tau(  17) = (   0.3624753   0.3882513   0.4525556  )
        18           S   tau(  18) = (   0.3635411   0.3752055   0.1119148  )
        19           Mo  tau(  19) = (   0.3652268   0.7630864   0.2781795  )
        20           S   tau(  20) = (   0.5269494   0.6690381   0.1096838  )
        21           Mo  tau(  21) = (   0.5300192   1.0470394   0.2900995  )
        22           S   tau(  22) = (   0.3670346   0.9457522   0.4574073  )
        23           S   tau(  23) = (   0.3604225   0.9585725   0.1159032  )
        24           Mo  tau(  24) = (   0.0313099   0.1847895   0.3013130  )
        25           S   tau(  25) = (   0.1956761   0.0838230   0.4650863  )
        26           S   tau(  26) = (   0.1967693   0.0903508   0.1278874  )
        27           Mo  tau(  27) = (   0.1967578   0.4753919   0.2813011  )
        28           S   tau(  28) = (   0.0287851   0.3864324   0.4586755  )
        29           S   tau(  29) = (   0.0244514   0.3729871   0.1239344  )
        30           Mo  tau(  30) = (   0.0286728   0.7631204   0.2856894  )
        31           S   tau(  31) = (   0.2011512   0.6675435   0.4465001  )
        32           S   tau(  32) = (   0.1969214   0.6672839   0.1104564  )
        33           Mo  tau(  33) = (   0.1950294   1.0511147   0.2932237  )
        34           S   tau(  34) = (   0.0312912   0.9612169   0.4667423  )
        35           S   tau(  35) = (   0.0292670   0.9563028   0.1216485  )
        36           O   tau(  36) = (   0.0000000   0.3852236   0.5650415  )

     number of k points=     1  Gaussian smearing, width (Ry)=  0.0100
                       cart. coord. in units 2pi/alat
        k(    1) = (   0.0000000   0.0000000   0.0000000), wk =   2.0000000

     Dense  grid:  2439793 G-vectors     FFT dimensions: ( 150, 180, 384)

     Smooth grid:   842757 G-vectors     FFT dimensions: ( 108, 120, 270)

     Estimated max dynamical RAM per process >     269.22 MB

     Estimated total dynamical RAM >      12.62 GB

     Initial potential from superposition of free atoms

     starting charge     311.9873, renormalised to     312.0000

     negative rho (up, down):  2.746E-04 0.000E+00


---------------------------------------------------------------------------------
Carrying out rVV10 run using the following parameters:
Nqs =      20    Nr_points =    1024   r_max =   100.000
b_value =  6.30000    beta =  0.00901
     q_mesh =  0.00010000  0.00030000  0.00058939  0.00100810
               0.00161396  0.00249058  0.00375900  0.00559430
               0.00824984  0.01209221  0.01765183  0.02569619
               0.03733578  0.05417739  0.07854596  0.11380545
               0.16482331  0.23864234  0.34545298  0.50000000

Gradients computed in Reciprocal space

---------------------------------------------------------------------------------


     Starting wfcs are  216 randomized atomic wfcs
     Checking if some PAW data can be deallocated... 

     total cpu time spent up to now is        5.3 secs

     Self-consistent Calculation

     iteration #  1     ecut=    80.00 Ry     beta= 0.70
     Davidson diagonalization with overlap
     ethr =  1.00E-02,  avg # of iterations =  3.0

     Threshold (ethr) on eigenvalues was too large:
     Diagonalizing with lowered threshold

     Davidson diagonalization with overlap
     ethr =  5.76E-04,  avg # of iterations =  2.0

     negative rho (up, down):  4.630E-08 0.000E+00

     total cpu time spent up to now is       21.9 secs

     total energy              =   -2245.29399724 Ry
     estimated scf accuracy    <       2.04239433 Ry

     iteration #  2     ecut=    80.00 Ry     beta= 0.70
     Davidson diagonalization with overlap
     ethr =  6.55E-04,  avg # of iterations =  4.0

     total cpu time spent up to now is       26.7 secs

     total energy              =   -2245.29376050 Ry
     estimated scf accuracy    <       0.60415493 Ry

     iteration #  3     ecut=    80.00 Ry     beta= 0.70
     Davidson diagonalization with overlap
     ethr =  1.94E-04,  avg # of iterations =  2.0

     total cpu time spent up to now is       30.7 secs

     total energy              =   -2245.32351788 Ry
     estimated scf accuracy    <       0.10306660 Ry

     iteration #  4     ecut=    80.00 Ry     beta= 0.70
     Davidson diagonalization with overlap
     ethr =  3.30E-05,  avg # of iterations = 16.0

     total cpu time spent up to now is       35.6 secs

     total energy              =   -2245.33707548 Ry
     estimated scf accuracy    <       0.02405542 Ry

     iteration #  5     ecut=    80.00 Ry     beta= 0.70
     Davidson diagonalization with overlap
     ethr =  7.71E-06,  avg # of iterations =  2.0

     total cpu time spent up to now is       39.3 secs

     total energy              =   -2245.33685822 Ry
     estimated scf accuracy    <       0.01500868 Ry

     iteration #  6     ecut=    80.00 Ry     beta= 0.70
     Davidson diagonalization with overlap
     ethr =  4.81E-06,  avg # of iterations =  1.0

     total cpu time spent up to now is       42.9 secs

     total energy              =   -2245.33548778 Ry
     estimated scf accuracy    <       0.00995847 Ry

     iteration #  7     ecut=    80.00 Ry     beta= 0.70
     Davidson diagonalization with overlap
     ethr =  3.19E-06,  avg # of iterations =  2.0

     negative rho (up, down):  8.057E-05 0.000E+00

     total cpu time spent up to now is       49.4 secs

     total energy              =   -2245.33463129 Ry
     estimated scf accuracy    <       0.00555217 Ry

     iteration #  8     ecut=    80.00 Ry     beta= 0.70
     Davidson diagonalization with overlap
     ethr =  1.78E-06,  avg # of iterations = 14.0

     negative rho (up, down):  1.814E-02 0.000E+00

     total cpu time spent up to now is       56.4 secs

     total energy              =   -2245.33404342 Ry
     estimated scf accuracy    <       0.00342628 Ry

     iteration #  9     ecut=    80.00 Ry     beta= 0.70
     Davidson diagonalization with overlap
     ethr =  1.10E-06,  avg # of iterations =  1.0

     negative rho (up, down):  2.943E-02 0.000E+00

     total cpu time spent up to now is       62.8 secs

     total energy              =   -2245.33399677 Ry
     estimated scf accuracy    <       0.00170306 Ry

     iteration # 10     ecut=    80.00 Ry     beta= 0.70
     Davidson diagonalization with overlap
     ethr =  5.46E-07,  avg # of iterations =  2.0

     negative rho (up, down):  2.196E-02 0.000E+00

     total cpu time spent up to now is       69.1 secs

     total energy              =   -2245.33402042 Ry
     estimated scf accuracy    <       0.00059820 Ry

     iteration # 11     ecut=    80.00 Ry     beta= 0.70
     Davidson diagonalization with overlap
     ethr =  1.92E-07,  avg # of iterations =  2.0

     negative rho (up, down):  8.756E-03 0.000E+00

     total cpu time spent up to now is       76.6 secs

     total energy              =   -2245.33406551 Ry
     estimated scf accuracy    <       0.00007021 Ry

     iteration # 12     ecut=    80.00 Ry     beta= 0.70
     Davidson diagonalization with overlap
     ethr =  2.25E-08,  avg # of iterations =  7.0

     negative rho (up, down):  3.038E-03 0.000E+00

     total cpu time spent up to now is       85.6 secs

     total energy              =   -2245.33410667 Ry
     estimated scf accuracy    <       0.00001544 Ry

     iteration # 13     ecut=    80.00 Ry     beta= 0.70
     Davidson diagonalization with overlap
     ethr =  4.95E-09,  avg # of iterations =  4.0

     negative rho (up, down):  3.341E-04 0.000E+00

     total cpu time spent up to now is       93.1 secs

     total energy              =   -2245.33410868 Ry
     estimated scf accuracy    <       0.00000344 Ry

     iteration # 14     ecut=    80.00 Ry     beta= 0.70
     Davidson diagonalization with overlap
     ethr =  1.10E-09,  avg # of iterations =  2.0

     negative rho (up, down):  3.023E-04 0.000E+00

     total cpu time spent up to now is       96.6 secs

     End of self-consistent calculation

          k = 0.0000 0.0000 0.0000 (105382 PWs)   bands (ev):

   -62.8511 -62.8169 -62.8107 -62.7999 -62.7991 -62.7920 -62.7882 -62.7839
   -62.7795 -62.7743 -62.6303 -62.6188 -37.2056 -37.1581 -37.1095 -37.0901
   -37.0772 -37.0610 -37.0472 -37.0449 -37.0330 -37.0122 -37.0011 -36.9977
   -36.9883 -36.9776 -36.9750 -36.9716 -36.9636 -36.9583 -36.9484 -36.9472
   -36.9434 -36.9285 -36.9241 -36.9125 -36.8885 -36.8652 -36.8594 -36.8457
   -36.8250 -36.8200 -36.7792 -36.7646 -36.7395 -36.7261 -36.7172 -36.6868
   -30.0580 -15.9116 -15.1239 -15.1025 -14.9485 -14.8372 -14.7614 -14.4863
   -14.4612 -14.4270 -14.3809 -14.3392 -14.2953 -14.2653 -14.2141 -14.1197
   -14.0970 -14.0687 -13.9933 -13.9442 -13.8131 -13.7862 -13.7688 -12.8611
   -12.1216 -12.1101  -8.9519  -7.5515  -7.4011  -7.2439  -7.2341  -7.1770
    -7.1473  -7.1233  -7.0261  -6.7798  -6.7620  -6.6741  -6.6419  -6.5838
    -6.4562  -6.4296  -6.3000  -6.2380  -6.2139  -6.1704  -5.9301  -5.8702
    -5.8419  -5.7435  -5.7237  -5.6995  -5.6619  -5.6308  -5.5983  -5.5587
    -5.5320  -5.4438  -5.4172  -5.3314  -5.2629  -5.1618  -5.0760  -5.0354
    -4.9634  -4.9424  -4.8838  -4.7211  -4.6671  -4.6274  -4.5874  -4.4542
    -4.2841  -4.2259  -4.1627  -4.1203  -4.0645  -3.9733  -3.8571  -3.7757
    -3.7606  -3.6761  -3.6686  -3.5823  -3.5663  -3.4793  -3.4459  -3.4310
    -3.3663  -3.3265  -3.2674  -3.2253  -3.0462  -3.0041  -2.9216  -2.7982
    -2.7427  -2.6979  -2.6616  -2.6588  -2.6134  -2.5826  -2.5276  -2.3864
    -2.3219  -1.9460  -1.8752  -1.8603  -0.8091  -0.7277  -0.1991  -0.1056
    -0.0669  -0.0503   0.0317   0.1725   0.2051   0.2623   0.2891   0.3273
     0.3800   0.4710   0.5025   0.5502   0.5807   0.6267   0.6796   0.7074
     0.7745   0.7995   0.8362   0.8693   0.8927   0.9374   0.9900   1.0369
     1.0932   1.1067   1.2693

     the Fermi energy is    -1.3318 ev

!    total energy              =   -2245.33410877 Ry
     estimated scf accuracy    <       0.00000091 Ry
     smearing contrib. (-TS)   =      -0.00000000 Ry
     internal energy E=F+TS    =   -2245.33410876 Ry

     The total energy is F=E-TS. E is the sum of the following terms:
     one-electron contribution =  -18472.75604945 Ry
     hartree contribution      =    9224.71379048 Ry
     xc contribution           =    -393.06135893 Ry
     ewald contribution        =    7405.58910927 Ry
     one-center paw contrib.   =      -9.81960013 Ry

     convergence has been achieved in  14 iterations

     negative rho (up, down):  3.023E-04 0.000E+00

     Forces acting on atoms (cartesian axes, Ry/au):

     atom    1 type  1   force =     0.01032554   -0.02608521    0.00505599
     atom    2 type  2   force =    -0.01540248    0.01906477    0.00363018
     atom    3 type  2   force =    -0.01648248    0.00842706   -0.00440633
     atom    4 type  1   force =     0.00353879    0.01094934   -0.02000819
     atom    5 type  2   force =     0.00020231   -0.00569943   -0.00665892
     atom    6 type  2   force =    -0.00260263    0.00757916   -0.00042748
     atom    7 type  1   force =     0.00544050   -0.01570749   -0.01050800
     atom    8 type  2   force =     0.00389750   -0.00539355    0.02130483
     atom    9 type  2   force =     0.01382876    0.01113284    0.01029739
     atom   10 type  1   force =    -0.01054415    0.01133697   -0.02747992
     atom   11 type  2   force =     0.00477047   -0.00158497   -0.00795582
     atom   12 type  2   force =    -0.00069937    0.00090010    0.00803559
     atom   13 type  1   force =     0.00671302    0.00155197   -0.00662562
     atom   14 type  2   force =     0.00809377   -0.00040352    0.01188000
     atom   15 type  2   force =    -0.01222063    0.00422096   -0.00913315
     atom   16 type  1   force =     0.00019377    0.00905034    0.00393599
     atom   17 type  2   force =     0.00706436   -0.00143083    0.00151944
     atom   18 type  2   force =    -0.00029094   -0.00961987    0.01138569
     atom   19 type  1   force =     0.00488559   -0.01300652   -0.00690996
     atom   20 type  2   force =     0.00311283   -0.00335763    0.00177477
     atom   21 type  1   force =    -0.00561217    0.00514268    0.00037418
     atom   22 type  2   force =    -0.00279039   -0.00156328   -0.00355301
     atom   23 type  2   force =    -0.00148677    0.00139446    0.01167823
     atom   24 type  1   force =    -0.00370784   -0.00970083   -0.02378373
     atom   25 type  2   force =     0.01684925    0.01993518    0.01000781
     atom   26 type  2   force =    -0.00612248   -0.00195030   -0.00549989
     atom   27 type  1   force =     0.00467406    0.01240829    0.03063814
     atom   28 type  2   force =     0.98740608    0.01378384   -4.00216401
     atom   29 type  2   force =     0.00323316   -0.00006941    0.00513493
     atom   30 type  1   force =    -0.00439691    0.01048153   -0.00395715
     atom   31 type  2   force =    -0.00114732    0.00286302    0.02025515
     atom   32 type  2   force =    -0.01030331    0.00893802    0.00574848
     atom   33 type  1   force =     0.01359282   -0.00344178   -0.00998068
     atom   34 type  2   force =     0.00329458   -0.04381704   -0.00974962
     atom   35 type  2   force =    -0.00814035    0.00787087    0.01479076
     atom   36 type  3   force =    -0.99916695   -0.02419978    3.98135393
     The non-local contrib.  to forces
     atom    1 type  1   force =     0.00091821    0.03393473   -0.01263227
     atom    2 type  2   force =    -0.00678147    0.00754608   -0.26632759
     atom    3 type  2   force =    -0.01962614   -0.00511014    0.26915537
     atom    4 type  1   force =     0.03699487   -0.01558805    0.03968312
     atom    5 type  2   force =     0.00372088   -0.02819149   -0.25053875
     atom    6 type  2   force =    -0.00614558    0.00778185    0.25860632
     atom    7 type  1   force =    -0.01831170    0.00127432   -0.01840687
     atom    8 type  2   force =     0.00907365   -0.01069129   -0.24900701
     atom    9 type  2   force =     0.00830607   -0.00241732    0.27658469
     atom   10 type  1   force =     0.00008345    0.00117223   -0.00079351
     atom   11 type  2   force =     0.01624172    0.00447885   -0.25986996
     atom   12 type  2   force =    -0.01257760   -0.01830322    0.26475910
     atom   13 type  1   force =    -0.00193378    0.02094743   -0.00908241
     atom   14 type  2   force =     0.00979487   -0.01013654   -0.26153743
     atom   15 type  2   force =    -0.01359329   -0.00446796    0.26090073
     atom   16 type  1   force =     0.00192006    0.03327611   -0.02252942
     atom   17 type  2   force =    -0.01262982   -0.02118660   -0.24585753
     atom   18 type  2   force =    -0.00148794   -0.00547670    0.27075143
     atom   19 type  1   force =     0.01305835    0.00051770   -0.01364755
     atom   20 type  2   force =    -0.00024743   -0.02325687    0.26895830
     atom   21 type  1   force =     0.00277881    0.02998970    0.00436159
     atom   22 type  2   force =    -0.00872554    0.00187244   -0.25918018
     atom   23 type  2   force =     0.00711711   -0.01640385    0.26904850
     atom   24 type  1   force =     0.00683449    0.05271777    0.02343543
     atom   25 type  2   force =     0.00119093    0.01609908   -0.25562558
     atom   26 type  2   force =     0.00219350   -0.01554164    0.26160079
     atom   27 type  1   force =    -0.02108628   -0.01303565    0.02544908
     atom   28 type  2   force =     0.64861226    0.04479963   -2.36350399
     atom   29 type  2   force =     0.00761340    0.00191769    0.26698648
     atom   30 type  1   force =    -0.00155089    0.01447815    0.00730197
     atom   31 type  2   force =    -0.01192786   -0.01334265   -0.24670931
     atom   32 type  2   force =    -0.00294129   -0.00692131    0.27371052
     atom   33 type  1   force =    -0.00463447    0.00689499    0.00643647
     atom   34 type  2   force =    -0.00013377   -0.03762844   -0.27272031
     atom   35 type  2   force =    -0.00219718   -0.01171748    0.27165185
     atom   36 type  3   force =     0.65521431    0.08726010   -1.64808833
     The ionic contribution  to forces
     atom    1 type  1   force =    -0.74026400   -0.76016819    3.80534111
     atom    2 type  2   force =    -1.31574963   -1.08000028   38.69917801
     atom    3 type  2   force =    -0.28139935   -0.27285453  -36.85879314
     atom    4 type  1   force =    -1.80910308    1.85663364   -3.81213687
     atom    5 type  2   force =    -2.54062575    1.54723124   38.01962104
     atom    6 type  2   force =     0.12752148   -0.51673366  -38.84902943
     atom    7 type  1   force =    -3.06587308   -2.07642316    1.34439294
     atom    8 type  2   force =    -1.69423098    1.47427776   36.67351861
     atom    9 type  2   force =     0.22445082    0.22162127  -38.77289144
     atom   10 type  1   force =    -1.36968657   -0.82407995    4.50582939
     atom   11 type  2   force =    -0.72516532   -1.56150430   38.96000314
     atom   12 type  2   force =     0.37996820    0.69927124  -38.34381833
     atom   13 type  1   force =     1.27879149    0.21171383    1.25176459
     atom   14 type  2   force =    -0.01598877   -0.38862762   38.27895338
     atom   15 type  2   force =     0.12910018   -0.21376235  -37.36442866
     atom   16 type  1   force =    -0.21383027    4.27108808   -1.06188008
     atom   17 type  2   force =     1.83078113    1.51208249   37.37913384
     atom   18 type  2   force =    -0.00037660   -0.65564859  -39.30974324
     atom   19 type  1   force =     3.06725219   -1.84356482   -0.49798698
     atom   20 type  2   force =     0.20850591   -0.05818825  -39.04193665
     atom   21 type  1   force =    -0.01770259   -0.19098508    0.25644768
     atom   22 type  2   force =     0.58503901   -1.67788257   38.25050463
     atom   23 type  2   force =    -0.03730053    0.67023758  -38.76621578
     atom   24 type  1   force =    -0.16185133   -1.46092907    1.84586720
     atom   25 type  2   force =     1.34778020   -0.84769774   38.78592354
     atom   26 type  2   force =    -0.14841998   -0.18343930  -38.05597239
     atom   27 type  1   force =     1.89196525    1.36056874   -5.81458406
     atom   28 type  2   force =     4.87063925    1.20925952   20.25453519
     atom   29 type  2   force =    -0.21828624   -0.45460450  -38.54167462
     atom   30 type  1   force =    -0.23366820    0.42543306   -1.76951011
     atom   31 type  2   force =     1.97906392    1.07991414   36.72486994
     atom   32 type  2   force =    -0.34854677    0.22287502  -39.35885223
     atom   33 type  1   force =     1.11682817   -1.31495689    0.94155386
     atom   34 type  2   force =     0.27632107   -1.43165279   39.13216840
     atom   35 type  2   force =    -0.28809674    0.48757238  -38.36389339
     atom   36 type  3   force =    -4.08784247    0.56392367   59.47374089
     The local contribution  to forces
     atom    1 type  1   force =     0.74975576    0.70055616   -3.78665004
     atom    2 type  2   force =     1.30715775    1.09230110  -38.44947182
     atom    3 type  2   force =     0.28350601    0.28624063   36.60664976
     atom    4 type  1   force =     1.77569629   -1.83021558    3.75375526
     atom    5 type  2   force =     2.53800939   -1.52634473  -37.79576003
     atom    6 type  2   force =    -0.12458582    0.51749612   38.61134053
     atom    7 type  1   force =     3.08992198    2.05920058   -1.33554028
     atom    8 type  2   force =     1.68968269   -1.47032299  -36.42300287
     atom    9 type  2   force =    -0.21873293   -0.20827474   38.52818983
     atom   10 type  1   force =     1.35902497    0.83432905   -4.53158569
     atom   11 type  2   force =     0.71450329    1.55594407  -38.72867878
     atom   12 type  2   force =    -0.36925776   -0.68150509   38.10866793
     atom   13 type  1   force =    -1.27006347   -0.23074886   -1.24840067
     atom   14 type  2   force =     0.01485357    0.39840724  -38.02602134
     atom   15 type  2   force =    -0.12845057    0.22217163   37.11558448
     atom   16 type  1   force =     0.21219741   -4.29557320    1.08934302
     atom   17 type  2   force =    -1.81211057   -1.49343491  -37.15154462
     atom   18 type  2   force =     0.00170351    0.65197797   39.07193506
     atom   19 type  1   force =    -3.07561129    1.82978251    0.50560996
     atom   20 type  2   force =    -0.20529683    0.07699852   38.79661172
     atom   21 type  1   force =     0.00941441    0.16627232   -0.25963130
     atom   22 type  2   force =    -0.57936555    1.67482935  -38.01537283
     atom   23 type  2   force =     0.02927995   -0.65380357   38.53039108
     atom   24 type  1   force =     0.15113495    1.39894979   -1.89189518
     atom   25 type  2   force =    -1.33256046    0.85282858  -38.54045540
     atom   26 type  2   force =     0.14059580    0.19624673   37.81020068
     atom   27 type  1   force =    -1.86636327   -1.33520242    5.82093094
     atom   28 type  2   force =    -4.49126809   -1.23813500  -22.04723251
     atom   29 type  2   force =     0.21451668    0.45335790   38.30140563
     atom   30 type  1   force =     0.23070846   -0.42976173    1.75930250
     atom   31 type  2   force =    -1.96924643   -1.06494090  -36.47776805
     atom   32 type  2   force =     0.34129077   -0.20754182   39.11252780
     atom   33 type  1   force =    -1.09864555    1.30464909   -0.95709825
     atom   34 type  2   force =    -0.27330364    1.42421847  -38.89021761
     atom   35 type  2   force =     0.28222212   -0.46898773   38.12878271
     atom   36 type  3   force =     2.43323581   -0.67467043  -53.83529007
     The core correction contribution to forces
     atom    1 type  1   force =     0.00000000    0.00000000    0.00000000
     atom    2 type  2   force =    -0.00003619   -0.00061475    0.02042237
     atom    3 type  2   force =     0.00097731    0.00018882   -0.02079772
     atom    4 type  1   force =     0.00000000    0.00000000    0.00000000
     atom    5 type  2   force =    -0.00074034    0.00162214    0.02015192
     atom    6 type  2   force =     0.00057903   -0.00089520   -0.02064944
     atom    7 type  1   force =     0.00000000    0.00000000    0.00000000
     atom    8 type  2   force =    -0.00054593    0.00109724    0.01998883
     atom    9 type  2   force =    -0.00019531    0.00008691   -0.02095000
     atom   10 type  1   force =     0.00000000    0.00000000    0.00000000
     atom   11 type  2   force =    -0.00074625   -0.00047644    0.02065426
     atom   12 type  2   force =     0.00116439    0.00145236   -0.02095498
     atom   13 type  1   force =     0.00000000    0.00000000    0.00000000
     atom   14 type  2   force =    -0.00049290    0.00005023    0.02055361
     atom   15 type  2   force =     0.00075017    0.00033146   -0.02057884
     atom   16 type  1   force =     0.00000000    0.00000000    0.00000000
     atom   17 type  2   force =     0.00096996    0.00114960    0.01987481
     atom   18 type  2   force =    -0.00008542   -0.00039511   -0.02090133
     atom   19 type  1   force =     0.00000000    0.00000000    0.00000000
     atom   20 type  2   force =     0.00016275    0.00092443   -0.02135024
     atom   21 type  1   force =     0.00000000    0.00000000    0.00000000
     atom   22 type  2   force =     0.00025740   -0.00036061    0.02056876
     atom   23 type  2   force =    -0.00055986    0.00137291   -0.02096124
     atom   24 type  1   force =     0.00000000    0.00000000    0.00000000
     atom   25 type  2   force =     0.00037332   -0.00116143    0.02032089
     atom   26 type  2   force =    -0.00047790    0.00083398   -0.02074870
     atom   27 type  1   force =     0.00000000    0.00000000    0.00000000
     atom   28 type  2   force =    -0.04069017   -0.00205008    0.15434938
     atom   29 type  2   force =    -0.00064164   -0.00063905   -0.02092582
     atom   30 type  1   force =     0.00000000    0.00000000    0.00000000
     atom   31 type  2   force =     0.00081267    0.00101488    0.01999398
     atom   32 type  2   force =    -0.00013057    0.00041251   -0.02101524
     atom   33 type  1   force =     0.00000000    0.00000000    0.00000000
     atom   34 type  2   force =     0.00033442    0.00121279    0.02109764
     atom   35 type  2   force =    -0.00009578    0.00098011   -0.02114815
     atom   36 type  3   force =     0.00013542   -0.00065914   -0.00906183
     The Hubbard contrib.    to forces
     atom    1 type  1   force =     0.00000000    0.00000000    0.00000000
     atom    2 type  2   force =     0.00000000    0.00000000    0.00000000
     atom    3 type  2   force =     0.00000000    0.00000000    0.00000000
     atom    4 type  1   force =     0.00000000    0.00000000    0.00000000
     atom    5 type  2   force =     0.00000000    0.00000000    0.00000000
     atom    6 type  2   force =     0.00000000    0.00000000    0.00000000
     atom    7 type  1   force =     0.00000000    0.00000000    0.00000000
     atom    8 type  2   force =     0.00000000    0.00000000    0.00000000
     atom    9 type  2   force =     0.00000000    0.00000000    0.00000000
     atom   10 type  1   force =     0.00000000    0.00000000    0.00000000
     atom   11 type  2   force =     0.00000000    0.00000000    0.00000000
     atom   12 type  2   force =     0.00000000    0.00000000    0.00000000
     atom   13 type  1   force =     0.00000000    0.00000000    0.00000000
     atom   14 type  2   force =     0.00000000    0.00000000    0.00000000
     atom   15 type  2   force =     0.00000000    0.00000000    0.00000000
     atom   16 type  1   force =     0.00000000    0.00000000    0.00000000
     atom   17 type  2   force =     0.00000000    0.00000000    0.00000000
     atom   18 type  2   force =     0.00000000    0.00000000    0.00000000
     atom   19 type  1   force =     0.00000000    0.00000000    0.00000000
     atom   20 type  2   force =     0.00000000    0.00000000    0.00000000
     atom   21 type  1   force =     0.00000000    0.00000000    0.00000000
     atom   22 type  2   force =     0.00000000    0.00000000    0.00000000
     atom   23 type  2   force =     0.00000000    0.00000000    0.00000000
     atom   24 type  1   force =     0.00000000    0.00000000    0.00000000
     atom   25 type  2   force =     0.00000000    0.00000000    0.00000000
     atom   26 type  2   force =     0.00000000    0.00000000    0.00000000
     atom   27 type  1   force =     0.00000000    0.00000000    0.00000000
     atom   28 type  2   force =     0.00000000    0.00000000    0.00000000
     atom   29 type  2   force =     0.00000000    0.00000000    0.00000000
     atom   30 type  1   force =     0.00000000    0.00000000    0.00000000
     atom   31 type  2   force =     0.00000000    0.00000000    0.00000000
     atom   32 type  2   force =     0.00000000    0.00000000    0.00000000
     atom   33 type  1   force =     0.00000000    0.00000000    0.00000000
     atom   34 type  2   force =     0.00000000    0.00000000    0.00000000
     atom   35 type  2   force =     0.00000000    0.00000000    0.00000000
     atom   36 type  3   force =     0.00000000    0.00000000    0.00000000
     The SCF correction term to forces
     atom    1 type  1   force =    -0.00008829   -0.00040828   -0.00096509
     atom    2 type  2   force =     0.00000321   -0.00016774   -0.00013306
     atom    3 type  2   force =     0.00005582   -0.00003808   -0.00058287
     atom    4 type  1   force =    -0.00005315    0.00011896   -0.00127196
     atom    5 type  2   force =    -0.00016573   -0.00001695   -0.00009537
     atom    6 type  2   force =     0.00002440   -0.00007032   -0.00065773
     atom    7 type  1   force =    -0.00030057    0.00024041   -0.00091606
     atom    8 type  2   force =    -0.00008579    0.00024536   -0.00015498
     atom    9 type  2   force =    -0.00000375    0.00011636   -0.00059796
     atom   10 type  1   force =     0.00003014   -0.00008472   -0.00089238
     atom   11 type  2   force =    -0.00006684   -0.00002751   -0.00002675
     atom   12 type  2   force =    -0.00000046   -0.00001555   -0.00058040
     atom   13 type  1   force =    -0.00008509   -0.00036080   -0.00086939
     atom   14 type  2   force =    -0.00007687   -0.00009719   -0.00003049
     atom   15 type  2   force =    -0.00003098   -0.00005218   -0.00057312
     atom   16 type  1   force =    -0.00009730    0.00025899   -0.00095980
     atom   17 type  2   force =     0.00004981   -0.00004178   -0.00004933
     atom   18 type  2   force =    -0.00004835   -0.00007779   -0.00061849
     atom   19 type  1   force =     0.00018248    0.00025773   -0.00084765
     atom   20 type  2   force =    -0.00001543    0.00016418   -0.00047062
     atom   21 type  1   force =    -0.00010665   -0.00013462   -0.00076604
     atom   22 type  2   force =     0.00000044   -0.00002225   -0.00003565
     atom   23 type  2   force =    -0.00002729   -0.00000897   -0.00054659
     atom   24 type  1   force =     0.00017019   -0.00043968   -0.00115344
     atom   25 type  2   force =     0.00006141   -0.00013367   -0.00011790
     atom   26 type  2   force =    -0.00001775   -0.00005042   -0.00054253
     atom   27 type  1   force =     0.00015450    0.00007726   -0.00112009
     atom   28 type  2   force =     0.00010898   -0.00009060   -0.00027434
     atom   29 type  2   force =     0.00002709   -0.00010181   -0.00061900
     atom   30 type  1   force =     0.00010986    0.00033169   -0.00101378
     atom   31 type  2   force =     0.00014653    0.00021719   -0.00009367
     atom   32 type  2   force =     0.00002069    0.00011326   -0.00058464
     atom   33 type  1   force =     0.00004080   -0.00002933   -0.00083503
     atom   34 type  2   force =     0.00007263    0.00003256   -0.00004000
     atom   35 type  2   force =     0.00002337    0.00002323   -0.00056452
     atom   36 type  3   force =     0.00008612   -0.00005435    0.00009101

     Total force =     5.818508     Total SCF correction =     0.004137

     BFGS Geometry Optimization
     Energy error            =      0.0E+00 Ry
     Gradient error          =      4.0E+00 Ry/Bohr

     number of scf cycles    =   1
     number of bfgs steps    =   0

     energy             new  =   -2245.3341087668 Ry

     new trust radius        =       0.5000000000 bohr
     new conv_thr            =       0.0000010000 Ry


ATOMIC_POSITIONS (angstrom)
Mo            6.5752111672        1.7861319145        2.8239675573
S             8.1757207095        0.8109277225        4.4347713607
S             8.1921751357        0.8117826471        1.2776005999
Mo            8.0953897073        4.4957597430        2.7165341407
S             6.4999222425        3.7220456622        4.3462332370
S             6.5531827451        3.5122240340        1.1212527894
Mo            6.4903309021        7.2174290776        2.6712100144
S             8.0819778946        6.3435248002        4.2438290430
S             8.0818052649        6.3054168932        1.0845239506
Mo            8.1599422577        9.9029080922        2.8416979247
S             6.4954737947        8.9428250811        4.3825948782
S             6.6179023098        9.0487689872        1.1404230780
Mo            3.4220905471        1.7470554661        2.7760458878
S             4.9756850002        0.8169153087        4.3512956264
S             5.0570493561        0.8465330369        1.2260722371
Mo            4.9797691184        4.5137589112        2.6331371857
S             3.4282950976        3.6715078460        4.2798071068
S             3.4379019066        3.5476112335        1.0590824878
Mo            3.4541753284        7.2154896974        2.6302333369
S             4.9834339939        6.3267167718        1.0373676473
Mo            5.0119036956        9.9019301413        2.7434249781
S             3.4707790123        8.9436509276        4.3253632575
S             3.4083337356        9.0650794891        1.0968178821
Mo            0.2958524941        1.7468868703        2.8479181175
S             1.8515437050        0.7939735733        4.3988518036
S             1.8604070548        0.8543007357        1.2090478362
Mo            1.8609913201        4.4964632045        2.6621639309
S             0.3355918572        3.6552835609        4.0806997374
S             0.2314387324        3.5272447714        1.1723474763
Mo            0.2708699296        7.2173188656        2.7014424326
S             1.9021646057        6.3129826020        4.2237442258
S             1.8615768826        6.3109175112        1.0449282572
Mo            1.8452191361        9.9399182385        2.7723056282
S             0.2961243661        9.0871853711        4.4132436732
S             0.2762489002        9.0440309174        1.1513501451
O            -0.0641328949        3.6414133710        5.5990104002



     Writing config-only to output data dir ./MoS2-V-O.save/
     NEW-OLD atomic charge density approx. for the potential

     negative rho (up, down):  2.261E-04 0.000E+00

     total cpu time spent up to now is      104.0 secs

     Self-consistent Calculation

     iteration #  1     ecut=    80.00 Ry     beta= 0.70
     Davidson diagonalization with overlap
     ethr =  1.00E-06,  avg # of iterations = 20.0

     negative rho (up, down):  8.701E-03 0.000E+00

     total cpu time spent up to now is      119.9 secs

     total energy              =   -2246.38408676 Ry
     estimated scf accuracy    <       0.33314017 Ry

     iteration #  2     ecut=    80.00 Ry     beta= 0.70
     Davidson diagonalization with overlap
     ethr =  1.07E-04,  avg # of iterations =  3.0

     negative rho (up, down):  2.130E-02 0.000E+00

     total cpu time spent up to now is      131.6 secs

     total energy              =   -2246.37318127 Ry
     estimated scf accuracy    <       0.09811011 Ry

     iteration #  3     ecut=    80.00 Ry     beta= 0.70
     Davidson diagonalization with overlap
     ethr =  3.14E-05,  avg # of iterations =  3.0

     negative rho (up, down):  2.669E-02 0.000E+00

     total cpu time spent up to now is      142.0 secs

     total energy              =   -2246.38157295 Ry
     estimated scf accuracy    <       0.01646710 Ry

     iteration #  4     ecut=    80.00 Ry     beta= 0.70
     Davidson diagonalization with overlap
     ethr =  5.28E-06,  avg # of iterations =  3.0

     negative rho (up, down):  2.708E-02 0.000E+00

     total cpu time spent up to now is      151.3 secs

     total energy              =   -2246.38082696 Ry
     estimated scf accuracy    <       0.00649361 Ry

     iteration #  5     ecut=    80.00 Ry     beta= 0.70
     Davidson diagonalization with overlap
     ethr =  2.08E-06,  avg # of iterations =  8.0

     negative rho (up, down):  2.460E-02 0.000E+00

     total cpu time spent up to now is      163.4 secs

     total energy              =   -2246.38179957 Ry
     estimated scf accuracy    <       0.00316047 Ry

     iteration #  6     ecut=    80.00 Ry     beta= 0.70
     Davidson diagonalization with overlap
     ethr =  1.01E-06,  avg # of iterations =  4.0

     negative rho (up, down):  2.026E-02 0.000E+00

     total cpu time spent up to now is      171.5 secs

     total energy              =   -2246.38200833 Ry
     estimated scf accuracy    <       0.00028930 Ry

     iteration #  7     ecut=    80.00 Ry     beta= 0.70
     Davidson diagonalization with overlap
     ethr =  9.27E-08,  avg # of iterations =  5.0

     negative rho (up, down):  1.465E-02 0.000E+00

     total cpu time spent up to now is      184.5 secs

     total energy              =   -2246.38190382 Ry
     estimated scf accuracy    <       0.00018814 Ry

     iteration #  8     ecut=    80.00 Ry     beta= 0.70
     Davidson diagonalization with overlap
     ethr =  6.03E-08,  avg # of iterations =  3.0

     negative rho (up, down):  9.581E-03 0.000E+00

     total cpu time spent up to now is      193.2 secs

     total energy              =   -2246.38183025 Ry
     estimated scf accuracy    <       0.00006078 Ry

     iteration #  9     ecut=    80.00 Ry     beta= 0.70
     Davidson diagonalization with overlap
     ethr =  1.95E-08,  avg # of iterations =  2.0

     negative rho (up, down):  5.236E-03 0.000E+00

     total cpu time spent up to now is      203.6 secs

     total energy              =   -2246.38177704 Ry
     estimated scf accuracy    <       0.00002803 Ry

     iteration # 10     ecut=    80.00 Ry     beta= 0.70
     Davidson diagonalization with overlap
     ethr =  8.98E-09,  avg # of iterations =  4.0

     negative rho (up, down):  3.303E-03 0.000E+00

     total cpu time spent up to now is      210.5 secs

     total energy              =   -2246.38176006 Ry
     estimated scf accuracy    <       0.00001123 Ry

     iteration # 11     ecut=    80.00 Ry     beta= 0.70
     Davidson diagonalization with overlap
     ethr =  3.60E-09,  avg # of iterations =  5.0

     negative rho (up, down):  1.330E-03 0.000E+00

     total cpu time spent up to now is      219.1 secs

     total energy              =   -2246.38174379 Ry
     estimated scf accuracy    <       0.00000614 Ry

     iteration # 12     ecut=    80.00 Ry     beta= 0.70
     Davidson diagonalization with overlap
     ethr =  1.97E-09,  avg # of iterations =  2.0

     negative rho (up, down):  4.807E-04 0.000E+00

     total cpu time spent up to now is      227.8 secs

     total energy              =   -2246.38173987 Ry
     estimated scf accuracy    <       0.00000167 Ry

     iteration # 13     ecut=    80.00 Ry     beta= 0.70
     Davidson diagonalization with overlap
     ethr =  5.36E-10,  avg # of iterations =  4.0

     negative rho (up, down):  1.764E-04 0.000E+00

     total cpu time spent up to now is      231.2 secs

     End of self-consistent calculation

          k = 0.0000 0.0000 0.0000 (105382 PWs)   bands (ev):

   -63.0384 -63.0328 -63.0014 -62.9979 -62.9892 -62.9879 -62.9799 -62.9726
   -62.9710 -62.9680 -62.9111 -62.9025 -37.4241 -37.3664 -37.3293 -37.3110
   -37.2910 -37.2762 -37.2515 -37.2385 -37.2351 -37.2326 -37.2253 -37.2003
   -37.1875 -37.1791 -37.1756 -37.1693 -37.1596 -37.1572 -37.1519 -37.1405
   -37.1357 -37.1298 -37.1174 -37.1121 -37.1015 -37.0949 -37.0852 -37.0777
   -37.0612 -37.0528 -37.0295 -37.0111 -36.9930 -36.9461 -36.9450 -36.9127
   -21.4055 -16.1252 -15.3761 -15.2808 -15.1284 -15.0751 -14.9263 -14.6798
   -14.6583 -14.6167 -14.5711 -14.5283 -14.4831 -14.4577 -14.4142 -14.3044
   -14.2695 -14.2438 -14.1915 -14.1274 -14.0628 -14.0178 -13.9851 -13.9214
    -8.0938  -7.9747  -7.7851  -7.5965  -7.4958  -7.4435  -7.4074  -7.3147
    -7.2375  -7.1238  -7.0414  -6.9478  -6.8785  -6.8055  -6.7744  -6.6425
    -6.6109  -6.5994  -6.4364  -6.3931  -6.2431  -6.2175  -6.1180  -6.0077
    -5.9949  -5.9047  -5.8872  -5.8652  -5.8425  -5.8237  -5.7969  -5.7491
    -5.6226  -5.6070  -5.5793  -5.3894  -5.3306  -5.2769  -5.2391  -5.1707
    -5.1495  -5.1246  -5.0302  -4.8296  -4.7500  -4.6655  -4.6110  -4.5165
    -4.4960  -4.3719  -4.2697  -4.2237  -4.0870  -4.0469  -3.9691  -3.9540
    -3.9290  -3.8587  -3.8022  -3.7559  -3.7311  -3.6832  -3.6510  -3.6237
    -3.5771  -3.5243  -3.4101  -3.3192  -3.2434  -3.1588  -3.0995  -3.0332
    -3.0062  -2.8963  -2.8477  -2.8185  -2.7987  -2.7751  -2.6788  -2.5215
    -2.4270  -2.1683  -2.1081  -2.0422  -1.0152  -0.9091  -0.3893  -0.3307
    -0.2891  -0.2593  -0.1603  -0.0337   0.0167   0.0727   0.0944   0.1116
     0.1751   0.2374   0.3016   0.3459   0.3569   0.4280   0.4854   0.5035
     0.5752   0.6022   0.6179   0.6523   0.6931   0.7688   0.7965   0.8578
     0.8995   0.9469   1.1368

     the Fermi energy is    -1.5285 ev

!    total energy              =   -2246.38173956 Ry
     estimated scf accuracy    <       0.00000053 Ry
     smearing contrib. (-TS)   =      -0.00000001 Ry
     internal energy E=F+TS    =   -2246.38173955 Ry

     The total energy is F=E-TS. E is the sum of the following terms:
     one-electron contribution =  -18445.74669150 Ry
     hartree contribution      =    9209.98303461 Ry
     xc contribution           =    -392.18549719 Ry
     ewald contribution        =    7391.42830114 Ry
     one-center paw contrib.   =      -9.86088661 Ry

     convergence has been achieved in  13 iterations

     negative rho (up, down):  1.764E-04 0.000E+00

     Forces acting on atoms (cartesian axes, Ry/au):

     atom    1 type  1   force =     0.01126531   -0.02292206    0.00555082
     atom    2 type  2   force =    -0.01363828    0.01980224    0.00397272
     atom    3 type  2   force =    -0.01543175    0.00700926   -0.00508944
     atom    4 type  1   force =    -0.02125800    0.02630529   -0.04937091
     atom    5 type  2   force =     0.00219110   -0.00503253   -0.00675729
     atom    6 type  2   force =    -0.00161982    0.00889731    0.00116781
     atom    7 type  1   force =     0.00711943   -0.01248325   -0.00945102
     atom    8 type  2   force =     0.00306432   -0.00784182    0.02148416
     atom    9 type  2   force =     0.01148480    0.00878212    0.01067476
     atom   10 type  1   force =    -0.01154943    0.01040759   -0.02631073
     atom   11 type  2   force =     0.00508767   -0.00162964   -0.00716792
     atom   12 type  2   force =    -0.00107781    0.00061541    0.00666976
     atom   13 type  1   force =     0.00499224    0.00179863   -0.00760538
     atom   14 type  2   force =     0.00777071   -0.00079112    0.01307372
     atom   15 type  2   force =    -0.01202359    0.00322727   -0.00890768
     atom   16 type  1   force =    -0.00133545    0.00674157    0.00390307
     atom   17 type  2   force =     0.00868097   -0.00138369    0.00356592
     atom   18 type  2   force =     0.00045086   -0.00969321    0.01104227
     atom   19 type  1   force =     0.00244027   -0.01059596   -0.00666528
     atom   20 type  2   force =     0.00304987   -0.00382346    0.00055920
     atom   21 type  1   force =    -0.00559348    0.00443150   -0.00004978
     atom   22 type  2   force =    -0.00266986   -0.00173035   -0.00249610
     atom   23 type  2   force =    -0.00132222    0.00121795    0.01086648
     atom   24 type  1   force =    -0.00041312   -0.05877725   -0.06780624
     atom   25 type  2   force =     0.01551492    0.01940577    0.01149677
     atom   26 type  2   force =    -0.00805424   -0.00248472   -0.00484861
     atom   27 type  1   force =     0.06307310    0.04016023   -0.03754611
     atom   28 type  2   force =    -0.10456461   -0.01206859    0.19972508
     atom   29 type  2   force =     0.00209245   -0.00133376   -0.01270700
     atom   30 type  1   force =    -0.00576460    0.00785532   -0.00452305
     atom   31 type  2   force =    -0.00089412    0.00338031    0.02100026
     atom   32 type  2   force =    -0.00923147    0.00987639    0.00509704
     atom   33 type  1   force =     0.01389824   -0.00325425   -0.00972431
     atom   34 type  2   force =     0.00278934   -0.04224587   -0.00897115
     atom   35 type  2   force =    -0.00786837    0.00758704    0.01407729
     atom   36 type  3   force =     0.05934460    0.01059034   -0.06792913
     The non-local contrib.  to forces
     atom    1 type  1   force =    -0.00095936    0.03090335   -0.01119856
     atom    2 type  2   force =    -0.01351739    0.00009131   -0.27635623
     atom    3 type  2   force =    -0.01860055   -0.00246364    0.26775541
     atom    4 type  1   force =     0.01706568   -0.00470358    0.02819524
     atom    5 type  2   force =    -0.00566819   -0.02954594   -0.25830198
     atom    6 type  2   force =    -0.00408729    0.00775487    0.25969001
     atom    7 type  1   force =    -0.01608053    0.00091234   -0.01756009
     atom    8 type  2   force =     0.00692518   -0.00092380   -0.26197771
     atom    9 type  2   force =     0.00833184   -0.00670696    0.27724258
     atom   10 type  1   force =     0.00033138    0.00272860    0.00015963
     atom   11 type  2   force =     0.01556328    0.00477428   -0.26234709
     atom   12 type  2   force =    -0.01198758   -0.01805183    0.26482302
     atom   13 type  1   force =     0.00130650    0.01839628   -0.00791274
     atom   14 type  2   force =     0.00950340   -0.00997923   -0.26606289
     atom   15 type  2   force =    -0.01336976   -0.00467290    0.26170291
     atom   16 type  1   force =     0.00462342    0.02832407   -0.01935195
     atom   17 type  2   force =    -0.00500630   -0.02270196   -0.25608810
     atom   18 type  2   force =    -0.00103742   -0.00639742    0.27045636
     atom   19 type  1   force =     0.01258987    0.00136701   -0.01128862
     atom   20 type  2   force =    -0.00043717   -0.02328749    0.26778848
     atom   21 type  1   force =     0.00339137    0.03121248    0.00533589
     atom   22 type  2   force =    -0.00849665    0.00212113   -0.26195964
     atom   23 type  2   force =     0.00685188   -0.01631163    0.26913786
     atom   24 type  1   force =     0.00513164    0.03215187    0.00443525
     atom   25 type  2   force =     0.00681161    0.00971702   -0.26621540
     atom   26 type  2   force =    -0.00105997   -0.01282913    0.26295052
     atom   27 type  1   force =    -0.01580164   -0.00815902    0.02409983
     atom   28 type  2   force =    -0.07619827    0.02285123    0.41269157
     atom   29 type  2   force =     0.00833059    0.00143290    0.26699306
     atom   30 type  1   force =    -0.00228883    0.01947864    0.00979931
     atom   31 type  2   force =    -0.00793435   -0.00529958   -0.25921801
     atom   32 type  2   force =    -0.00437444   -0.00630185    0.27206642
     atom   33 type  1   force =    -0.00463025    0.00694784    0.00749103
     atom   34 type  2   force =    -0.00014449   -0.03654398   -0.27668949
     atom   35 type  2   force =    -0.00163939   -0.01166819    0.27167247
     atom   36 type  3   force =     0.64742551    0.05858572   -2.03147319
     The ionic contribution  to forces
     atom    1 type  1   force =    -0.70696566   -0.67503562    3.98429985
     atom    2 type  2   force =    -1.21520176   -0.93841014   38.73668304
     atom    3 type  2   force =    -0.30095859   -0.29319849  -36.84673196
     atom    4 type  1   force =    -2.40485191    2.02171455   -3.33534504
     atom    5 type  2   force =    -2.34803460    1.54088290   38.01298022
     atom    6 type  2   force =     0.10030223   -0.52668525  -38.80796296
     atom    7 type  1   force =    -3.05014863   -2.07147679    1.40714997
     atom    8 type  2   force =    -1.61436808    1.31707839   36.75347853
     atom    9 type  2   force =     0.20080862    0.24789775  -38.75549530
     atom   10 type  1   force =    -1.33883497   -0.81290469    4.53998986
     atom   11 type  2   force =    -0.71218609   -1.56634931   38.95501432
     atom   12 type  2   force =     0.36925255    0.69309271  -38.31963930
     atom   13 type  1   force =     1.35135213    0.15261325    1.36489453
     atom   14 type  2   force =    -0.01778924   -0.37343426   38.30053443
     atom   15 type  2   force =     0.13951791   -0.21446010  -37.35071254
     atom   16 type  1   force =    -0.13732101    4.24474948   -0.94394781
     atom   17 type  2   force =     1.77686676    1.50171234   37.50456096
     atom   18 type  2   force =     0.04657250   -0.64960119  -39.30461412
     atom   19 type  1   force =     3.07707730   -1.81005830   -0.44088968
     atom   20 type  2   force =     0.21363751   -0.05282938  -39.03067287
     atom   21 type  1   force =    -0.00606135   -0.20226516    0.31729933
     atom   22 type  2   force =     0.57913561   -1.68074734   38.26002907
     atom   23 type  2   force =    -0.03025601    0.66458683  -38.74505380
     atom   24 type  1   force =    -0.37789138   -2.27395584    2.16437083
     atom   25 type  2   force =     1.26282474   -0.76501196   38.86706603
     atom   26 type  2   force =    -0.12844668   -0.22688000  -38.05044647
     atom   27 type  1   force =     2.82968733    1.97458002   -5.93353754
     atom   28 type  2   force =     1.62175762    1.08284115   28.20109185
     atom   29 type  2   force =    -0.25645098   -0.46647006  -38.76079691
     atom   30 type  1   force =    -0.26045289    0.45470803   -1.61736763
     atom   31 type  2   force =     1.90520807    1.01732070   36.85940598
     atom   32 type  2   force =    -0.32969905    0.25877033  -39.35662968
     atom   33 type  1   force =     1.08166328   -1.29843399    1.02367990
     atom   34 type  2   force =     0.26682692   -1.40356147   39.13142810
     atom   35 type  2   force =    -0.28475466    0.48962889  -38.33473056
     atom   36 type  3   force =    -1.30181754    0.63959202   49.55061736
     The local contribution  to forces
     atom    1 type  1   force =     0.71939252    0.62158337   -3.96756540
     atom    2 type  2   force =     1.21472860    0.95821764  -38.47742992
     atom    3 type  2   force =     0.30326588    0.30271839   36.59439581
     atom    4 type  1   force =     2.36699291   -1.99088403    3.25805236
     atom    5 type  2   force =     2.35580588   -1.51801282  -37.78214591
     atom    6 type  2   force =    -0.09823374    0.52877012   38.56992116
     atom    7 type  1   force =     3.07338146    2.05770271   -1.39924018
     atom    8 type  2   force =     1.61083756   -1.32452205  -36.49084655
     atom    9 type  2   force =    -0.19744410   -0.23282200   38.50969569
     atom   10 type  1   force =     1.32713253    0.82067396   -4.56664627
     atom   11 type  2   force =     0.70246971    1.56037229  -38.72060557
     atom   12 type  2   force =    -0.35942487   -0.67590737   38.08209972
     atom   13 type  1   force =    -1.34794212   -0.16880060   -1.36458434
     atom   14 type  2   force =     0.01652201    0.38276487  -38.04216299
     atom   15 type  2   force =    -0.13892022    0.22212701   37.10042136
     atom   16 type  1   force =     0.13125671   -4.26630422    0.96715974
     atom   17 type  2   force =    -1.76378352   -1.48156636  -37.26541501
     atom   18 type  2   force =    -0.04505686    0.64667982   39.06589516
     atom   19 type  1   force =    -3.08730193    1.79766034    0.44532743
     atom   20 type  2   force =    -0.21034281    0.07130026   38.78449438
     atom   21 type  1   force =    -0.00292417    0.17550568   -0.32295530
     atom   22 type  2   force =    -0.57362917    1.67719497  -38.02127992
     atom   23 type  2   force =     0.02257032   -0.64846395   38.50742215
     atom   24 type  1   force =     0.37241221    2.18367007   -2.23635425
     atom   25 type  2   force =    -1.25419722    0.77558659  -38.61031627
     atom   26 type  2   force =     0.12169805    0.23663789   37.80324688
     atom   27 type  1   force =    -2.75109270   -1.92641894    5.87217066
     atom   28 type  2   force =    -1.65476105   -1.11735663  -28.39885105
     atom   29 type  2   force =     0.25089154    0.46433031   38.50183711
     atom   30 type  1   force =     0.25701015   -0.46677896    1.60295475
     atom   31 type  2   force =    -1.89870108   -1.00935163  -36.59996601
     atom   32 type  2   force =     0.32489745   -0.24308453   39.11039299
     atom   33 type  1   force =    -1.06330429    1.28836579   -1.04107884
     atom   34 type  2   force =    -0.26420301    1.39667788  -38.88498789
     atom   35 type  2   force =     0.27864925   -0.47137139   38.09798694
     atom   36 type  3   force =     0.72089055   -0.68687147  -47.60840128
     The core correction contribution to forces
     atom    1 type  1   force =     0.00000000    0.00000000    0.00000000
     atom    2 type  2   force =     0.00046090    0.00013279    0.02128074
     atom    3 type  2   force =     0.00087875    0.00003522   -0.02076499
     atom    4 type  1   force =     0.00000000    0.00000000    0.00000000
     atom    5 type  2   force =     0.00023517    0.00166960    0.02094963
     atom    6 type  2   force =     0.00043561   -0.00094170   -0.02071237
     atom    7 type  1   force =     0.00000000    0.00000000    0.00000000
     atom    8 type  2   force =    -0.00024577    0.00027940    0.02101556
     atom    9 type  2   force =    -0.00018688    0.00036034   -0.02101585
     atom   10 type  1   force =     0.00000000    0.00000000    0.00000000
     atom   11 type  2   force =    -0.00069778   -0.00049921    0.02082722
     atom   12 type  2   force =     0.00112111    0.00143280   -0.02095021
     atom   13 type  1   force =     0.00000000    0.00000000    0.00000000
     atom   14 type  2   force =    -0.00047620    0.00005003    0.02085443
     atom   15 type  2   force =     0.00074815    0.00031941   -0.02061311
     atom   16 type  1   force =     0.00000000    0.00000000    0.00000000
     atom   17 type  2   force =     0.00044860    0.00122070    0.02066966
     atom   18 type  2   force =    -0.00008350   -0.00035692   -0.02089949
     atom   19 type  1   force =     0.00000000    0.00000000    0.00000000
     atom   20 type  2   force =     0.00017545    0.00094000   -0.02130992
     atom   21 type  1   force =     0.00000000    0.00000000    0.00000000
     atom   22 type  2   force =     0.00024568   -0.00038015    0.02075710
     atom   23 type  2   force =    -0.00053311    0.00135588   -0.02096942
     atom   24 type  1   force =     0.00000000    0.00000000    0.00000000
     atom   25 type  2   force =    -0.00002015   -0.00066775    0.02111001
     atom   26 type  2   force =    -0.00026614    0.00067126   -0.02083379
     atom   27 type  1   force =     0.00000000    0.00000000    0.00000000
     atom   28 type  2   force =     0.00461175   -0.00036130   -0.01494141
     atom   29 type  2   force =    -0.00065908   -0.00059368   -0.02085586
     atom   30 type  1   force =     0.00000000    0.00000000    0.00000000
     atom   31 type  2   force =     0.00046581    0.00046399    0.02092709
     atom   32 type  2   force =    -0.00006488    0.00042121   -0.02095963
     atom   33 type  1   force =     0.00000000    0.00000000    0.00000000
     atom   34 type  2   force =     0.00031754    0.00117119    0.02136072
     atom   35 type  2   force =    -0.00011967    0.00099082   -0.02115284
     atom   36 type  3   force =    -0.00724563   -0.00070034    0.02203109
     The Hubbard contrib.    to forces
     atom    1 type  1   force =     0.00000000    0.00000000    0.00000000
     atom    2 type  2   force =     0.00000000    0.00000000    0.00000000
     atom    3 type  2   force =     0.00000000    0.00000000    0.00000000
     atom    4 type  1   force =     0.00000000    0.00000000    0.00000000
     atom    5 type  2   force =     0.00000000    0.00000000    0.00000000
     atom    6 type  2   force =     0.00000000    0.00000000    0.00000000
     atom    7 type  1   force =     0.00000000    0.00000000    0.00000000
     atom    8 type  2   force =     0.00000000    0.00000000    0.00000000
     atom    9 type  2   force =     0.00000000    0.00000000    0.00000000
     atom   10 type  1   force =     0.00000000    0.00000000    0.00000000
     atom   11 type  2   force =     0.00000000    0.00000000    0.00000000
     atom   12 type  2   force =     0.00000000    0.00000000    0.00000000
     atom   13 type  1   force =     0.00000000    0.00000000    0.00000000
     atom   14 type  2   force =     0.00000000    0.00000000    0.00000000
     atom   15 type  2   force =     0.00000000    0.00000000    0.00000000
     atom   16 type  1   force =     0.00000000    0.00000000    0.00000000
     atom   17 type  2   force =     0.00000000    0.00000000    0.00000000
     atom   18 type  2   force =     0.00000000    0.00000000    0.00000000
     atom   19 type  1   force =     0.00000000    0.00000000    0.00000000
     atom   20 type  2   force =     0.00000000    0.00000000    0.00000000
     atom   21 type  1   force =     0.00000000    0.00000000    0.00000000
     atom   22 type  2   force =     0.00000000    0.00000000    0.00000000
     atom   23 type  2   force =     0.00000000    0.00000000    0.00000000
     atom   24 type  1   force =     0.00000000    0.00000000    0.00000000
     atom   25 type  2   force =     0.00000000    0.00000000    0.00000000
     atom   26 type  2   force =     0.00000000    0.00000000    0.00000000
     atom   27 type  1   force =     0.00000000    0.00000000    0.00000000
     atom   28 type  2   force =     0.00000000    0.00000000    0.00000000
     atom   29 type  2   force =     0.00000000    0.00000000    0.00000000
     atom   30 type  1   force =     0.00000000    0.00000000    0.00000000
     atom   31 type  2   force =     0.00000000    0.00000000    0.00000000
     atom   32 type  2   force =     0.00000000    0.00000000    0.00000000
     atom   33 type  1   force =     0.00000000    0.00000000    0.00000000
     atom   34 type  2   force =     0.00000000    0.00000000    0.00000000
     atom   35 type  2   force =     0.00000000    0.00000000    0.00000000
     atom   36 type  3   force =     0.00000000    0.00000000    0.00000000
     The SCF correction term to forces
     atom    1 type  1   force =    -0.00020335   -0.00037370    0.00000816
     atom    2 type  2   force =    -0.00010979   -0.00022992   -0.00021167
     atom    3 type  2   force =    -0.00001841   -0.00008276    0.00024953
     atom    4 type  1   force =    -0.00046584    0.00017780   -0.00028022
     atom    5 type  2   force =    -0.00014833   -0.00002682   -0.00024601
     atom    6 type  2   force =    -0.00003779   -0.00000127    0.00022522
     atom    7 type  1   force =    -0.00003403    0.00037795    0.00019252
     atom    8 type  2   force =    -0.00008574    0.00024571   -0.00019242
     atom    9 type  2   force =    -0.00002584    0.00005244    0.00024087
     atom   10 type  1   force =    -0.00017954   -0.00009083    0.00017928
     atom   11 type  2   force =    -0.00006261    0.00007176   -0.00006357
     atom   12 type  2   force =    -0.00004019    0.00004855    0.00032977
     atom   13 type  1   force =     0.00027457   -0.00041085   -0.00000959
     atom   14 type  2   force =     0.00000958   -0.00019308   -0.00009602
     atom   15 type  2   force =    -0.00000083   -0.00008669    0.00028693
     atom   16 type  1   force =     0.00010428   -0.00002831    0.00003634
     atom   17 type  2   force =     0.00015427   -0.00004896   -0.00016834
     atom   18 type  2   force =     0.00005498   -0.00001804    0.00019760
     atom   19 type  1   force =     0.00007386    0.00043443    0.00017882
     atom   20 type  2   force =     0.00001574    0.00005261    0.00025236
     atom   21 type  1   force =    -0.00000048   -0.00002205    0.00026353
     atom   22 type  2   force =     0.00007352    0.00008050   -0.00004948
     atom   23 type  2   force =     0.00004353    0.00005028    0.00032293
     atom   24 type  1   force =    -0.00006676   -0.00064389   -0.00026482
     atom   25 type  2   force =     0.00009478   -0.00021867   -0.00015435
     atom   26 type  2   force =     0.00001934   -0.00008528    0.00022749
     atom   27 type  1   force =     0.00027895    0.00015763   -0.00028582
     atom   28 type  2   force =     0.00002419   -0.00004359   -0.00027265
     atom   29 type  2   force =    -0.00002078   -0.00003377    0.00010885
     atom   30 type  1   force =    -0.00003420    0.00044706    0.00008377
     atom   31 type  2   force =     0.00006627    0.00024628   -0.00015554
     atom   32 type  2   force =     0.00000829    0.00007069    0.00022017
     atom   33 type  1   force =     0.00016834   -0.00013443    0.00017684
     atom   34 type  2   force =    -0.00000878    0.00000996   -0.00008935
     atom   35 type  2   force =    -0.00000507    0.00000636    0.00029452
     atom   36 type  3   force =     0.00009055   -0.00001615   -0.00070986

     Total force =     0.295613     Total SCF correction =     0.002070
     Energy error            =      1.0E+00 Ry
     Gradient error          =      2.0E-01 Ry/Bohr

     number of scf cycles    =   2
     number of bfgs steps    =   1

     energy             old  =   -2245.3341087668 Ry
     energy             new  =   -2246.3817395574 Ry

     CASE: energy            _new < energy            _old

     new trust radius        =       0.0963172184 bohr
     new conv_thr            =       0.0000001997 Ry


ATOMIC_POSITIONS (angstrom)
Mo            6.5811386871        1.7739856091        2.8268877222
S             8.1684958210        0.8213625257        4.4368615194
S             8.1840160427        0.8155043989        1.2749270119
Mo            8.0845912491        4.5093797079        2.6909807076
S             6.5010447912        3.7193794065        4.3426699014
S             6.5523116479        3.5168958929        1.1218420885
Mo            6.4940587315        7.2107890153        2.6662061125
S             8.0836085620        6.3394287891        4.2551605714
S             8.0879037745        6.3100896415        1.0901493610
Mo            8.1538659416        9.9084145144        2.8277973442
S             6.4981525984        8.9419660718        4.3788000082
S             6.6173400425        9.0490984457        1.1439648426
Mo            3.4247532573        1.7480002347        2.7720499318
S             4.9797900731        0.8165044472        4.3581729548
S             5.0507026797        0.8482523721        1.2213689617
Mo            4.9790902667        4.5173544077        2.6351969094
S             3.4328478064        3.6707770513        4.2816540093
S             3.4381273020        3.5424985541        1.0649139015
Mo            3.4555038558        7.2098589993        2.6267127772
S             4.9850440944        6.3247074352        1.0376830964
Mo            5.0089523941        9.9042800490        2.7434058390
S             3.4693684320        8.9427408453        4.3240286091
S             3.4076333973        9.0657250180        1.1025644268
Mo            0.2955791650        1.7167022042        2.8128850212
S             1.8597514413        0.8042205050        4.4048922050
S             1.8561902924        0.8529988361        1.2064788774
Mo            1.8932856922        4.5171843725        2.6435014674
S             0.2987789852        3.6493509616        4.1154480199
S             0.2325618339        3.5265623605        1.1659434344
Mo            0.2678516489        7.2215072862        2.6990656888
S             1.9016886316        6.3147572790        4.2348109504
S             1.8566885604        6.3161122953        1.0476282870
Mo            1.8525463923        9.9381982226        2.7671709990
S             0.2976044505        9.0648710291        4.4084976201
S             0.2720931594        9.0480384316        1.1587889873
O            -0.0506146890        3.6464158606        5.6312297062



     Writing config-only to output data dir ./MoS2-V-O.save/
     NEW-OLD atomic charge density approx. for the potential

     negative rho (up, down):  1.732E-04 0.000E+00

     total cpu time spent up to now is      238.7 secs

     Self-consistent Calculation

     iteration #  1     ecut=    80.00 Ry     beta= 0.70
     Davidson diagonalization with overlap
     ethr =  1.00E-06,  avg # of iterations = 20.0

     negative rho (up, down):  1.794E-04 0.000E+00

     total cpu time spent up to now is      253.6 secs

     total energy              =   -2246.41475219 Ry
     estimated scf accuracy    <       0.00788500 Ry

     iteration #  2     ecut=    80.00 Ry     beta= 0.70
     Davidson diagonalization with overlap
     ethr =  2.53E-06,  avg # of iterations =  2.0

     negative rho (up, down):  1.990E-04 0.000E+00

     total cpu time spent up to now is      275.3 secs

     total energy              =   -2246.41471323 Ry
     estimated scf accuracy    <       0.00194564 Ry

     iteration #  3     ecut=    80.00 Ry     beta= 0.70
     Davidson diagonalization with overlap
     ethr =  6.24E-07,  avg # of iterations =  3.0

     negative rho (up, down):  2.152E-04 0.000E+00

     total cpu time spent up to now is      287.1 secs

     total energy              =   -2246.41483726 Ry
     estimated scf accuracy    <       0.00031521 Ry

     iteration #  4     ecut=    80.00 Ry     beta= 0.70
     Davidson diagonalization with overlap
     ethr =  1.01E-07,  avg # of iterations =  7.0

     negative rho (up, down):  2.021E-04 0.000E+00

     total cpu time spent up to now is      305.8 secs

     total energy              =   -2246.41490010 Ry
     estimated scf accuracy    <       0.00004788 Ry

     iteration #  5     ecut=    80.00 Ry     beta= 0.70
     Davidson diagonalization with overlap
     ethr =  1.53E-08,  avg # of iterations =  3.0

     negative rho (up, down):  1.806E-04 0.000E+00

     total cpu time spent up to now is      322.7 secs

     total energy              =   -2246.41490508 Ry
     estimated scf accuracy    <       0.00001423 Ry

     iteration #  6     ecut=    80.00 Ry     beta= 0.70
     Davidson diagonalization with overlap
     ethr =  4.56E-09,  avg # of iterations =  4.0

     negative rho (up, down):  1.607E-04 0.000E+00

     total cpu time spent up to now is      336.1 secs

     total energy              =   -2246.41490648 Ry
     estimated scf accuracy    <       0.00000789 Ry

     iteration #  7     ecut=    80.00 Ry     beta= 0.70
     Davidson diagonalization with overlap
     ethr =  2.53E-09,  avg # of iterations =  2.0

     negative rho (up, down):  1.327E-04 0.000E+00

     total cpu time spent up to now is      351.0 secs

     total energy              =   -2246.41490679 Ry
     estimated scf accuracy    <       0.00000294 Ry

     iteration #  8     ecut=    80.00 Ry     beta= 0.70
     Davidson diagonalization with overlap
     ethr =  9.41E-10,  avg # of iterations =  4.0

     negative rho (up, down):  1.260E-04 0.000E+00

     total cpu time spent up to now is      360.3 secs

     total energy              =   -2246.41490747 Ry
     estimated scf accuracy    <       0.00000032 Ry

     iteration #  9     ecut=    80.00 Ry     beta= 0.70
     Davidson diagonalization with overlap
     ethr =  1.04E-10,  avg # of iterations =  5.0

     negative rho (up, down):  1.763E-04 0.000E+00

     total cpu time spent up to now is      364.1 secs

     End of self-consistent calculation

          k = 0.0000 0.0000 0.0000 (105382 PWs)   bands (ev):

   -63.0372 -63.0306 -62.9936 -62.9875 -62.9826 -62.9797 -62.9720 -62.9637
   -62.9622 -62.9597 -62.9280 -62.9189 -37.4061 -37.3566 -37.3116 -37.3011
   -37.2860 -37.2674 -37.2434 -37.2340 -37.2320 -37.2242 -37.2180 -37.1948
   -37.1817 -37.1733 -37.1696 -37.1664 -37.1512 -37.1490 -37.1447 -37.1406
   -37.1237 -37.1214 -37.1156 -37.1111 -37.1026 -37.0903 -37.0858 -37.0719
   -37.0624 -37.0492 -37.0284 -37.0087 -36.9993 -36.9505 -36.9400 -36.9074
   -21.6327 -16.1162 -15.3491 -15.2841 -15.1255 -15.0597 -14.9219 -14.6638
   -14.6382 -14.6076 -14.5620 -14.5433 -14.4862 -14.4676 -14.4050 -14.2987
   -14.2659 -14.2536 -14.1895 -14.1133 -14.0459 -14.0283 -13.9345 -13.9007
    -8.0367  -7.8753  -7.7650  -7.5977  -7.4836  -7.4446  -7.3933  -7.3193
    -7.2440  -7.1143  -7.0525  -6.9505  -6.8884  -6.8083  -6.7930  -6.6414
    -6.6101  -6.5959  -6.4347  -6.3974  -6.2318  -6.2105  -6.1090  -6.0062
    -5.9817  -5.9073  -5.8935  -5.8554  -5.8455  -5.8229  -5.8061  -5.7575
    -5.5985  -5.5848  -5.5636  -5.3599  -5.3343  -5.2680  -5.2434  -5.1723
    -5.1401  -5.1233  -5.0196  -4.8172  -4.7586  -4.6727  -4.5962  -4.5137
    -4.4971  -4.3849  -4.2845  -4.2493  -4.1003  -4.0686  -3.9892  -3.9667
    -3.9401  -3.8408  -3.8170  -3.7728  -3.7090  -3.6932  -3.6455  -3.6272
    -3.5781  -3.5203  -3.4158  -3.3212  -3.2272  -3.1422  -3.0954  -3.0242
    -2.9992  -2.8732  -2.8411  -2.8231  -2.8093  -2.7751  -2.7096  -2.5438
    -2.4711  -2.1563  -2.1084  -2.0626  -0.9707  -0.9141  -0.3606  -0.3151
    -0.2959  -0.2133  -0.1389  -0.0440   0.0156   0.0932   0.1069   0.1467
     0.1775   0.2499   0.3134   0.3591   0.3703   0.4464   0.4711   0.5056
     0.5823   0.6114   0.6290   0.6613   0.6792   0.7562   0.8084   0.8443
     0.8822   0.9285   1.1062

     the Fermi energy is    -1.5164 ev

!    total energy              =   -2246.41490754 Ry
     estimated scf accuracy    <       0.00000014 Ry
     smearing contrib. (-TS)   =      -0.00000000 Ry
     internal energy E=F+TS    =   -2246.41490754 Ry

     The total energy is F=E-TS. E is the sum of the following terms:
     one-electron contribution =  -18433.90381302 Ry
     hartree contribution      =    9204.10443338 Ry
     xc contribution           =    -392.15091176 Ry
     ewald contribution        =    7385.39582292 Ry
     one-center paw contrib.   =      -9.86043906 Ry

     convergence has been achieved in   9 iterations

     negative rho (up, down):  1.763E-04 0.000E+00

     Forces acting on atoms (cartesian axes, Ry/au):

     atom    1 type  1   force =     0.00439403   -0.01040846    0.00101731
     atom    2 type  2   force =    -0.00601153    0.01172641   -0.00264008
     atom    3 type  2   force =    -0.01761916    0.00221845   -0.01628991
     atom    4 type  1   force =    -0.01110943    0.01325788   -0.01590484
     atom    5 type  2   force =     0.00484026   -0.00286358   -0.01144381
     atom    6 type  2   force =    -0.00445886    0.00332913   -0.00257130
     atom    7 type  1   force =     0.00594174   -0.00785276   -0.00022591
     atom    8 type  2   force =     0.00169062   -0.00769656    0.01153113
     atom    9 type  2   force =     0.01022210    0.01250381   -0.00038857
     atom   10 type  1   force =    -0.00635532    0.00787468   -0.00760704
     atom   11 type  2   force =     0.00434376   -0.00166868   -0.00973326
     atom   12 type  2   force =    -0.00325975    0.00031622    0.00206290
     atom   13 type  1   force =     0.00290325    0.00356002   -0.00092106
     atom   14 type  2   force =     0.00566706   -0.00110287    0.00849377
     atom   15 type  2   force =    -0.00827703    0.00146945   -0.00765404
     atom   16 type  1   force =     0.00206179    0.00295240    0.00518221
     atom   17 type  2   force =     0.00605221    0.00185679    0.00060627
     atom   18 type  2   force =     0.00508986   -0.00745052    0.00388935
     atom   19 type  1   force =     0.00160894   -0.00478950    0.00023021
     atom   20 type  2   force =     0.00279284   -0.00370088   -0.00332578
     atom   21 type  1   force =    -0.00374418    0.00183833    0.00238546
     atom   22 type  2   force =    -0.00138004   -0.00230120   -0.00367577
     atom   23 type  2   force =     0.00043489    0.00004505    0.00567044
     atom   24 type  1   force =    -0.00397768   -0.02046105   -0.01896686
     atom   25 type  2   force =     0.00938035    0.01381516    0.00035940
     atom   26 type  2   force =     0.00032997   -0.00657475   -0.01268526
     atom   27 type  1   force =     0.01153975    0.00994438    0.00245659
     atom   28 type  2   force =    -0.06538291   -0.01029903    0.12858675
     atom   29 type  2   force =     0.00760213    0.00199449   -0.00820166
     atom   30 type  1   force =    -0.00184683   -0.00049434    0.00503444
     atom   31 type  2   force =     0.00071856    0.00172856    0.01246821
     atom   32 type  2   force =    -0.00585334    0.01318165   -0.00158793
     atom   33 type  1   force =     0.00872526   -0.00101626    0.00173598
     atom   34 type  2   force =     0.00008692   -0.03050835   -0.01429557
     atom   35 type  2   force =    -0.00591584    0.00821847    0.00714604
     atom   36 type  3   force =     0.04876562    0.00735751   -0.06073781
     The non-local contrib.  to forces
     atom    1 type  1   force =     0.00076400    0.02829320   -0.01391663
     atom    2 type  2   force =    -0.00929639   -0.00535285   -0.27744143
     atom    3 type  2   force =    -0.01743186   -0.00693753    0.25968020
     atom    4 type  1   force =     0.01204905   -0.00203490    0.02796164
     atom    5 type  2   force =    -0.00285546   -0.02872004   -0.26345323
     atom    6 type  2   force =    -0.00584902    0.00452936    0.25920839
     atom    7 type  1   force =    -0.01667671    0.00005159   -0.01933872
     atom    8 type  2   force =     0.00520999    0.00080755   -0.26607641
     atom    9 type  2   force =     0.00601560   -0.00432693    0.26973738
     atom   10 type  1   force =    -0.00060055    0.00256906   -0.00111593
     atom   11 type  2   force =     0.01424907    0.00391554   -0.26493148
     atom   12 type  2   force =    -0.01346062   -0.01831088    0.26290201
     atom   13 type  1   force =     0.00053891    0.02025996   -0.00997749
     atom   14 type  2   force =     0.00815791   -0.00944459   -0.26741680
     atom   15 type  2   force =    -0.01072428   -0.00600099    0.26186035
     atom   16 type  1   force =     0.00207680    0.02981567   -0.02303014
     atom   17 type  2   force =    -0.00203796   -0.02151125   -0.25717700
[...]
     atom   28 type  2   force =    -0.00394832    0.01308252    0.29559810
     atom   29 type  2   force =    -0.00132604   -0.00716447    0.27731497
     atom   30 type  1   force =     0.00023001    0.01813756    0.00478848
     atom   31 type  2   force =    -0.00606586    0.00124220   -0.26969817
     atom   32 type  2   force =     0.00603044   -0.01406125    0.26766483
     atom   33 type  1   force =     0.00234817    0.00457966    0.00270700
     atom   34 type  2   force =     0.00030317   -0.00908184   -0.27585994
     atom   35 type  2   force =    -0.00113718   -0.01479662    0.26801774
     atom   36 type  3   force =     0.03598160   -0.06915583   -2.32158961
     The ionic contribution  to forces
     atom    1 type  1   force =    -0.66756471    0.06755566    0.83993328
     atom    2 type  2   force =    -0.79383777   -0.87365269   38.29162072
     atom    3 type  2   force =    -0.01958672   -0.16475010  -38.27519223
     atom    4 type  1   force =    -1.10119719    0.79569373   -4.39015849
     atom    5 type  2   force =    -1.79015081    1.14833213   37.48386293
     atom    6 type  2   force =     0.16639360   -0.43900383  -38.99895552
     atom    7 type  1   force =    -3.19305210   -1.40352560    1.19309569
     atom    8 type  2   force =    -1.78987527    1.15864406   37.48342713
     atom    9 type  2   force =     0.32586741    0.23551430  -38.87354101
     atom   10 type  1   force =    -0.62539219   -0.88844578    2.16799923
     atom   11 type  2   force =    -0.58320936   -1.44079122   38.42908922
     atom   12 type  2   force =     0.10438823    0.36260975  -38.30680927
     atom   13 type  1   force =     0.66700042    0.11777354    1.60986923
     atom   14 type  2   force =     0.02243602   -0.29781850   38.39928147
     atom   15 type  2   force =    -0.03669352   -0.30152591  -37.84414912
     atom   16 type  1   force =    -0.01683324    3.82867220   -0.18657487
     atom   17 type  2   force =     1.77295880    1.15281815   37.66005579
     atom   18 type  2   force =    -0.20903728   -0.43668005  -38.85655929
     atom   19 type  1   force =     3.20188646   -1.39700647    1.89367487
     atom   20 type  2   force =    -0.02817403    0.15962630  -39.06952314
     atom   21 type  1   force =    -0.00204395   -0.42699094    1.00791500
     atom   22 type  2   force =     0.60377334   -1.41708881   38.51762425
     atom   23 type  2   force =    -0.14395205    0.34862384  -38.16571094
     atom   24 type  1   force =     0.05566388   -0.75140598   -1.28900990
     atom   25 type  2   force =     0.74712510   -0.83387078   38.43746648
     atom   26 type  2   force =     0.03797643   -0.17704552  -38.17039447
     atom   27 type  1   force =     1.12525314    0.74833252   -3.46359183
     atom   28 type  2   force =     0.10569217    0.18727580   27.84015419
     atom   29 type  2   force =     0.04595355   -0.20764794  -38.25165979
     atom   30 type  1   force =    -0.00476102    0.37193964    0.33531552
     atom   31 type  2   force =     1.75157616    1.13824607   37.66134909
     atom   32 type  2   force =    -0.27789142    0.21263065  -38.74392710
     atom   33 type  1   force =     0.66911862   -0.88516162    2.57125637
     atom   34 type  2   force =    -0.03591846   -0.46440786   38.61942758
     atom   35 type  2   force =     0.02050656    0.20047998  -37.84345005
     atom   36 type  3   force =    -0.10439878    0.57205127   50.28678896
     The local contribution  to forces
     atom    1 type  1   force =     0.66982756   -0.09294882   -0.83219072
     atom    2 type  2   force =     0.79325086    0.88278663  -38.04234430
     atom    3 type  2   force =     0.02215650    0.17325503   38.03003315
     atom    4 type  1   force =     1.09157562   -0.79229423    4.36789630
     atom    5 type  2   force =     1.78700343   -1.12911491  -37.24661030
     atom    6 type  2   force =    -0.16577887    0.44054731   38.75656533
     atom    7 type  1   force =     3.20703391    1.39991572   -1.17336795
     atom    8 type  2   force =     1.78272028   -1.16198688  -37.23541621
     atom    9 type  2   force =    -0.31990499   -0.22229174   38.62698101
     atom   10 type  1   force =     0.62655041    0.88378391   -2.17142366
     atom   11 type  2   force =     0.57668046    1.44147714  -38.18790729
     atom   12 type  2   force =    -0.09694893   -0.34857244   38.06336567
     atom   13 type  1   force =    -0.66822576   -0.14253760   -1.60265649
     atom   14 type  2   force =    -0.02162886    0.30668312  -38.15022408
     atom   15 type  2   force =     0.03613877    0.30881444   37.60041512
     atom   16 type  1   force =     0.01768656   -3.86209779    0.20944103
     atom   17 type  2   force =    -1.76825763   -1.13365975  -37.42334278
     atom   18 type  2   force =     0.20791199    0.43871652   38.61475148
     atom   19 type  1   force =    -3.21668845    1.39478525   -1.87327993
     atom   20 type  2   force =     0.02721193   -0.14349251   38.82517455
     atom   21 type  1   force =     0.00157252    0.39743403   -1.01007294
     atom   22 type  2   force =    -0.59680947    1.41823143  -38.27639069
     atom   23 type  2   force =     0.13583705   -0.33395664   37.92165748
     atom   24 type  1   force =    -0.05553679    0.72805237    1.27413878
     atom   25 type  2   force =    -0.74711388    0.84262727  -38.18912847
     atom   26 type  2   force =    -0.03988067    0.18585009   37.92553978
     atom   27 type  1   force =    -1.11353775   -0.74475380    3.44169540
     atom   28 type  2   force =    -0.10130435   -0.20031863  -28.12440052
     atom   29 type  2   force =    -0.04482686    0.21477917   37.99638357
     atom   30 type  1   force =     0.00395014   -0.38999391   -0.33988077
     atom   31 type  2   force =    -1.74551080   -1.14124247  -37.41372101
     atom   32 type  2   force =     0.27239626   -0.19977600   38.49755892
     atom   33 type  1   force =    -0.67144158    0.88033426   -2.57404319
     atom   34 type  2   force =     0.03526937    0.47259662  -38.36514395
     atom   35 type  2   force =    -0.02025453   -0.18601480   37.59765795
     atom   36 type  3   force =     0.06997105   -0.50437497  -47.99168542
     The core correction contribution to forces
     atom    1 type  1   force =     0.00000000    0.00000000    0.00000000
     atom    2 type  2   force =    -0.00017030    0.00049894    0.02119076
     atom    3 type  2   force =     0.00012090    0.00032643   -0.02091612
     atom    4 type  1   force =     0.00000000    0.00000000    0.00000000
     atom    5 type  2   force =    -0.00029255    0.00093436    0.02076230
     atom    6 type  2   force =     0.00009841   -0.00046866   -0.02076709
     atom    7 type  1   force =     0.00000000    0.00000000    0.00000000
     atom    8 type  2   force =    -0.00032215    0.00008621    0.02122224
     atom    9 type  2   force =     0.00072639    0.00084050   -0.02093211
     atom   10 type  1   force =     0.00000000    0.00000000    0.00000000
     atom   11 type  2   force =    -0.00011869   -0.00030356    0.02078060
     atom   12 type  2   force =     0.00063222    0.00110345   -0.02089439
     atom   13 type  1   force =     0.00000000    0.00000000    0.00000000
     atom   14 type  2   force =     0.00008377    0.00015516    0.02100212
     atom   15 type  2   force =    -0.00011478    0.00030308   -0.02070643
     atom   16 type  1   force =     0.00000000    0.00000000    0.00000000
     atom   17 type  2   force =     0.00047065    0.00094704    0.02077425
     atom   18 type  2   force =    -0.00021472   -0.00051156   -0.02077113
     atom   19 type  1   force =     0.00000000    0.00000000    0.00000000
     atom   20 type  2   force =    -0.00005294    0.00081368   -0.02128597
     atom   21 type  1   force =     0.00000000    0.00000000    0.00000000
     atom   22 type  2   force =     0.00017186   -0.00026975    0.02077799
     atom   23 type  2   force =    -0.00068011    0.00100268   -0.02088065
     atom   24 type  1   force =     0.00000000    0.00000000    0.00000000
     atom   25 type  2   force =     0.00004593    0.00043067    0.02119838
     atom   26 type  2   force =    -0.00004974    0.00036970   -0.02090140
     atom   27 type  1   force =     0.00000000    0.00000000    0.00000000
     atom   28 type  2   force =     0.00019865   -0.00047892   -0.00987059
     atom   29 type  2   force =     0.00010476    0.00008181   -0.02118020
     atom   30 type  1   force =     0.00000000    0.00000000    0.00000000
     atom   31 type  2   force =     0.00025555    0.00020332    0.02124397
     atom   32 type  2   force =    -0.00061248    0.00082361   -0.02094266
     atom   33 type  1   force =     0.00000000    0.00000000    0.00000000
     atom   34 type  2   force =    -0.00004493    0.00032303    0.02129292
     atom   35 type  2   force =     0.00006508    0.00089587   -0.02094064
     atom   36 type  3   force =    -0.00038784    0.00072481    0.02462155
     The Hubbard contrib.    to forces
     atom    1 type  1   force =     0.00000000    0.00000000    0.00000000
     atom    2 type  2   force =     0.00000000    0.00000000    0.00000000
     atom    3 type  2   force =     0.00000000    0.00000000    0.00000000
     atom    4 type  1   force =     0.00000000    0.00000000    0.00000000
     atom    5 type  2   force =     0.00000000    0.00000000    0.00000000
     atom    6 type  2   force =     0.00000000    0.00000000    0.00000000
     atom    7 type  1   force =     0.00000000    0.00000000    0.00000000
     atom    8 type  2   force =     0.00000000    0.00000000    0.00000000
     atom    9 type  2   force =     0.00000000    0.00000000    0.00000000
     atom   10 type  1   force =     0.00000000    0.00000000    0.00000000
     atom   11 type  2   force =     0.00000000    0.00000000    0.00000000
     atom   12 type  2   force =     0.00000000    0.00000000    0.00000000
     atom   13 type  1   force =     0.00000000    0.00000000    0.00000000
     atom   14 type  2   force =     0.00000000    0.00000000    0.00000000
     atom   15 type  2   force =     0.00000000    0.00000000    0.00000000
     atom   16 type  1   force =     0.00000000    0.00000000    0.00000000
     atom   17 type  2   force =     0.00000000    0.00000000    0.00000000
     atom   18 type  2   force =     0.00000000    0.00000000    0.00000000
     atom   19 type  1   force =     0.00000000    0.00000000    0.00000000
     atom   20 type  2   force =     0.00000000    0.00000000    0.00000000
     atom   21 type  1   force =     0.00000000    0.00000000    0.00000000
     atom   22 type  2   force =     0.00000000    0.00000000    0.00000000
     atom   23 type  2   force =     0.00000000    0.00000000    0.00000000
     atom   24 type  1   force =     0.00000000    0.00000000    0.00000000
     atom   25 type  2   force =     0.00000000    0.00000000    0.00000000
     atom   26 type  2   force =     0.00000000    0.00000000    0.00000000
     atom   27 type  1   force =     0.00000000    0.00000000    0.00000000
     atom   28 type  2   force =     0.00000000    0.00000000    0.00000000
     atom   29 type  2   force =     0.00000000    0.00000000    0.00000000
     atom   30 type  1   force =     0.00000000    0.00000000    0.00000000
     atom   31 type  2   force =     0.00000000    0.00000000    0.00000000
     atom   32 type  2   force =     0.00000000    0.00000000    0.00000000
     atom   33 type  1   force =     0.00000000    0.00000000    0.00000000
     atom   34 type  2   force =     0.00000000    0.00000000    0.00000000
     atom   35 type  2   force =     0.00000000    0.00000000    0.00000000
     atom   36 type  3   force =     0.00000000    0.00000000    0.00000000
     The SCF correction term to forces
     atom    1 type  1   force =     0.00000206    0.00000242    0.00004568
     atom    2 type  2   force =    -0.00001053    0.00000230    0.00002492
     atom    3 type  2   force =    -0.00000058    0.00000225    0.00000440
     atom    4 type  1   force =    -0.00001693    0.00002561    0.00000700
     atom    5 type  2   force =     0.00000866   -0.00000060    0.00002388
     atom    6 type  2   force =     0.00000531    0.00001614   -0.00000227
     atom    7 type  1   force =     0.00000112   -0.00000651    0.00000059
     atom    8 type  2   force =    -0.00000354   -0.00000076    0.00001453
     atom    9 type  2   force =    -0.00000786   -0.00000069   -0.00000450
     atom   10 type  1   force =    -0.00001469   -0.00002031    0.00003649
     atom   11 type  2   force =     0.00000168   -0.00000455    0.00001931
     atom   12 type  2   force =    -0.00000053   -0.00001967   -0.00000037
     atom   13 type  1   force =     0.00001130    0.00000381    0.00002864
     atom   14 type  2   force =     0.00001333    0.00000001    0.00002507
     atom   15 type  2   force =     0.00000433   -0.00000021   -0.00000036
     atom   16 type  1   force =     0.00002363    0.00002643    0.00000708
     atom   17 type  2   force =     0.00000812    0.00000206    0.00001914
     atom   18 type  2   force =    -0.00000178    0.00001161   -0.00000712
     atom   19 type  1   force =     0.00001505    0.00000133    0.00000003
     atom   20 type  2   force =     0.00000803    0.00000729   -0.00000796
     atom   21 type  1   force =     0.00001236   -0.00002339    0.00003247
     atom   22 type  2   force =     0.00000581   -0.00000700    0.00001997
     atom   23 type  2   force =     0.00000353   -0.00001487   -0.00000889
     atom   24 type  1   force =    -0.00002619    0.00000027    0.00002153
     atom   25 type  2   force =     0.00000032   -0.00000436    0.00002063
     atom   26 type  2   force =     0.00000049   -0.00000047   -0.00000854
     atom   27 type  1   force =     0.00000483    0.00003139   -0.00000580
     atom   28 type  2   force =    -0.00002112    0.00000861    0.00002146
     atom   29 type  2   force =    -0.00000873    0.00001150   -0.00001040
     atom   30 type  1   force =    -0.00001664   -0.00000719    0.00000792
     atom   31 type  2   force =    -0.00000306    0.00000491    0.00001707
     atom   32 type  2   force =    -0.00000028    0.00000085   -0.00000706
     atom   33 type  1   force =    -0.00000031   -0.00002977    0.00001930
     atom   34 type  2   force =    -0.00000514   -0.00000609    0.00002085
     atom   35 type  2   force =    -0.00000149   -0.00001367   -0.00000595
     atom   36 type  3   force =    -0.00006118    0.00002352    0.00003620

     Total force =     0.006860     Total SCF correction =     0.000164
     Energy error            =      9.4E-05 Ry
     Gradient error          =      1.8E-03 Ry/Bohr

     bfgs converged in  16 scf cycles and  15 bfgs steps
     (criteria: energy <  1.0E-04 Ry, force <  1.0E-02 Ry/Bohr)

     End of BFGS Geometry Optimization

     Final energy             =   -2246.4527206672 Ry

     File ./MoS2-V-O.bfgs deleted, as requested
Begin final coordinates

ATOMIC_POSITIONS (angstrom)
Mo            6.5548484702        1.7579230131        2.7543128693
S             8.1215711343        0.8547609424        4.3732653037
S             8.1238231063        0.8287122847        1.1661044813
Mo            8.0881234540        4.5176176100        2.6818115731
S             6.5171927316        3.6767438106        4.2920647180
S             6.5321808497        3.5491756063        1.0881394998
Mo            6.5193208218        7.1887754980        2.6618727165
S             8.0799922648        6.3053174997        4.2970489478
S             8.1388078803        6.3482655630        1.0911978016
Mo            8.1294205872        9.9397030738        2.7747943247
S             6.5224520295        8.9429413492        4.3313229534
S             6.5838308344        9.0399226951        1.1323795976
Mo            3.4177613129        1.7570086869        2.7681484808
S             4.9924861084        0.8190774124        4.3533007702
S             4.9808258043        0.8336118489        1.1782965786
Mo            4.9856885272        4.5251942228        2.6428309753
S             3.4606634717        3.6771063762        4.3053928615
S             3.4320763199        3.5451286884        1.0979784635
Mo            3.4670159022        7.1830053484        2.6748512952
S             4.9892610283        6.3175738101        1.0428509844
Mo            4.9909825491        9.9028617592        2.7445533915
S             3.4663318369        8.9417306558        4.3400937834
S             3.3979708548        9.0295017124        1.1436063823
Mo            0.2588652590        1.7097306415        2.7602592203
S             1.8482514318        0.8524281154        4.3848632222
S             1.8575171426        0.8281265087        1.1745454704
Mo            1.8828247340        4.5176892817        2.6981755338
S             0.2479238079        3.6176586057        4.2154373381
S             0.2627425260        3.5551940080        1.1576665142
Mo            0.2638632884        7.2162055290        2.7362629754
S             1.8966778116        6.3094066839        4.3105317003
S             1.8501242763        6.3444026807        1.1019829246
Mo            1.8545350871        9.9391454443        2.7829206803
S             0.2615442149        9.0249145557        4.3679898479
S             0.2689887037        9.0604051071        1.1802521433
O             0.2258608486        3.6669464481        5.7132335474
End final coordinates



     Writing all to output data dir ./MoS2-V-O.save/
 
     init_run     :      4.63s CPU      5.10s WALL (       1 calls)
     electrons    :   1353.32s CPU   1527.77s WALL (      16 calls)
     update_pot   :     47.46s CPU     50.46s WALL (      15 calls)
     forces       :     43.73s CPU     49.91s WALL (      16 calls)

     Called by init_run:
     wfcinit      :      0.47s CPU      0.53s WALL (       1 calls)
     potinit      :      2.40s CPU      2.61s WALL (       1 calls)
     hinit0       :      0.44s CPU      0.47s WALL (       1 calls)

     Called by electrons:
     c_bands      :    200.28s CPU    205.01s WALL (     138 calls)
     sum_band     :     77.62s CPU    100.06s WALL (     138 calls)
     v_of_rho     :    129.49s CPU    157.85s WALL (     148 calls)
     newd         :     45.56s CPU     66.50s WALL (     148 calls)
     PAW_pot      :      5.91s CPU      5.93s WALL (     163 calls)
     mix_rho      :    910.75s CPU   1009.90s WALL (     138 calls)

     Called by c_bands:
     init_us_2    :      3.20s CPU      3.43s WALL (     292 calls)
     init_us_2:cp :      3.20s CPU      3.43s WALL (     292 calls)
     regterg      :    189.87s CPU    194.35s WALL (     138 calls)

     Called by *egterg:
     rdiaghg      :     13.10s CPU     13.23s WALL (     706 calls)
     h_psi        :    123.35s CPU    124.42s WALL (     728 calls)
     s_psi        :     11.69s CPU     11.73s WALL (     728 calls)
     g_psi        :      0.61s CPU      0.61s WALL (     589 calls)

     Called by h_psi:
     h_psi:calbec :     13.37s CPU     13.44s WALL (     728 calls)
     vloc_psi     :     96.78s CPU     97.70s WALL (     728 calls)
     add_vuspsi   :     11.65s CPU     11.73s WALL (     728 calls)

     General routines
     calbec       :     19.77s CPU     19.89s WALL (     945 calls)
     fft          :     89.91s CPU    104.10s WALL (    9961 calls)
     ffts         :    408.10s CPU    503.71s WALL (  223036 calls)
     fftw         :     61.60s CPU     62.11s WALL (   85556 calls)
     interpolate  :      1.84s CPU      2.12s WALL (     148 calls)
 
     Parallel routines
 
     PWSCF        :  24m16.07s CPU  27m23.68s WALL

 
   This run was terminated on:  15:10:24   1Nov2023            

=------------------------------------------------------------------------------=
   JOB DONE.
=------------------------------------------------------------------------------=
