
     Program PWSCF v.7.2 starts on  1Nov2023 at 14:32:34 

     This program is part of the open-source Quantum ESPRESSO suite
     for quantum simulation of materials; please cite
         "P. Giannozzi et al., J. Phys.:Condens. Matter 21 395502 (2009);
         "P. Giannozzi et al., J. Phys.:Condens. Matter 29 465901 (2017);
         "P. Giannozzi et al., J. Chem. Phys. 152 154105 (2020);
          URL http://www.quantum-espresso.org", 
     in publications or presentations arising from this work. More details at
     http://www.quantum-espresso.org/quote

     Parallel version (MPI & OpenMP), running on      48 processor cores
     Number of MPI processes:                48
     Threads/MPI process:                     1

     MPI processes distributed on     1 nodes
     40079 MiB available memory on the printing compute node when the environment starts
 
     Waiting for input...
     Reading input from standard input
Warning: card &CELL ignored
Warning: card CELL_DYNAMICS = 'BFGS', ignored
Warning: card CELL_DOFREE = '2DXY' ignored
Warning: card / ignored

     Current dimensions of program PWSCF are:
     Max number of different atomic species (ntypx) = 10
     Max number of k-points (npk) =  40000
     Max angular momentum in pseudopotentials (lmaxx) =  4
     file O.pbe-n-kjpaw_psl.0.1.UPF: wavefunction(s)  2P renormalized

     IMPORTANT: XC functional enforced from input :
     Exchange-correlation= RVV10
                           (   1   4  13   4  26   0   0)
     Any further DFT definition will be discarded
     Please, verify this is what you really want


     gamma-point specific algorithms are used
     signal trapping enabled: kill the code with -SIGUSR1 to stop cleanly the simulation 
 
     R & G space division:  proc/nbgrp/npool/nimage =      48
     Subspace diagonalization in iterative solution of the eigenvalue problem:
     one sub-group per band group will be used
     scalapack distributed-memory algorithm (size of sub-group:  2*  2 procs)

 
     Parallelization info
     --------------------
     sticks:   dense  smooth     PW     G-vecs:    dense   smooth      PW
     Min         396     194     47               101632    35090    4376
     Max         398     196     50               101674    35128    4410
     Sum       19091    9389   2349              4879585  1685513  210763
 
     Using Slab Decomposition
 


     bravais-lattice index     =            0
     lattice parameter (alat)  =      17.8707  a.u.
     unit-cell volume          =   17436.2743 (a.u.)^3
     number of atoms/cell      =           36
     number of atomic types    =            3
     number of electrons       =       312.00
     number of Kohn-Sham states=          187
     kinetic-energy cutoff     =      80.0000  Ry
     charge density cutoff     =     650.0000  Ry
     scf convergence threshold =      1.0E-06
     mixing beta               =       0.7000
     number of iterations used =            8  local-TF  mixing
     energy convergence thresh.=      1.0E-04
     force convergence thresh. =      1.0E-02
     Exchange-correlation= RVV10
                           (   1   4  13   4  26   0   0)
     nstep                     =          200


     celldm(1)=  17.870686  celldm(2)=   0.000000  celldm(3)=   0.000000
     celldm(4)=   0.000000  celldm(5)=   0.000000  celldm(6)=   0.000000

     crystal axes: (cart. coord. in units of alat)
               a(1) = (   1.000000   0.000000   0.000000 )  
               a(2) = (   0.000000   1.155671   0.000000 )  
               a(3) = (   0.000000   0.000000   2.643601 )  

     reciprocal axes: (cart. coord. in units 2 pi/alat)
               b(1) = (  1.000000  0.000000  0.000000 )  
               b(2) = (  0.000000  0.865298  0.000000 )  
               b(3) = (  0.000000  0.000000  0.378272 )  


     PseudoPot. # 1 for Mo read from file:
     ../pseudo/Mo_ONCV_PBE-1.0.oncvpsp.upf
     MD5 check sum: 1b5d28e075c9ccadda658a603575cd1f
     Pseudo is Norm-conserving, Zval = 14.0
     Generated using ONCVPSP code by D. R. Hamann
     Using radial grid of 1526 points,  6 beta functions with: 
                l(1) =   0
                l(2) =   0
                l(3) =   1
                l(4) =   1
                l(5) =   2
                l(6) =   2

     PseudoPot. # 2 for S  read from file:
     ../pseudo/s_pbe_v1.4.uspp.F.UPF
     MD5 check sum: 88d86576ff6df21479756cfb9bdac1df
     Pseudo is Ultrasoft + core correction, Zval =  6.0
     Generated by new atomic code, or converted to UPF format
     Using radial grid of  907 points,  6 beta functions with: 
                l(1) =   0
                l(2) =   0
                l(3) =   1
                l(4) =   1
                l(5) =   2
                l(6) =   2
     Q(r) pseudized with  8 coefficients,  rinner =    1.300   1.300   1.300
                                                       1.300   1.300

     PseudoPot. # 3 for O  read from file:
     ../pseudo/O.pbe-n-kjpaw_psl.0.1.UPF
     MD5 check sum: 0234752ac141de4415c5fc33072bef88
     Pseudo is Projector augmented-wave + core cor, Zval =  6.0
     Generated using "atomic" code by A. Dal Corso  v.5.0.99 svn rev. 10869
     Shape of augmentation charge: BESSEL
     Using radial grid of 1095 points,  4 beta functions with: 
                l(1) =   0
                l(2) =   0
                l(3) =   1
                l(4) =   1
     Q(r) pseudized with 0 coefficients 


     atomic species   valence    mass     pseudopotential
        Mo            14.00    95.94000     Mo( 1.00)
        S              6.00    32.06500     S ( 1.00)
        O              6.00    15.99940     O ( 1.00)

     No symmetry found



   Cartesian axes

     site n.     atom                  positions (alat units)
         1           Mo  tau(   1) = (   0.6952221   0.1890506   0.2985846  )
         2           S   tau(   2) = (   0.8646417   0.0856217   0.4689279  )
         3           S   tau(   3) = (   0.8663890   0.0857843   0.1351291  )
         4           Mo  tau(   4) = (   0.8560186   0.4753274   0.2873942  )
         5           S   tau(   5) = (   0.6873294   0.3936244   0.4596353  )
         6           S   tau(   6) = (   0.6929804   0.3713468   0.1185692  )
         7           Mo  tau(   7) = (   0.6862796   0.7633098   0.2825370  )
         8           S   tau(   8) = (   0.8545980   0.6708292   0.4486168  )
         9           S   tau(   9) = (   0.8545123   0.6666874   0.1146125  )
        10           Mo  tau(  10) = (   0.8629403   1.0471007   0.3006803  )
        11           S   tau(  11) = (   0.6868280   0.9456650   0.4634891  )
        12           S   tau(  12) = (   0.6998113   0.9568511   0.1205389  )
        13           Mo  tau(  13) = (   0.3618216   0.1847309   0.2935964  )
        14           S   tau(  14) = (   0.5260962   0.0863870   0.4600448  )
        15           S   tau(  15) = (   0.5348379   0.0894875   0.1297123  )
        16           Mo  tau(  16) = (   0.5265817   0.4772436   0.2784130  )
        17           S   tau(  17) = (   0.3624753   0.3882513   0.4525556  )
        18           S   tau(  18) = (   0.3635411   0.3752055   0.1119148  )
        19           Mo  tau(  19) = (   0.3652268   0.7630864   0.2781795  )
        20           S   tau(  20) = (   0.5269494   0.6690381   0.1096838  )
        21           Mo  tau(  21) = (   0.5300192   1.0470394   0.2900995  )
        22           S   tau(  22) = (   0.3670346   0.9457522   0.4574073  )
        23           S   tau(  23) = (   0.3604225   0.9585725   0.1159032  )
        24           Mo  tau(  24) = (   0.0313099   0.1847895   0.3013130  )
        25           S   tau(  25) = (   0.1956761   0.0838230   0.4650863  )
        26           S   tau(  26) = (   0.1967693   0.0903508   0.1278874  )
        27           Mo  tau(  27) = (   0.1967578   0.4753919   0.2813011  )
        28           S   tau(  28) = (   0.0287851   0.3864324   0.4586755  )
        29           S   tau(  29) = (   0.0244514   0.3729871   0.1239344  )
        30           Mo  tau(  30) = (   0.0286728   0.7631204   0.2856894  )
        31           S   tau(  31) = (   0.2011512   0.6675435   0.4465001  )
        32           S   tau(  32) = (   0.1969214   0.6672839   0.1104564  )
        33           Mo  tau(  33) = (   0.1950294   1.0511147   0.2932237  )
        34           S   tau(  34) = (   0.0312912   0.9612169   0.4667423  )
        35           S   tau(  35) = (   0.0292670   0.9563028   0.1216485  )
        36           O   tau(  36) = (   1.0000000   0.2568157   0.5407634  )

     number of k points=     1  Gaussian smearing, width (Ry)=  0.0100
                       cart. coord. in units 2pi/alat
        k(    1) = (   0.0000000   0.0000000   0.0000000), wk =   2.0000000

     Dense  grid:  2439793 G-vectors     FFT dimensions: ( 150, 180, 384)

     Smooth grid:   842757 G-vectors     FFT dimensions: ( 108, 120, 270)

     Estimated max dynamical RAM per process >     269.22 MB

     Estimated total dynamical RAM >      12.62 GB

     Initial potential from superposition of free atoms

     starting charge     311.9873, renormalised to     312.0000

     negative rho (up, down):  2.741E-04 0.000E+00


---------------------------------------------------------------------------------
Carrying out rVV10 run using the following parameters:
Nqs =      20    Nr_points =    1024   r_max =   100.000
b_value =  6.30000    beta =  0.00901
     q_mesh =  0.00010000  0.00030000  0.00058939  0.00100810
               0.00161396  0.00249058  0.00375900  0.00559430
               0.00824984  0.01209221  0.01765183  0.02569619
               0.03733578  0.05417739  0.07854596  0.11380545
               0.16482331  0.23864234  0.34545298  0.50000000

Gradients computed in Reciprocal space

---------------------------------------------------------------------------------


     Starting wfcs are  216 randomized atomic wfcs
     Checking if some PAW data can be deallocated... 

     total cpu time spent up to now is        7.6 secs

     Self-consistent Calculation

     iteration #  1     ecut=    80.00 Ry     beta= 0.70
     Davidson diagonalization with overlap
     ethr =  1.00E-02,  avg # of iterations =  2.0

     Threshold (ethr) on eigenvalues was too large:
     Diagonalizing with lowered threshold

     Davidson diagonalization with overlap
     ethr =  4.38E-04,  avg # of iterations =  4.0

     negative rho (up, down):  3.450E-08 0.000E+00

     total cpu time spent up to now is       34.2 secs

     total energy              =   -2246.18102820 Ry
     estimated scf accuracy    <       1.60767585 Ry

     iteration #  2     ecut=    80.00 Ry     beta= 0.70
     Davidson diagonalization with overlap
     ethr =  5.15E-04,  avg # of iterations =  3.0

     total cpu time spent up to now is       41.8 secs

     total energy              =   -2246.17778668 Ry
     estimated scf accuracy    <       0.69743968 Ry

     iteration #  3     ecut=    80.00 Ry     beta= 0.70
     Davidson diagonalization with overlap
     ethr =  2.24E-04,  avg # of iterations =  5.0

     total cpu time spent up to now is       48.1 secs

     total energy              =   -2246.16683601 Ry
     estimated scf accuracy    <       0.21917680 Ry

     iteration #  4     ecut=    80.00 Ry     beta= 0.70
     Davidson diagonalization with overlap
     c_bands:  1 eigenvalues not converged
     ethr =  7.02E-05,  avg # of iterations = 20.0

     total cpu time spent up to now is       55.8 secs

     total energy              =   -2246.20079651 Ry
     estimated scf accuracy    <       0.03242558 Ry

     iteration #  5     ecut=    80.00 Ry     beta= 0.70
     Davidson diagonalization with overlap
     ethr =  1.04E-05,  avg # of iterations = 10.0

     total cpu time spent up to now is       62.5 secs

     total energy              =   -2246.20221599 Ry
     estimated scf accuracy    <       0.01879499 Ry

     iteration #  6     ecut=    80.00 Ry     beta= 0.70
     Davidson diagonalization with overlap
     ethr =  6.02E-06,  avg # of iterations =  2.0

     total cpu time spent up to now is       68.1 secs

     total energy              =   -2246.20101326 Ry
     estimated scf accuracy    <       0.01181129 Ry

     iteration #  7     ecut=    80.00 Ry     beta= 0.70
     Davidson diagonalization with overlap
     ethr =  3.79E-06,  avg # of iterations =  2.0

     total cpu time spent up to now is       73.8 secs

     total energy              =   -2246.20030357 Ry
     estimated scf accuracy    <       0.00712587 Ry

     iteration #  8     ecut=    80.00 Ry     beta= 0.70
     Davidson diagonalization with overlap
     ethr =  2.28E-06,  avg # of iterations = 13.0

     negative rho (up, down):  4.141E-03 0.000E+00

     total cpu time spent up to now is       83.5 secs

     total energy              =   -2246.19899350 Ry
     estimated scf accuracy    <       0.00477149 Ry

     iteration #  9     ecut=    80.00 Ry     beta= 0.70
     Davidson diagonalization with overlap
     ethr =  1.53E-06,  avg # of iterations =  2.0

     negative rho (up, down):  2.603E-02 0.000E+00

     total cpu time spent up to now is       92.2 secs

     total energy              =   -2246.19879296 Ry
     estimated scf accuracy    <       0.00247042 Ry

     iteration # 10     ecut=    80.00 Ry     beta= 0.70
     Davidson diagonalization with overlap
     ethr =  7.92E-07,  avg # of iterations =  2.0

     negative rho (up, down):  2.378E-02 0.000E+00

     total cpu time spent up to now is      101.1 secs

     total energy              =   -2246.19859762 Ry
     estimated scf accuracy    <       0.00131503 Ry

     iteration # 11     ecut=    80.00 Ry     beta= 0.70
     Davidson diagonalization with overlap
     ethr =  4.21E-07,  avg # of iterations =  2.0

     negative rho (up, down):  1.994E-02 0.000E+00

     total cpu time spent up to now is      112.0 secs

     total energy              =   -2246.19865906 Ry
     estimated scf accuracy    <       0.00027826 Ry

     iteration # 12     ecut=    80.00 Ry     beta= 0.70
     Davidson diagonalization with overlap
     ethr =  8.92E-08,  avg # of iterations =  5.0

     negative rho (up, down):  6.024E-03 0.000E+00

     total cpu time spent up to now is      121.7 secs

     total energy              =   -2246.19863933 Ry
     estimated scf accuracy    <       0.00004957 Ry

     iteration # 13     ecut=    80.00 Ry     beta= 0.70
     Davidson diagonalization with overlap
     ethr =  1.59E-08,  avg # of iterations =  5.0

     negative rho (up, down):  2.035E-03 0.000E+00

     total cpu time spent up to now is      133.9 secs

     total energy              =   -2246.19866793 Ry
     estimated scf accuracy    <       0.00000815 Ry

     iteration # 14     ecut=    80.00 Ry     beta= 0.70
     Davidson diagonalization with overlap
     ethr =  2.61E-09,  avg # of iterations =  3.0

     negative rho (up, down):  3.984E-04 0.000E+00

     total cpu time spent up to now is      145.5 secs

     total energy              =   -2246.19867144 Ry
     estimated scf accuracy    <       0.00000105 Ry

     iteration # 15     ecut=    80.00 Ry     beta= 0.70
     Davidson diagonalization with overlap
     ethr =  3.36E-10,  avg # of iterations =  5.0

     negative rho (up, down):  1.935E-04 0.000E+00

     total cpu time spent up to now is      151.1 secs

     End of self-consistent calculation

          k = 0.0000 0.0000 0.0000 (105382 PWs)   bands (ev):

   -63.1427 -62.8985 -62.8907 -62.8588 -62.8423 -62.8411 -62.8193 -62.8089
   -62.8007 -62.7934 -62.7496 -62.7296 -37.4738 -37.2981 -37.2860 -37.2152
   -37.1898 -37.1488 -37.1478 -37.1021 -37.0986 -37.0784 -37.0706 -37.0674
   -37.0486 -37.0402 -37.0377 -37.0344 -37.0215 -37.0088 -36.9951 -36.9864
   -36.9702 -36.9588 -36.9500 -36.9407 -36.9370 -36.9318 -36.9243 -36.9139
   -36.9126 -36.8998 -36.8811 -36.8511 -36.8268 -36.7857 -36.7728 -36.7314
   -23.7996 -15.9352 -15.2622 -15.1441 -14.9841 -14.8662 -14.8093 -14.6471
   -14.5102 -14.4873 -14.4151 -14.3760 -14.3677 -14.3047 -14.2471 -14.1800
   -14.1451 -14.1261 -14.0345 -13.9883 -13.8702 -13.8304 -13.8126 -13.4644
    -8.8936  -8.3451  -8.1969  -7.5237  -7.4174  -7.2870  -7.2379  -7.1756
    -7.1580  -7.1143  -6.8776  -6.8286  -6.7904  -6.6901  -6.6518  -6.5776
    -6.5010  -6.4746  -6.3225  -6.2778  -6.1571  -6.1233  -5.9071  -5.8865
    -5.8607  -5.7658  -5.7528  -5.7094  -5.6943  -5.6715  -5.6469  -5.5713
    -5.4920  -5.4126  -5.3965  -5.3282  -5.2253  -5.2021  -5.0968  -5.0267
    -5.0116  -4.9825  -4.8349  -4.8110  -4.7223  -4.5565  -4.4978  -4.3816
    -4.3406  -4.3117  -4.1533  -4.1299  -4.0376  -3.9459  -3.8237  -3.8007
    -3.7621  -3.7232  -3.6827  -3.6533  -3.5778  -3.5550  -3.5144  -3.4650
    -3.4391  -3.3847  -3.2733  -3.1897  -3.1410  -3.1045  -2.8828  -2.8317
    -2.7939  -2.7374  -2.7184  -2.6794  -2.6415  -2.5857  -2.5413  -2.4058
    -2.0534  -1.9438  -1.9103  -1.2208  -0.9280  -0.8338  -0.7354  -0.1922
    -0.1225  -0.0899  -0.0390   0.1489   0.1688   0.1798   0.2360   0.2548
     0.2843   0.2850   0.4033   0.4583   0.5062   0.5516   0.5914   0.6193
     0.6712   0.7229   0.7555   0.7655   0.7783   0.8723   0.9072   0.9616
     1.0862   1.1538   1.1627

     the Fermi energy is    -1.0767 ev

!    total energy              =   -2246.19867148 Ry
     estimated scf accuracy    <       0.00000035 Ry
     smearing contrib. (-TS)   =      -0.00379098 Ry
     internal energy E=F+TS    =   -2246.19488050 Ry

     The total energy is F=E-TS. E is the sum of the following terms:
     one-electron contribution =  -18504.89895752 Ry
     hartree contribution      =    9240.95971737 Ry
     xc contribution           =    -392.27231257 Ry
     ewald contribution        =    7419.87340301 Ry
     one-center paw contrib.   =      -9.85673079 Ry

     convergence has been achieved in  15 iterations

     negative rho (up, down):  1.935E-04 0.000E+00

     Forces acting on atoms (cartesian axes, Ry/au):

     atom    1 type  1   force =     0.02237629   -0.01849703    0.00883548
     atom    2 type  2   force =    -0.06127816   -0.05802697   -0.04403955
     atom    3 type  2   force =    -0.00611971    0.01024230   -0.00410088
     atom    4 type  1   force =    -0.01066153   -0.01259248   -0.00489875
     atom    5 type  2   force =    -0.00151134   -0.00462949   -0.00731490
     atom    6 type  2   force =     0.00428865    0.01054565   -0.00096986
     atom    7 type  1   force =     0.00600041   -0.01403740   -0.00738406
     atom    8 type  2   force =    -0.00276640    0.00181476    0.01843683
     atom    9 type  2   force =     0.01262294    0.01002439    0.00858010
     atom   10 type  1   force =    -0.02713679   -0.00665415   -0.02526171
     atom   11 type  2   force =     0.00599829    0.00016701   -0.00764329
     atom   12 type  2   force =    -0.00125014    0.00125459    0.00527135
     atom   13 type  1   force =     0.00346563    0.01360466   -0.01176181
     atom   14 type  2   force =     0.00874006   -0.00194209    0.01219013
     atom   15 type  2   force =    -0.01295248    0.00129401   -0.00785159
     atom   16 type  1   force =    -0.00021869    0.01385547    0.00592465
     atom   17 type  2   force =     0.00785903    0.00361843    0.00110938
     atom   18 type  2   force =    -0.00660904   -0.00731218    0.01239419
     atom   19 type  1   force =     0.00154191   -0.00829138   -0.00429085
     atom   20 type  2   force =     0.00286754   -0.00398437    0.00102912
     atom   21 type  1   force =    -0.00547028    0.00352465   -0.00088499
     atom   22 type  2   force =    -0.00321359   -0.00073035   -0.00310460
     atom   23 type  2   force =    -0.00075006    0.00232368    0.00860594
     atom   24 type  1   force =    -0.00714833   -0.04022815   -0.03911169
     atom   25 type  2   force =     0.03872636   -0.00961558   -0.00532699
     atom   26 type  2   force =    -0.02145564    0.00325191   -0.00762133
     atom   27 type  1   force =     0.03531212   -0.02261381   -0.01397435
     atom   28 type  2   force =     0.00282264    0.22916902   -0.04991536
     atom   29 type  2   force =     0.00355038   -0.00018844   -0.00567103
     atom   30 type  1   force =    -0.00487479    0.00592661   -0.00042871
     atom   31 type  2   force =     0.00199324    0.00374794    0.01851641
     atom   32 type  2   force =    -0.00722022    0.00639719    0.00637906
     atom   33 type  1   force =     0.01819028   -0.01358781   -0.00428594
     atom   34 type  2   force =     0.00358020   -0.03960696   -0.01087319
     atom   35 type  2   force =    -0.00681762    0.00455708    0.01251824
     atom   36 type  3   force =     0.00751882   -0.06278072    0.14692455
     The non-local contrib.  to forces
     atom    1 type  1   force =    -0.01097741    0.02093757   -0.01291366
     atom    2 type  2   force =    -0.06679525   -0.01084050   -0.27405781
     atom    3 type  2   force =    -0.00222582    0.00769400    0.27079109
     atom    4 type  1   force =     0.02337045   -0.00226289    0.00908431
     atom    5 type  2   force =     0.00422129   -0.03333682   -0.25635860
     atom    6 type  2   force =     0.00219764    0.01999824    0.25872067
     atom    7 type  1   force =    -0.02017422    0.00413774   -0.02584850
     atom    8 type  2   force =     0.00331718    0.00607010   -0.25201059
     atom    9 type  2   force =     0.00950341   -0.00580199    0.27724838
     atom   10 type  1   force =    -0.00006580    0.01379507    0.00035801
     atom   11 type  2   force =     0.01426713    0.00816439   -0.26004658
     atom   12 type  2   force =    -0.01198297   -0.01676446    0.26279621
     atom   13 type  1   force =     0.00373293    0.01397753   -0.00671479
     atom   14 type  2   force =     0.01311274   -0.00378073   -0.25603279
     atom   15 type  2   force =    -0.01361108   -0.00310802    0.26210554
     atom   16 type  1   force =     0.00196129    0.03820768   -0.02628773
     atom   17 type  2   force =     0.00071355   -0.03030635   -0.25529826
     atom   18 type  2   force =    -0.00926237    0.00579111    0.27219511
     atom   19 type  1   force =     0.01077778   -0.00106215   -0.02043263
     atom   20 type  2   force =    -0.00095204   -0.02403970    0.26440373
     atom   21 type  1   force =     0.00335427    0.02345897    0.00780746
     atom   22 type  2   force =    -0.00832138    0.00539199   -0.25735911
     atom   23 type  2   force =     0.00802147   -0.01481996    0.26525828
     atom   24 type  1   force =    -0.00034507    0.00776567   -0.04660760
     atom   25 type  2   force =     0.06316892   -0.02462003   -0.26092892
     atom   26 type  2   force =    -0.01773828   -0.00597998    0.26968459
     atom   27 type  1   force =    -0.01052709   -0.00833146    0.01556632
     atom   28 type  2   force =    -0.07439909   -0.40918623   -0.06663401
     atom   29 type  2   force =     0.00390060    0.00422243    0.25205575
     atom   30 type  1   force =     0.00271047    0.03361626    0.00887981
     atom   31 type  2   force =    -0.00767783    0.01436350   -0.24560481
     atom   32 type  2   force =    -0.00396577   -0.00809375    0.27444377
     atom   33 type  1   force =    -0.00976502    0.01128346    0.00495426
     atom   34 type  2   force =     0.00041432   -0.04414009   -0.26899611
     atom   35 type  2   force =    -0.00037270   -0.01253096    0.26904565
     atom   36 type  3   force =     0.38773888    1.73141796   -1.29742756
     The ionic contribution  to forces
     atom    1 type  1   force =    -1.47672393   -0.31082594    3.31470496
     atom    2 type  2   force =    -3.04592160   -2.68028629   37.92905437
     atom    3 type  2   force =    -0.38306320   -0.30543029  -37.15986042
     atom    4 type  1   force =    -1.20501828    2.68931347   -2.32463125
     atom    5 type  2   force =    -2.23307347    2.17547503   38.28200475
     atom    6 type  2   force =     0.11270504   -0.36301960  -38.83745591
     atom    7 type  1   force =    -2.91540465   -2.48325333    1.62251948
     atom    8 type  2   force =    -1.26807711    0.74681583   37.11078954
     atom    9 type  2   force =     0.25893283    0.16758972  -38.62147017
     atom   10 type  1   force =    -1.65593746   -1.76604896    4.07493651
     atom   11 type  2   force =    -0.77786793   -1.88713773   38.99506695
     atom   12 type  2   force =     0.35892100    0.57629518  -38.37065798
     atom   13 type  1   force =     1.74399857    0.57091436    0.96984220
     atom   14 type  2   force =    -0.07645938   -0.36420189   38.28707363
     atom   15 type  2   force =     0.11079541   -0.20209097  -37.44497904
     atom   16 type  1   force =    -0.17608724    4.57764758   -0.79848538
     atom   17 type  2   force =     1.67986931    1.96533909   37.55132072
     atom   18 type  2   force =     0.00917170   -0.52877674  -39.29533790
     atom   19 type  1   force =     2.95591040   -2.18640713   -0.26180317
     atom   20 type  2   force =     0.21368340   -0.08267436  -38.97412357
     atom   21 type  1   force =    -0.06051704   -0.52214824    0.17767541
     atom   22 type  2   force =     0.62414874   -1.95199744   38.28561566
     atom   23 type  2   force =    -0.02093881    0.56276561  -38.78813347
     atom   24 type  1   force =     0.41187267   -1.14070046   -2.20844386
     atom   25 type  2   force =     2.65190251   -1.57082182   38.39760313
     atom   26 type  2   force =    -0.03751925   -0.19526639  -38.28938540
     atom   27 type  1   force =     1.36487427    2.06604854   -4.77904013
     atom   28 type  2   force =     1.72853117    8.60970790   33.32402952
     atom   29 type  2   force =    -0.21459170   -0.15905638  -38.54303831
     atom   30 type  1   force =    -0.27717121   -0.39094072   -1.20336781
     atom   31 type  2   force =     1.55218222    0.56467634   37.06801961
     atom   32 type  2   force =    -0.38598818    0.17656368  -39.22823385
     atom   33 type  1   force =     1.43880060   -2.08260126    0.58823118
     atom   34 type  2   force =     0.29858824   -2.09392442   39.14133922
     atom   35 type  2   force =    -0.28342994    0.30464461  -38.41737520
     atom   36 type  3   force =    -1.02109768   -2.48618657   48.42599595
     The local contribution  to forces
     atom    1 type  1   force =     1.51012560    0.27139136   -3.29301766
     atom    2 type  2   force =     3.04800172    2.63180106  -37.72055741
     atom    3 type  2   force =     0.37920212    0.30846123   36.90614246
     atom    4 type  1   force =     1.17076481   -2.69939126    2.31044607
     atom    5 type  2   force =     2.22802749   -2.14863401  -38.05384755
     atom    6 type  2   force =    -0.11069901    0.35515693   38.59869274
     atom    7 type  1   force =     2.94185440    2.46529675   -1.60434883
     atom    8 type  2   force =     1.26211757   -0.75110523  -36.86103433
     atom    9 type  2   force =    -0.25556522   -0.15208261   38.37406180
     atom   10 type  1   force =     1.62898002    1.74538540   -4.10061163
     atom   11 type  2   force =     0.77028162    1.87980130  -38.76373875
     atom   12 type  2   force =    -0.34933463   -0.55973655   38.13422594
     atom   13 type  1   force =    -1.74437264   -0.57127955   -0.97492801
     atom   14 type  2   force =     0.07278905    0.36629620  -38.03944107
     atom   15 type  2   force =    -0.11086630    0.20623670   37.19586753
     atom   16 type  1   force =     0.17388456   -4.60211853    0.83054538
     atom   17 type  2   force =    -1.67299811   -1.93298563  -37.31577173
     atom   18 type  2   force =    -0.00688032    0.51671765   39.05674337
     atom   19 type  1   force =    -2.96536743    2.17933004    0.27767291
     atom   20 type  2   force =    -0.21005263    0.10182781   38.73202639
     atom   21 type  1   force =     0.05172596    0.50188700   -0.18646188
     atom   22 type  2   force =    -0.61926576    1.94643658  -38.05222391
     atom   23 type  2   force =     0.01278575   -0.54698449   38.55244870
     atom   24 type  1   force =    -0.41866478    1.09244515    2.21595163
     atom   25 type  2   force =    -2.67353058    1.58467076  -38.16319021
     atom   26 type  2   force =     0.03311580    0.20419638   38.03345828
     atom   27 type  1   force =    -1.31880784   -2.08006852    4.74922168
     atom   28 type  2   force =    -1.65533533   -7.99353207  -33.31647647
     atom   29 type  2   force =     0.21472160    0.15549946   38.30552897
     atom   30 type  1   force =     0.26954530    0.36333355    1.19388655
     atom   31 type  2   force =    -1.54303544   -0.57478152  -36.82445793
     atom   32 type  2   force =     0.38281937   -0.16263621   38.98150760
     atom   33 type  1   force =    -1.41097465    2.05760978   -0.59744323
     atom   34 type  2   force =    -0.29577759    2.09699180  -38.90447065
     atom   35 type  2   force =     0.27716318   -0.28866401   38.18210944
     atom   36 type  3   force =     0.64503182    0.71005908  -46.99453260
     The core correction contribution to forces
     atom    1 type  1   force =     0.00000000    0.00000000    0.00000000
     atom    2 type  2   force =     0.00349436    0.00123907    0.02127529
     atom    3 type  2   force =    -0.00002022   -0.00055741   -0.02092686
     atom    4 type  1   force =     0.00000000    0.00000000    0.00000000
     atom    5 type  2   force =    -0.00060968    0.00185753    0.02052954
     atom    6 type  2   force =     0.00010610   -0.00149545   -0.02066270
     atom    7 type  1   force =     0.00000000    0.00000000    0.00000000
     atom    8 type  2   force =    -0.00008481    0.00008535    0.02030231
     atom    9 type  2   force =    -0.00025682    0.00038111   -0.02102419
     atom   10 type  1   force =     0.00000000    0.00000000    0.00000000
     atom   11 type  2   force =    -0.00063776   -0.00063324    0.02065833
     atom   12 type  2   force =     0.00115577    0.00135336   -0.02080980
     atom   13 type  1   force =     0.00000000    0.00000000    0.00000000
     atom   14 type  2   force =    -0.00069278   -0.00029971    0.02032019
     atom   15 type  2   force =     0.00073245    0.00018877   -0.02061743
     atom   16 type  1   force =     0.00000000    0.00000000    0.00000000
     atom   17 type  2   force =     0.00018296    0.00159661    0.02047106
     atom   18 type  2   force =     0.00029274   -0.00091860   -0.02093917
     atom   19 type  1   force =     0.00000000    0.00000000    0.00000000
     atom   20 type  2   force =     0.00018689    0.00099020   -0.02112682
     atom   21 type  1   force =     0.00000000    0.00000000    0.00000000
     atom   22 type  2   force =     0.00020285   -0.00052003    0.02048672
     atom   23 type  2   force =    -0.00061312    0.00127100   -0.02073522
     atom   24 type  1   force =     0.00000000    0.00000000    0.00000000
     atom   25 type  2   force =    -0.00289430    0.00109018    0.02097262
     atom   26 type  2   force =     0.00067612    0.00024055   -0.02115593
     atom   27 type  1   force =     0.00000000    0.00000000    0.00000000
     atom   28 type  2   force =     0.00403579    0.02217547    0.00896682
     atom   29 type  2   force =    -0.00043259   -0.00071649   -0.02001617
     atom   30 type  1   force =     0.00000000    0.00000000    0.00000000
     atom   31 type  2   force =     0.00047267   -0.00049333    0.02014141
     atom   32 type  2   force =    -0.00007915    0.00056084   -0.02107902
     atom   33 type  1   force =     0.00000000    0.00000000    0.00000000
     atom   34 type  2   force =     0.00031983    0.00152989    0.02090982
     atom   35 type  2   force =    -0.00019878    0.00103014   -0.02098480
     atom   36 type  3   force =    -0.00417725   -0.01828533    0.01286270
     The Hubbard contrib.    to forces
     atom    1 type  1   force =     0.00000000    0.00000000    0.00000000
     atom    2 type  2   force =     0.00000000    0.00000000    0.00000000
     atom    3 type  2   force =     0.00000000    0.00000000    0.00000000
     atom    4 type  1   force =     0.00000000    0.00000000    0.00000000
     atom    5 type  2   force =     0.00000000    0.00000000    0.00000000
     atom    6 type  2   force =     0.00000000    0.00000000    0.00000000
     atom    7 type  1   force =     0.00000000    0.00000000    0.00000000
     atom    8 type  2   force =     0.00000000    0.00000000    0.00000000
     atom    9 type  2   force =     0.00000000    0.00000000    0.00000000
     atom   10 type  1   force =     0.00000000    0.00000000    0.00000000
     atom   11 type  2   force =     0.00000000    0.00000000    0.00000000
     atom   12 type  2   force =     0.00000000    0.00000000    0.00000000
     atom   13 type  1   force =     0.00000000    0.00000000    0.00000000
     atom   14 type  2   force =     0.00000000    0.00000000    0.00000000
     atom   15 type  2   force =     0.00000000    0.00000000    0.00000000
     atom   16 type  1   force =     0.00000000    0.00000000    0.00000000
     atom   17 type  2   force =     0.00000000    0.00000000    0.00000000
     atom   18 type  2   force =     0.00000000    0.00000000    0.00000000
     atom   19 type  1   force =     0.00000000    0.00000000    0.00000000
     atom   20 type  2   force =     0.00000000    0.00000000    0.00000000
     atom   21 type  1   force =     0.00000000    0.00000000    0.00000000
     atom   22 type  2   force =     0.00000000    0.00000000    0.00000000
     atom   23 type  2   force =     0.00000000    0.00000000    0.00000000
     atom   24 type  1   force =     0.00000000    0.00000000    0.00000000
     atom   25 type  2   force =     0.00000000    0.00000000    0.00000000
     atom   26 type  2   force =     0.00000000    0.00000000    0.00000000
     atom   27 type  1   force =     0.00000000    0.00000000    0.00000000
     atom   28 type  2   force =     0.00000000    0.00000000    0.00000000
     atom   29 type  2   force =     0.00000000    0.00000000    0.00000000
     atom   30 type  1   force =     0.00000000    0.00000000    0.00000000
     atom   31 type  2   force =     0.00000000    0.00000000    0.00000000
     atom   32 type  2   force =     0.00000000    0.00000000    0.00000000
     atom   33 type  1   force =     0.00000000    0.00000000    0.00000000
     atom   34 type  2   force =     0.00000000    0.00000000    0.00000000
     atom   35 type  2   force =     0.00000000    0.00000000    0.00000000
     atom   36 type  3   force =     0.00000000    0.00000000    0.00000000
     The SCF correction term to forces
     atom    1 type  1   force =    -0.00004814    0.00000085    0.00006296
     atom    2 type  2   force =    -0.00005756    0.00006055    0.00024711
     atom    3 type  2   force =    -0.00001275    0.00007564   -0.00024604
     atom    4 type  1   force =     0.00022132   -0.00025094    0.00020323
     atom    5 type  2   force =    -0.00007714    0.00000966    0.00035805
     atom    6 type  2   force =    -0.00002129   -0.00009360   -0.00026355
     atom    7 type  1   force =    -0.00027529   -0.00021769    0.00029490
     atom    8 type  2   force =    -0.00003940   -0.00005043    0.00039102
     atom    9 type  2   force =     0.00000857   -0.00006098   -0.00023460
     atom   10 type  1   force =    -0.00011371    0.00021521    0.00005651
     atom   11 type  2   force =    -0.00004495   -0.00002685    0.00041788
     atom   12 type  2   force =    -0.00000948    0.00010793   -0.00028190
     atom   13 type  1   force =     0.00010659   -0.00000682    0.00003990
     atom   14 type  2   force =    -0.00000974    0.00004492    0.00027127
     atom   15 type  2   force =    -0.00000312    0.00006840   -0.00022708
     atom   16 type  1   force =     0.00002252    0.00011962    0.00015349
     atom   17 type  2   force =     0.00009113   -0.00002441    0.00038870
     atom   18 type  2   force =     0.00006903   -0.00012474   -0.00026610
     atom   19 type  1   force =     0.00022099   -0.00015127    0.00027315
     atom   20 type  2   force =     0.00000175   -0.00008745   -0.00014950
     atom   21 type  1   force =    -0.00003365    0.00032778    0.00009512
     atom   22 type  2   force =     0.00002179   -0.00004058    0.00037715
     atom   23 type  2   force =    -0.00000551    0.00009238   -0.00023124
     atom   24 type  1   force =    -0.00001132    0.00026236   -0.00001075
     atom   25 type  2   force =     0.00007964    0.00006620    0.00021749
     atom   26 type  2   force =     0.00000981    0.00006222   -0.00022175
     atom   27 type  1   force =    -0.00022739   -0.00026151    0.00027889
     atom   28 type  2   force =    -0.00001007    0.00000482    0.00019990
     atom   29 type  2   force =    -0.00004769   -0.00013659   -0.00020015
     atom   30 type  1   force =     0.00004048   -0.00008161    0.00017384
     atom   31 type  2   force =     0.00005145   -0.00001617    0.00041925
     atom   32 type  2   force =    -0.00000665    0.00000350   -0.00025833
     atom   33 type  1   force =     0.00012918    0.00012108   -0.00002704
     atom   34 type  2   force =     0.00003523   -0.00006328    0.00034563
     atom   35 type  2   force =     0.00002045    0.00007817   -0.00027574
     atom   36 type  3   force =     0.00002288    0.00021502    0.00002717

     Total force =     0.325162     Total SCF correction =     0.001802

     BFGS Geometry Optimization
     Energy error            =      0.0E+00 Ry
     Gradient error          =      2.3E-01 Ry/Bohr

     number of scf cycles    =   1
     number of bfgs steps    =   0

     energy             new  =   -2246.1986714791 Ry

     new trust radius        =       0.2345590522 bohr
     new conv_thr            =       0.0000010000 Ry


ATOMIC_POSITIONS (angstrom)
Mo            6.5863894301        1.7780180234        2.8283185691
S             8.1442823325        0.7789974753        4.4112336243
S             8.1899946771        0.8166617372        1.2757133352
Mo            8.0895207279        4.4883932896        2.7152260847
S             6.4991094887        3.7199616691        4.3427897701
S             6.5556192557        3.5173180712        1.1207669982
Mo            6.4931569751        7.2110090139        2.6679770087
S             8.0802638119        6.3448313196        4.2522179135
S             8.0875974197        6.3100069961        1.0884033933
Mo            8.1462588796        9.8986591896        2.8300938407
S             6.4983417540        8.9430151947        4.3790608809
S             6.6172856565        9.0493751135        1.1426967795
Mo            3.4234935960        1.7541551244        2.7702470803
S             4.9797905340        0.8159135007        4.3569838311
S             5.0509795994        0.8469468702        1.2225035777
Mo            4.9796409537        4.5205100027        2.6360197363
S             3.4320004796        3.6735144756        4.2802966361
S             3.4344232288        3.5443592584        1.0649104056
Mo            3.4546776828        7.2119369310        2.6284062425
S             4.9847516290        6.3248238469        1.0377983184
Mo            5.0093691715        9.9034652141        2.7429326429
S             3.4692575586        8.9433647867        4.3239484267
S             3.4080322519        9.0662196231        1.1006223667
Mo            0.2923077538        1.7262217134        2.8287476933
S             1.8709553207        0.7876056593        4.3953905178
S             1.8494461987        0.8561467546        1.2053678212
Mo            1.8793776798        4.4837000490        2.6528024745
S             0.2737075275        3.7756698480        4.3111700304
S             0.2331099894        3.5271495068        1.1690169024
Mo            0.2685725237        7.2197823235        2.7014695627
S             1.9032930238        6.3147821576        4.2322425843
S             1.8584174399        6.3137290585        1.0479349387
Mo            1.8539725434        9.9329487937        2.7706782302
S             0.2978074602        9.0690387249        4.4081156196
S             0.2731636706        9.0459372186        1.1570251495
O             9.4607387863        2.3954223200        5.1916185896



     Writing config-only to output data dir ./MoS2-V-O.save/
     NEW-OLD atomic charge density approx. for the potential

     negative rho (up, down):  1.742E-04 0.000E+00

     total cpu time spent up to now is      160.1 secs

     Self-consistent Calculation

     iteration #  1     ecut=    80.00 Ry     beta= 0.70
     Davidson diagonalization with overlap
     ethr =  1.00E-06,  avg # of iterations = 17.0

     negative rho (up, down):  1.325E-03 0.000E+00

     total cpu time spent up to now is      177.8 secs

     total energy              =   -2246.24770453 Ry
     estimated scf accuracy    <       0.01847690 Ry

     iteration #  2     ecut=    80.00 Ry     beta= 0.70
     Davidson diagonalization with overlap
     ethr =  5.92E-06,  avg # of iterations =  3.0

     negative rho (up, down):  2.805E-03 0.000E+00

     total cpu time spent up to now is      192.1 secs

     total energy              =   -2246.24727698 Ry
     estimated scf accuracy    <       0.00437596 Ry

     iteration #  3     ecut=    80.00 Ry     beta= 0.70
     Davidson diagonalization with overlap
     ethr =  1.40E-06,  avg # of iterations =  3.0

     negative rho (up, down):  3.474E-03 0.000E+00

     total cpu time spent up to now is      206.8 secs

     total energy              =   -2246.24756573 Ry
     estimated scf accuracy    <       0.00183723 Ry

     iteration #  4     ecut=    80.00 Ry     beta= 0.70
     Davidson diagonalization with overlap
     ethr =  5.89E-07,  avg # of iterations =  5.0

     negative rho (up, down):  3.645E-03 0.000E+00

     total cpu time spent up to now is      227.9 secs

     total energy              =   -2246.24763627 Ry
     estimated scf accuracy    <       0.00031946 Ry

     iteration #  5     ecut=    80.00 Ry     beta= 0.70
     Davidson diagonalization with overlap
     ethr =  1.02E-07,  avg # of iterations =  5.0

     negative rho (up, down):  3.353E-03 0.000E+00

     total cpu time spent up to now is      241.5 secs

     total energy              =   -2246.24764335 Ry
     estimated scf accuracy    <       0.00011523 Ry

     iteration #  6     ecut=    80.00 Ry     beta= 0.70
     Davidson diagonalization with overlap
     ethr =  3.69E-08,  avg # of iterations =  6.0

     negative rho (up, down):  2.701E-03 0.000E+00

     total cpu time spent up to now is      253.5 secs

     total energy              =   -2246.24764986 Ry
     estimated scf accuracy    <       0.00001678 Ry

     iteration #  7     ecut=    80.00 Ry     beta= 0.70
     Davidson diagonalization with overlap
     ethr =  5.38E-09,  avg # of iterations =  5.0

     negative rho (up, down):  2.038E-03 0.000E+00

     total cpu time spent up to now is      266.5 secs

     total energy              =   -2246.24764823 Ry
     estimated scf accuracy    <       0.00000597 Ry

     iteration #  8     ecut=    80.00 Ry     beta= 0.70
     Davidson diagonalization with overlap
     ethr =  1.91E-09,  avg # of iterations =  2.0

     negative rho (up, down):  1.242E-03 0.000E+00

     total cpu time spent up to now is      278.8 secs

     total energy              =   -2246.24764340 Ry
     estimated scf accuracy    <       0.00000264 Ry

     iteration #  9     ecut=    80.00 Ry     beta= 0.70
     Davidson diagonalization with overlap
     ethr =  8.46E-10,  avg # of iterations =  2.0

     negative rho (up, down):  1.844E-04 0.000E+00

     total cpu time spent up to now is      283.4 secs

     End of self-consistent calculation

          k = 0.0000 0.0000 0.0000 (105382 PWs)   bands (ev):

   -63.1682 -62.9271 -62.9221 -62.8988 -62.8944 -62.8852 -62.8647 -62.8538
   -62.8472 -62.8311 -62.7994 -62.7708 -37.4501 -37.3431 -37.3021 -37.2484
   -37.2299 -37.1952 -37.1898 -37.1383 -37.1340 -37.1190 -37.1136 -37.1080
   -37.0977 -37.0819 -37.0807 -37.0761 -37.0638 -37.0525 -37.0436 -37.0271
   -37.0103 -37.0031 -36.9924 -36.9856 -36.9836 -36.9787 -36.9710 -36.9578
   -36.9539 -36.9475 -36.9222 -36.8975 -36.8757 -36.8295 -36.8116 -36.7815
   -21.3649 -15.9796 -15.3082 -15.1891 -15.0308 -14.9056 -14.8147 -14.6693
   -14.5555 -14.5297 -14.4623 -14.4143 -14.4035 -14.3530 -14.2756 -14.2117
   -14.1882 -14.1756 -14.0885 -13.9967 -13.9271 -13.8795 -13.8496 -13.6822
    -8.1662  -7.7735  -7.6578  -7.5333  -7.4190  -7.3451  -7.2469  -7.2259
    -7.1908  -6.9581  -6.8940  -6.8357  -6.8231  -6.7360  -6.6676  -6.5662
    -6.5165  -6.4918  -6.3523  -6.3284  -6.1339  -6.1153  -5.9436  -5.9176
    -5.9013  -5.8077  -5.7752  -5.7451  -5.7256  -5.7208  -5.6731  -5.6186
    -5.5235  -5.4252  -5.4144  -5.2979  -5.2513  -5.2046  -5.1451  -5.0471
    -5.0362  -5.0223  -4.8529  -4.8350  -4.7345  -4.5760  -4.4588  -4.4060
    -4.3829  -4.3587  -4.1796  -4.1390  -4.0907  -3.9653  -3.8555  -3.8180
    -3.8029  -3.7637  -3.7230  -3.7022  -3.6507  -3.5906  -3.5402  -3.5151
    -3.4689  -3.4347  -3.2970  -3.2040  -3.1567  -3.0964  -2.9164  -2.8755
    -2.8393  -2.7725  -2.7675  -2.7324  -2.6925  -2.6221  -2.4947  -2.4264
    -2.0942  -2.0034  -1.9588  -1.2736  -0.9048  -0.8585  -0.7857  -0.2415
    -0.1776  -0.1119  -0.0907   0.0887   0.1320   0.1520   0.1977   0.2085
     0.2446   0.2697   0.3613   0.4133   0.4779   0.5033   0.5644   0.5904
     0.6277   0.6864   0.7227   0.7252   0.7577   0.8228   0.8575   0.9292
     1.0503   1.1237   1.1271

     the Fermi energy is    -1.0950 ev

!    total energy              =   -2246.24763907 Ry
     estimated scf accuracy    <       0.00000092 Ry
     smearing contrib. (-TS)   =      -0.00211220 Ry
     internal energy E=F+TS    =   -2246.24552687 Ry

     The total energy is F=E-TS. E is the sum of the following terms:
     one-electron contribution =  -18493.47555941 Ry
     hartree contribution      =    9234.98892735 Ry
     xc contribution           =    -392.09983771 Ry
     ewald contribution        =    7414.20743601 Ry
     one-center paw contrib.   =      -9.86649311 Ry

     convergence has been achieved in   9 iterations

     negative rho (up, down):  1.844E-04 0.000E+00

     Forces acting on atoms (cartesian axes, Ry/au):

     atom    1 type  1   force =     0.00400772   -0.01179692   -0.00136679
     atom    2 type  2   force =    -0.02575759   -0.02411188   -0.02838970
     atom    3 type  2   force =    -0.00860173    0.00444513   -0.01278674
     atom    4 type  1   force =    -0.01006994    0.00300069   -0.01138648
     atom    5 type  2   force =     0.00002845   -0.00633765   -0.00513833
     atom    6 type  2   force =     0.00144886    0.00640015   -0.00101811
     atom    7 type  1   force =     0.00272409   -0.00943113   -0.00152536
     atom    8 type  2   force =    -0.00539549    0.00078144    0.01162403
     atom    9 type  2   force =     0.01121591    0.00608819    0.00579109
     atom   10 type  1   force =    -0.01496095   -0.00539161   -0.01866575
     atom   11 type  2   force =     0.00303895   -0.00262087   -0.00850531
     atom   12 type  2   force =    -0.00503461   -0.00093803    0.00055236
     atom   13 type  1   force =     0.00550377    0.00604371   -0.00550067
     atom   14 type  2   force =     0.00603042    0.00006287    0.00738849
     atom   15 type  2   force =    -0.00784358    0.00220902   -0.00502557
     atom   16 type  1   force =     0.00126966    0.00807903    0.00405556
     atom   17 type  2   force =     0.00799188    0.00123717    0.00368824
     atom   18 type  2   force =     0.00066933   -0.00654687    0.00426511
     atom   19 type  1   force =     0.00284385   -0.00697446   -0.00027323
     atom   20 type  2   force =     0.00249359   -0.00300177   -0.00229905
     atom   21 type  1   force =    -0.00445470    0.00019410   -0.00031443
     atom   22 type  2   force =    -0.00159528   -0.00265190   -0.00321920
     atom   23 type  2   force =     0.00070053    0.00015687    0.00482815
     atom   24 type  1   force =    -0.01272822   -0.02366387    0.01778437
     atom   25 type  2   force =     0.02337475   -0.00263870   -0.01264520
     atom   26 type  2   force =    -0.01197034   -0.00076565   -0.00859092
     atom   27 type  1   force =     0.02007782   -0.00479466   -0.01255680
     atom   28 type  2   force =    -0.02421570    0.01839668    0.07867395
     atom   29 type  2   force =     0.00336922   -0.00375097   -0.00498216
     atom   30 type  1   force =    -0.00247641   -0.00158984    0.00287900
     atom   31 type  2   force =     0.00564822    0.00121011    0.00946554
     atom   32 type  2   force =    -0.00562839    0.00480717    0.00467099
     atom   33 type  1   force =     0.01189536   -0.00302066   -0.00116766
     atom   34 type  2   force =     0.00006501   -0.03087855   -0.01333227
     atom   35 type  2   force =    -0.00476284    0.00422872    0.00709718
     atom   36 type  3   force =     0.03109837    0.08356493   -0.00407433
     The non-local contrib.  to forces
     atom    1 type  1   force =    -0.00724211    0.01844757   -0.01331304
     atom    2 type  2   force =    -0.03711691    0.01705333   -0.26518786
     atom    3 type  2   force =    -0.00122190   -0.00225159    0.26487489
     atom    4 type  1   force =     0.01734059   -0.00317763    0.00748878
     atom    5 type  2   force =     0.00229809   -0.03424737   -0.25660973
     atom    6 type  2   force =     0.00014351    0.01585767    0.25832000
     atom    7 type  1   force =    -0.01831909    0.00429334   -0.02736388
     atom    8 type  2   force =     0.00165258    0.00731322   -0.25823397
     atom    9 type  2   force =     0.00623648   -0.01042629    0.27675328
     atom   10 type  1   force =    -0.00426950    0.01462559    0.00214330
     atom   11 type  2   force =     0.01265033    0.00535282   -0.26340574
     atom   12 type  2   force =    -0.01525889   -0.01863022    0.25961127
     atom   13 type  1   force =     0.00415230    0.01645076   -0.00597813
     atom   14 type  2   force =     0.01179358   -0.00374353   -0.26223830
     atom   15 type  2   force =    -0.00969987   -0.00302908    0.26427328
     atom   16 type  1   force =     0.00042304    0.03644061   -0.02792652
     atom   17 type  2   force =     0.00441496   -0.03151423   -0.25407532
     atom   18 type  2   force =    -0.00334772    0.00572379    0.26623554
     atom   19 type  1   force =     0.01102529    0.00235753   -0.02182485
     atom   20 type  2   force =    -0.00133114   -0.02258580    0.26209123
     atom   21 type  1   force =     0.00271041    0.02606184    0.00628287
     atom   22 type  2   force =    -0.00743817    0.00355501   -0.25947936
     atom   23 type  2   force =     0.00918900   -0.01680230    0.26320287
     atom   24 type  1   force =    -0.00194232   -0.00416765   -0.04070392
     atom   25 type  2   force =     0.05164227   -0.01610166   -0.26796632
     atom   26 type  2   force =    -0.01178631   -0.01153562    0.26827394
     atom   27 type  1   force =    -0.00726140   -0.01113049    0.01645416
     atom   28 type  2   force =    -0.07701885   -0.55263308   -0.04860063
     atom   29 type  2   force =     0.00523081    0.00025900    0.25727652
     atom   30 type  1   force =     0.00294953    0.03695425    0.00904181
     atom   31 type  2   force =    -0.00637189    0.01473996   -0.25502007
     atom   32 type  2   force =    -0.00110044   -0.01091840    0.27442802
     atom   33 type  1   force =    -0.00597198    0.00937042    0.00356651
     atom   34 type  2   force =    -0.00263873   -0.03802803   -0.27270710
     atom   35 type  2   force =     0.00028493   -0.01287393    0.26611500
     atom   36 type  3   force =     0.27580879    1.38507870   -1.16182035
     The ionic contribution  to forces
     atom    1 type  1   force =    -1.68714283    0.11255222    3.56725367
     atom    2 type  2   force =    -2.48119350   -2.24169212   37.79746813
     atom    3 type  2   force =    -0.41875361   -0.27425899  -37.27736474
     atom    4 type  1   force =    -1.06187236    2.38810500   -2.43699196
     atom    5 type  2   force =    -2.13739171    2.06059843   38.26035153
     atom    6 type  2   force =     0.04513130   -0.44832871  -38.77811679
     atom    7 type  1   force =    -2.96597516   -2.40721792    1.52141016
     atom    8 type  2   force =    -1.29668871    0.71347893   37.20363243
     atom    9 type  2   force =     0.30152102    0.08241689  -38.59122230
     atom   10 type  1   force =    -1.18345624   -1.79163800    3.59122587
     atom   11 type  2   force =    -0.81501952   -1.93876578   38.99523440
     atom   12 type  2   force =     0.24798809    0.51501341  -38.41568744
     atom   13 type  1   force =     1.62686167    0.41443855    0.91167114
     atom   14 type  2   force =    -0.18857377   -0.28112102   38.33558124
     atom   15 type  2   force =     0.14335047   -0.13152185  -37.44151518
     atom   16 type  1   force =    -0.01788083    4.32800822   -0.56639062
     atom   17 type  2   force =     1.59594119    1.83364151   37.67703453
     atom   18 type  2   force =     0.12905162   -0.54094087  -39.33629205
     atom   19 type  1   force =     2.89697063   -2.13444752   -0.31047907
     atom   20 type  2   force =     0.20074917   -0.06888176  -39.04180088
     atom   21 type  1   force =    -0.15081070   -0.49770088    0.24730243
     atom   22 type  2   force =     0.64869790   -1.95698733   38.32271958
     atom   23 type  2   force =    -0.00106131    0.53608544  -38.79164590
     atom   24 type  1   force =     0.45880409   -0.28441007   -1.47745664
     atom   25 type  2   force =     2.33247540   -1.30991595   38.28769953
     atom   26 type  2   force =     0.06954431   -0.23429316  -38.26429790
     atom   27 type  1   force =     0.99565787    1.97397845   -5.07702907
     atom   28 type  2   force =     1.25994189    6.19073330   33.97074845
     atom   29 type  2   force =    -0.22999316   -0.11338171  -38.38829377
     atom   30 type  1   force =    -0.15378661   -0.62761195   -1.17277141
     atom   31 type  2   force =     1.55839782    0.52742845   37.08620395
     atom   32 type  2   force =    -0.43751985    0.14849425  -39.15835544
     atom   33 type  1   force =     1.17876665   -1.78371574    0.71798018
     atom   34 type  2   force =     0.26256362   -1.82736440   39.04638198
     atom   35 type  2   force =    -0.21379672    0.32503110  -38.33970631
     atom   36 type  3   force =    -0.51149814   -1.25580843   47.32551828
     The local contribution  to forces
     atom    1 type  1   force =     1.69878115   -0.14329603   -3.55445566
     atom    2 type  2   force =     2.49020040    2.20049085  -37.58142269
     atom    3 type  2   force =     0.41156755    0.28100007   37.02055595
     atom    4 type  1   force =     1.03440512   -2.38196691    2.41882993
     atom    5 type  2   force =     2.13562508   -2.03455138  -38.02892418
     atom    6 type  2   force =    -0.04385988    0.44024446   38.53921252
     atom    7 type  1   force =     2.98693262    2.39375422   -1.49501386
     atom    8 type  2   force =     1.28954613   -0.71980412  -36.95380060
     atom    9 type  2   force =    -0.29652550   -0.06629211   38.34121670
     atom   10 type  1   force =     1.17249480    1.77167397   -3.61148171
     atom   11 type  2   force =     0.80594335    1.93133152  -38.76067538
     atom   12 type  2   force =    -0.23897089   -0.49870734   38.17737806
     atom   13 type  1   force =    -1.62567668   -0.42498764   -0.91060652
     atom   14 type  2   force =     0.18357566    0.28503495  -38.08597202
     atom   15 type  2   force =    -0.14210243    0.13637118   37.19283040
     atom   16 type  1   force =     0.01860263   -4.35604032    0.59895437
     atom   17 type  2   force =    -1.59237565   -1.80247855  -37.43929158
     atom   18 type  2   force =    -0.12526826    0.52956835   39.09505402
     atom   19 type  1   force =    -2.90502890    2.12540683    0.33258410
     atom   20 type  2   force =    -0.19710019    0.08767924   38.79843301
     atom   21 type  1   force =     0.14369240    0.47163417   -0.25334290
     atom   22 type  2   force =    -0.64303146    1.95124939  -38.08663001
     atom   23 type  2   force =    -0.00678537   -0.52046112   38.55400442
     atom   24 type  1   force =    -0.46978130    0.26457966    1.53644537
     atom   25 type  2   force =    -2.35820825    1.32237097  -38.05326460
     atom   26 type  2   force =    -0.07031328    0.24456385   38.00850042
     atom   27 type  1   force =    -0.96815980   -1.96775684    5.04864984
     atom   28 type  2   force =    -1.21164354   -5.65010285  -33.85005047
     atom   29 type  2   force =     0.22863403    0.10970087   38.14604586
     atom   30 type  1   force =     0.14831944    0.58961567    1.16716267
     atom   31 type  2   force =    -1.54665578   -0.54020666  -36.84162122
     atom   32 type  2   force =     0.43330388   -0.13331369   38.90952729
     atom   33 type  1   force =    -1.16072843    1.77111730   -0.72217418
     atom   34 type  2   force =    -0.26021796    1.83303155  -38.80750906
     atom   35 type  2   force =     0.20893865   -0.30902768   38.10150477
     atom   36 type  3   force =     0.26996315   -0.03017132  -46.17949275
     The core correction contribution to forces
     atom    1 type  1   force =     0.00000000    0.00000000    0.00000000
     atom    2 type  2   force =     0.00232311    0.00005921    0.02117969
     atom    3 type  2   force =    -0.00016782   -0.00010214   -0.02081134
     atom    4 type  1   force =     0.00000000    0.00000000    0.00000000
     atom    5 type  2   force =    -0.00045810    0.00183661    0.02063705
     atom    6 type  2   force =     0.00008566   -0.00138408   -0.02060820
     atom    7 type  1   force =     0.00000000    0.00000000    0.00000000
     atom    8 type  2   force =     0.00002680   -0.00005094    0.02056918
     atom    9 type  2   force =    -0.00006926    0.00055779   -0.02105756
     atom   10 type  1   force =     0.00000000    0.00000000    0.00000000
     atom   11 type  2   force =    -0.00057934   -0.00054532    0.02082499
     atom   12 type  2   force =     0.00119550    0.00139359   -0.02073914
     atom   13 type  1   force =     0.00000000    0.00000000    0.00000000
     atom   14 type  2   force =    -0.00070478   -0.00024448    0.02055478
     atom   15 type  2   force =     0.00060891    0.00022724   -0.02067606
     atom   16 type  1   force =     0.00000000    0.00000000    0.00000000
     atom   17 type  2   force =    -0.00002482    0.00160950    0.02055996
     atom   18 type  2   force =     0.00016501   -0.00091485   -0.02084095
     atom   19 type  1   force =     0.00000000    0.00000000    0.00000000
     atom   20 type  2   force =     0.00019143    0.00092411   -0.02107713
     atom   21 type  1   force =     0.00000000    0.00000000    0.00000000
     atom   22 type  2   force =     0.00020247   -0.00047704    0.02064150
     atom   23 type  2   force =    -0.00062454    0.00133653   -0.02072248
     atom   24 type  1   force =     0.00000000    0.00000000    0.00000000
     atom   25 type  2   force =    -0.00256756    0.00097136    0.02142191
     atom   26 type  2   force =     0.00051434    0.00044612   -0.02111309
     atom   27 type  1   force =     0.00000000    0.00000000    0.00000000
     atom   28 type  2   force =     0.00451627    0.03032122    0.00715600
     atom   29 type  2   force =    -0.00049165   -0.00044812   -0.02016138
     atom   30 type  1   force =     0.00000000    0.00000000    0.00000000
     atom   31 type  2   force =     0.00034524   -0.00061301    0.02047488
     atom   32 type  2   force =    -0.00027318    0.00067390   -0.02106470
     atom   33 type  1   force =     0.00000000    0.00000000    0.00000000
     atom   34 type  2   force =     0.00039170    0.00138882    0.02102968
     atom   35 type  2   force =    -0.00019461    0.00108127   -0.02086612
     atom   36 type  3   force =    -0.00318617   -0.01569264    0.01230601
     The Hubbard contrib.    to forces
     atom    1 type  1   force =     0.00000000    0.00000000    0.00000000
     atom    2 type  2   force =     0.00000000    0.00000000    0.00000000
     atom    3 type  2   force =     0.00000000    0.00000000    0.00000000
     atom    4 type  1   force =     0.00000000    0.00000000    0.00000000
     atom    5 type  2   force =     0.00000000    0.00000000    0.00000000
     atom    6 type  2   force =     0.00000000    0.00000000    0.00000000
     atom    7 type  1   force =     0.00000000    0.00000000    0.00000000
     atom    8 type  2   force =     0.00000000    0.00000000    0.00000000
     atom    9 type  2   force =     0.00000000    0.00000000    0.00000000
     atom   10 type  1   force =     0.00000000    0.00000000    0.00000000
     atom   11 type  2   force =     0.00000000    0.00000000    0.00000000
     atom   12 type  2   force =     0.00000000    0.00000000    0.00000000
     atom   13 type  1   force =     0.00000000    0.00000000    0.00000000
     atom   14 type  2   force =     0.00000000    0.00000000    0.00000000
     atom   15 type  2   force =     0.00000000    0.00000000    0.00000000
     atom   16 type  1   force =     0.00000000    0.00000000    0.00000000
     atom   17 type  2   force =     0.00000000    0.00000000    0.00000000
     atom   18 type  2   force =     0.00000000    0.00000000    0.00000000
     atom   19 type  1   force =     0.00000000    0.00000000    0.00000000
     atom   20 type  2   force =     0.00000000    0.00000000    0.00000000
     atom   21 type  1   force =     0.00000000    0.00000000    0.00000000
     atom   22 type  2   force =     0.00000000    0.00000000    0.00000000
     atom   23 type  2   force =     0.00000000    0.00000000    0.00000000
     atom   24 type  1   force =     0.00000000    0.00000000    0.00000000
     atom   25 type  2   force =     0.00000000    0.00000000    0.00000000
     atom   26 type  2   force =     0.00000000    0.00000000    0.00000000
     atom   27 type  1   force =     0.00000000    0.00000000    0.00000000
     atom   28 type  2   force =     0.00000000    0.00000000    0.00000000
     atom   29 type  2   force =     0.00000000    0.00000000    0.00000000
     atom   30 type  1   force =     0.00000000    0.00000000    0.00000000
     atom   31 type  2   force =     0.00000000    0.00000000    0.00000000
     atom   32 type  2   force =     0.00000000    0.00000000    0.00000000
     atom   33 type  1   force =     0.00000000    0.00000000    0.00000000
     atom   34 type  2   force =     0.00000000    0.00000000    0.00000000
     atom   35 type  2   force =     0.00000000    0.00000000    0.00000000
     atom   36 type  3   force =     0.00000000    0.00000000    0.00000000
     The SCF correction term to forces
     atom    1 type  1   force =    -0.00038958    0.00049943   -0.00082750
     atom    2 type  2   force =     0.00002822   -0.00002303   -0.00040271
     atom    3 type  2   force =    -0.00002704    0.00005790   -0.00001724
     atom    4 type  1   force =     0.00005562    0.00004035   -0.00068897
     atom    5 type  2   force =    -0.00004600    0.00002618   -0.00056873
     atom    6 type  2   force =    -0.00005283    0.00001093    0.00019862
     atom    7 type  1   force =     0.00008463   -0.00026065   -0.00053352
     atom    8 type  2   force =     0.00006662   -0.00015554   -0.00051874
     atom    9 type  2   force =     0.00005207   -0.00016798    0.00012524
     atom   10 type  1   force =     0.00026890   -0.00005305   -0.00052894
     atom   11 type  2   force =     0.00004303    0.00000601   -0.00045932
     atom   12 type  2   force =     0.00001048   -0.00000736    0.00001388
     atom   13 type  1   force =     0.00016539    0.00014217   -0.00056291
     atom   14 type  2   force =    -0.00006137    0.00013705   -0.00051294
     atom   15 type  2   force =    -0.00000176    0.00016164    0.00008625
     atom   16 type  1   force =     0.00012373   -0.00032937   -0.00055740
     atom   17 type  2   force =     0.00003511   -0.00002094   -0.00051509
     atom   18 type  2   force =     0.00006759    0.00001681    0.00013281
     atom   19 type  1   force =    -0.00012426   -0.00029118   -0.00052915
     atom   20 type  2   force =    -0.00001678   -0.00013745    0.00007898
     atom   21 type  1   force =    -0.00004790    0.00019909   -0.00053257
     atom   22 type  2   force =    -0.00002711    0.00000818   -0.00044666
     atom   23 type  2   force =    -0.00001835   -0.00000156    0.00001350
     atom   24 type  1   force =     0.00019022    0.00033430   -0.00047617
     atom   25 type  2   force =     0.00003179    0.00003670   -0.00051146
     atom   26 type  2   force =     0.00006950    0.00005327    0.00006998
     atom   27 type  1   force =    -0.00015994    0.00011434   -0.00060747
     atom   28 type  2   force =    -0.00001257    0.00007819   -0.00055513
     atom   29 type  2   force =    -0.00001190    0.00011910    0.00017487
     atom   30 type  1   force =     0.00004014   -0.00054771   -0.00052981
     atom   31 type  2   force =    -0.00006826   -0.00013852   -0.00054774
     atom   32 type  2   force =    -0.00003989   -0.00012877    0.00016009
     atom   33 type  1   force =    -0.00017198    0.00020747   -0.00051592
     atom   34 type  2   force =    -0.00003471    0.00009362   -0.00050351
     atom   35 type  2   force =     0.00000381    0.00001808    0.00007410
     atom   36 type  3   force =     0.00000964    0.00015873   -0.00056126

     Total force =     0.154635     Total SCF correction =     0.003005
     Energy error            =      4.9E-02 Ry
     Gradient error          =      8.4E-02 Ry/Bohr

     number of scf cycles    =   2
     number of bfgs steps    =   1

     energy             old  =   -2246.1986714791 Ry
     energy             new  =   -2246.2476390726 Ry

     CASE: energy            _new < energy            _old

     new trust radius        =       0.1086549617 bohr
     new conv_thr            =       0.0000000836 Ry


ATOMIC_POSITIONS (angstrom)
Mo            6.5916642587        1.7688555859        2.8287320456
S             8.1214700160        0.7575534772        4.3892476036
S             8.1843037385        0.8205538700        1.2679248523
Mo            8.0823885363        4.4883998542        2.7081229704
S             6.4989225311        3.7157524527        4.3388985917
S             6.5570155413        3.5223575346        1.1200604216
Mo            6.4955050474        7.2037848276        2.6661215370
S             8.0768381948        6.3455174522        4.2612744075
S             8.0956417772        6.3147998494        1.0928340353
Mo            8.1341447433        9.8947134258        2.8161346562
S             6.5008677592        8.9415541774        4.3732198138
S             6.6142680235        9.0490127342        1.1437176634
Mo            3.4270744509        1.7594038340        2.7655533366
S             4.9843781338        0.8156881524        4.3628036540
S             5.0447997571        0.8483710729        1.2186041136
Mo            4.9803302220        4.5269444339        2.6391112646
S             3.4375799220        3.6747008945        4.2825332938
S             3.4339141139        3.5396711837        1.0689897610
Mo            3.4564945107        7.2068752732        2.6276750899
S             4.9865483129        6.3225894710        1.0366352857
Mo            5.0061127747        9.9040486362        2.7426357652
S             3.4679228408        8.9417656413        4.3217091821
S             3.4083279882        9.0666206165        1.1045114390
Mo            0.2841429515        1.7074226752        2.8335590422
S             1.8893889362        0.7848202003        4.3875174131
S             1.8397880899        0.8561502995        1.1994812473
Mo            1.8954864558        4.4779478896        2.6438175792
S             0.2603802820        3.8168729432        4.3489943399
S             0.2354940403        3.5250010754        1.1654349820
Mo            0.2665158745        7.2196787233        2.7030415209
S             1.9067578108        6.3159706558        4.2400880287
S             1.8542615988        6.3173094995        1.0514358621
Mo            1.8631494889        9.9294134446        2.7694414724
S             0.2983252818        9.0462395214        4.3991084553
S             0.2695518367        9.0489430165        1.1627241744
O             9.4793511703        2.4342864598        5.2090526753



     Writing config-only to output data dir ./MoS2-V-O.save/
     NEW-OLD atomic charge density approx. for the potential

     negative rho (up, down):  1.814E-04 0.000E+00

     total cpu time spent up to now is      292.3 secs

     Self-consistent Calculation

     iteration #  1     ecut=    80.00 Ry     beta= 0.70
     Davidson diagonalization with overlap
     ethr =  1.00E-06,  avg # of iterations = 10.0

     negative rho (up, down):  2.160E-04 0.000E+00

     total cpu time spent up to now is      308.8 secs

     total energy              =   -2246.27024764 Ry
     estimated scf accuracy    <       0.00466887 Ry

     iteration #  2     ecut=    80.00 Ry     beta= 0.70
     Davidson diagonalization with overlap
     ethr =  1.50E-06,  avg # of iterations =  5.0

     negative rho (up, down):  2.418E-04 0.000E+00

     total cpu time spent up to now is      325.6 secs

     total energy              =   -2246.27068579 Ry
     estimated scf accuracy    <       0.00138806 Ry

     iteration #  3     ecut=    80.00 Ry     beta= 0.70
     Davidson diagonalization with overlap
     ethr =  4.45E-07,  avg # of iterations =  4.0

     negative rho (up, down):  2.807E-04 0.000E+00

     total cpu time spent up to now is      345.4 secs

     total energy              =   -2246.27084227 Ry
     estimated scf accuracy    <       0.00027550 Ry

     iteration #  4     ecut=    80.00 Ry     beta= 0.70
     Davidson diagonalization with overlap
     ethr =  8.83E-08,  avg # of iterations =  3.0

     negative rho (up, down):  3.002E-04 0.000E+00

     total cpu time spent up to now is      360.5 secs

     total energy              =   -2246.27086715 Ry
     estimated scf accuracy    <       0.00003177 Ry

     iteration #  5     ecut=    80.00 Ry     beta= 0.70
     Davidson diagonalization with overlap
     ethr =  1.02E-08,  avg # of iterations =  5.0

     negative rho (up, down):  2.994E-04 0.000E+00

     total cpu time spent up to now is      377.5 secs

     total energy              =   -2246.27087514 Ry
     estimated scf accuracy    <       0.00000679 Ry

     iteration #  6     ecut=    80.00 Ry     beta= 0.70
     Davidson diagonalization with overlap
     ethr =  2.17E-09,  avg # of iterations =  2.0

     negative rho (up, down):  2.902E-04 0.000E+00

     total cpu time spent up to now is      394.3 secs

     total energy              =   -2246.27087579 Ry
     estimated scf accuracy    <       0.00000194 Ry

     iteration #  7     ecut=    80.00 Ry     beta= 0.70
     Davidson diagonalization with overlap
     ethr =  6.21E-10,  avg # of iterations =  5.0

     negative rho (up, down):  2.763E-04 0.000E+00

     total cpu time spent up to now is      410.3 secs

     total energy              =   -2246.27087613 Ry
     estimated scf accuracy    <       0.00000036 Ry

     iteration #  8     ecut=    80.00 Ry     beta= 0.70
     Davidson diagonalization with overlap
     ethr =  1.16E-10,  avg # of iterations =  5.0

     negative rho (up, down):  2.545E-04 0.000E+00

     total cpu time spent up to now is      424.2 secs

     total energy              =   -2246.27087626 Ry
     estimated scf accuracy    <       0.00000011 Ry

     iteration #  9     ecut=    80.00 Ry     beta= 0.70
     Davidson diagonalization with overlap
     ethr =  3.49E-11,  avg # of iterations =  4.0

     negative rho (up, down):  1.836E-04 0.000E+00

     total cpu time spent up to now is      428.9 secs

     End of self-consistent calculation

          k = 0.0000 0.0000 0.0000 (105382 PWs)   bands (ev):

   -63.1924 -62.9344 -62.9138 -62.9066 -62.8981 -62.8868 -62.8753 -62.8667
   -62.8603 -62.8333 -62.8252 -62.7958 -37.4648 -37.3706 -37.3067 -37.2537
   -37.2386 -37.2010 -37.1965 -37.1490 -37.1288 -37.1237 -37.1219 -37.1040
   -37.0995 -37.0939 -37.0879 -37.0789 -37.0739 -37.0601 -37.0561 -37.0408
   -37.0276 -37.0171 -37.0065 -36.9970 -36.9939 -36.9922 -36.9863 -36.9746
   -36.9622 -36.9495 -36.9298 -36.9076 -36.8978 -36.8511 -36.8234 -36.7971
   -21.3440 -15.9983 -15.2899 -15.2083 -15.0492 -14.9161 -14.8282 -14.6261
   -14.5658 -14.5405 -14.4831 -14.4298 -14.4155 -14.3695 -14.2849 -14.2219
   -14.2017 -14.1837 -14.1026 -13.9914 -13.9487 -13.8892 -13.8561 -13.5999
    -8.0505  -7.7367  -7.5994  -7.5409  -7.4248  -7.3637  -7.2570  -7.2475
    -7.1878  -6.9505  -6.9223  -6.8460  -6.8248  -6.7442  -6.6875  -6.5712
    -6.5241  -6.4858  -6.3643  -6.3498  -6.1375  -6.1229  -5.9582  -5.9220
    -5.9087  -5.8267  -5.7954  -5.7553  -5.7358  -5.7276  -5.6829  -5.6292
    -5.5349  -5.4258  -5.4176  -5.2884  -5.2523  -5.2166  -5.1568  -5.0625
    -5.0297  -5.0182  -4.8622  -4.8475  -4.7357  -4.5787  -4.4729  -4.4137
    -4.4073  -4.3616  -4.2053  -4.1533  -4.1003  -3.9636  -3.8759  -3.8406
    -3.8287  -3.7715  -3.7345  -3.7050  -3.6719  -3.6179  -3.5408  -3.5281
    -3.4778  -3.4524  -3.3154  -3.2067  -3.1577  -3.0844  -2.9259  -2.8648
    -2.8531  -2.7811  -2.7649  -2.7426  -2.7070  -2.6296  -2.5090  -2.4379
    -2.1157  -2.0213  -1.9762  -1.3411  -0.8630  -0.8515  -0.8046  -0.2492
    -0.1986  -0.1128  -0.1060   0.0578   0.1318   0.1463   0.1802   0.1976
     0.2298   0.2791   0.3529   0.3947   0.4698   0.4816   0.5592   0.5865
     0.6100   0.6795   0.7037   0.7225   0.7490   0.8162   0.8527   0.9217
     1.0404   1.1073   1.1386

     the Fermi energy is    -1.1126 ev

!    total energy              =   -2246.27087635 Ry
     estimated scf accuracy    <       0.00000003 Ry
     smearing contrib. (-TS)   =      -0.00070620 Ry
     internal energy E=F+TS    =   -2246.27017015 Ry

     The total energy is F=E-TS. E is the sum of the following terms:
     one-electron contribution =  -18487.59116236 Ry
     hartree contribution      =    9232.01454620 Ry
     xc contribution           =    -392.08992836 Ry
     ewald contribution        =    7411.26135817 Ry
     one-center paw contrib.   =      -9.86498380 Ry

     convergence has been achieved in   9 iterations

     negative rho (up, down):  1.836E-04 0.000E+00

     Forces acting on atoms (cartesian axes, Ry/au):

     atom    1 type  1   force =    -0.00717515   -0.00472700   -0.01026818
     atom    2 type  2   force =    -0.01255286   -0.01496270   -0.01201925
     atom    3 type  2   force =    -0.00697823    0.00162654   -0.01460616
     atom    4 type  1   force =    -0.00335452    0.00671640   -0.00680820
     atom    5 type  2   force =     0.00097125   -0.00589393   -0.00410480
     atom    6 type  2   force =    -0.00134297    0.00320394   -0.00205656
     atom    7 type  1   force =     0.00048506   -0.00553827    0.00037034
     atom    8 type  2   force =    -0.00519407   -0.00254070    0.00601919
     atom    9 type  2   force =     0.00905869    0.00447639    0.00220059
     atom   10 type  1   force =    -0.00339973   -0.00478187   -0.01333443
     atom   11 type  2   force =     0.00068461   -0.00405182   -0.00800200
     atom   12 type  2   force =    -0.00812677   -0.00307843   -0.00317464
     atom   13 type  1   force =     0.00391663    0.00210483   -0.00326104
     atom   14 type  2   force =     0.00350241    0.00049560    0.00410523
     atom   15 type  2   force =    -0.00458786    0.00158008   -0.00318691
     atom   16 type  1   force =     0.00216096    0.00291701    0.00253413
     atom   17 type  2   force =     0.00620925    0.00108038    0.00380301
     atom   18 type  2   force =     0.00600174   -0.00462328   -0.00122664
     atom   19 type  1   force =     0.00311199   -0.00516268    0.00101647
     atom   20 type  2   force =     0.00203144   -0.00224057   -0.00400041
     atom   21 type  1   force =    -0.00248463   -0.00071509    0.00003465
     atom   22 type  2   force =     0.00008343   -0.00357126   -0.00226458
     atom   23 type  2   force =     0.00149487   -0.00159604    0.00187177
     atom   24 type  1   force =    -0.00935468   -0.00955506    0.02884955
     atom   25 type  2   force =     0.01366878   -0.00040792   -0.01027739
     atom   26 type  2   force =    -0.00765711   -0.00175423   -0.00500590
     atom   27 type  1   force =     0.00132936   -0.00119137   -0.00032915
     atom   28 type  2   force =    -0.01326824    0.01817864    0.07606129
     atom   29 type  2   force =     0.00299225   -0.00689986    0.00216698
     atom   30 type  1   force =    -0.00056729   -0.00670119    0.00491890
     atom   31 type  2   force =     0.00603553   -0.00371535    0.00304024
     atom   32 type  2   force =    -0.00395575    0.00401490    0.00262993
     atom   33 type  1   force =     0.00356609   -0.00075509   -0.00115234
     atom   34 type  2   force =    -0.00221125   -0.02105753   -0.01365978
     atom   35 type  2   force =    -0.00236679    0.00371595    0.00387682
     atom   36 type  3   force =     0.02727355    0.06541059   -0.02476074
     The non-local contrib.  to forces
     atom    1 type  1   force =    -0.00473199    0.01855108   -0.01300445
     atom    2 type  2   force =    -0.03549533    0.01108843   -0.26661536
     atom    3 type  2   force =     0.00065285   -0.00838619    0.26377104
     atom    4 type  1   force =     0.01828722   -0.00410326    0.01026193
     atom    5 type  2   force =     0.00172574   -0.03511327   -0.25699731
     atom    6 type  2   force =    -0.00247363    0.01254186    0.25907326
     atom    7 type  1   force =    -0.01635233    0.00468212   -0.02812278
     atom    8 type  2   force =     0.00363897    0.00941372   -0.26078980
     atom    9 type  2   force =     0.00248427   -0.01246969    0.27421037
     atom   10 type  1   force =    -0.00546018    0.01136971    0.00354366
     atom   11 type  2   force =     0.01040519    0.00259556   -0.26495864
     atom   12 type  2   force =    -0.01761471   -0.01963859    0.25645301
     atom   13 type  1   force =     0.00461135    0.01931153   -0.00593942
     atom   14 type  2   force =     0.00978839   -0.00498121   -0.26526242
     atom   15 type  2   force =    -0.00706980   -0.00405964    0.26511481
     atom   16 type  1   force =    -0.00051809    0.03476947   -0.02948330
     atom   17 type  2   force =     0.00574119   -0.03178669   -0.25354432
     atom   18 type  2   force =     0.00145432    0.00716041    0.26233563
     atom   19 type  1   force =     0.01145576    0.00497249   -0.02265542
     atom   20 type  2   force =    -0.00166953   -0.02177614    0.26030490
     atom   21 type  1   force =     0.00217203    0.02760353    0.00627554
     atom   22 type  2   force =    -0.00630954    0.00197712   -0.26015894
     atom   23 type  2   force =     0.00958003   -0.01789024    0.26091704
     atom   24 type  1   force =    -0.00389004   -0.00842080   -0.04081024
     atom   25 type  2   force =     0.04430384   -0.01305702   -0.26655485
     atom   26 type  2   force =    -0.00833687   -0.01331036    0.27114390
     atom   27 type  1   force =    -0.00779318   -0.01203088    0.02017613
     atom   28 type  2   force =    -0.07025018   -0.58695425   -0.09348314
     atom   29 type  2   force =     0.00554138   -0.00246877    0.26492497
     atom   30 type  1   force =     0.00191080    0.03619624    0.00987885
     atom   31 type  2   force =    -0.00770199    0.01567174   -0.25948271
[...]
     atom   28 type  2   force =    -0.00109204   -0.45906710   -0.24198322
     atom   29 type  2   force =    -0.00043327    0.00411710    0.27431834
     atom   30 type  1   force =     0.00023743    0.02046049    0.01174209
     atom   31 type  2   force =    -0.03945571    0.00872669   -0.26397766
     atom   32 type  2   force =     0.01447071   -0.01066777    0.26858321
     atom   33 type  1   force =     0.00793705    0.00388718    0.00335206
     atom   34 type  2   force =    -0.00037675   -0.00746971   -0.27236132
     atom   35 type  2   force =    -0.00005317   -0.02433736    0.26485564
     atom   36 type  3   force =     0.01191464    1.57289689   -1.16410006
     The ionic contribution  to forces
     atom    1 type  1   force =    -0.69733405    1.07908773    1.66912767
     atom    2 type  2   force =    -1.87217203   -1.37783755   38.68491709
     atom    3 type  2   force =     0.21381640    0.61667788  -37.77227190
     atom    4 type  1   force =    -0.57512166   -0.82789076   -1.03340494
     atom    5 type  2   force =    -1.83389699    1.23374735   37.92691630
     atom    6 type  2   force =     0.60326919   -0.72745092  -38.58186776
     atom    7 type  1   force =    -2.95308114   -1.92299416   -2.15696548
     atom    8 type  2   force =    -1.89554815    1.23982652   37.86755614
     atom    9 type  2   force =     0.54849693   -0.40276623  -39.28013921
     atom   10 type  1   force =    -0.55253324   -0.96712358    0.14330040
     atom   11 type  2   force =    -0.76499249   -1.65513300   38.17272195
     atom   12 type  2   force =     0.27944018    0.68018908  -39.37718806
     atom   13 type  1   force =     0.71174789    1.10646966    1.77184176
     atom   14 type  2   force =     0.00571597   -0.29294873   38.32311678
     atom   15 type  2   force =     0.00031070    0.30434619  -37.95071868
     atom   16 type  1   force =     0.00014678    3.20413504   -0.79218785
     atom   17 type  2   force =     1.82800144    1.23064314   37.95769864
     atom   18 type  2   force =    -0.59711018   -0.72778050  -38.58805875
     atom   19 type  1   force =     2.96826489   -1.90336840   -2.13618486
     atom   20 type  2   force =     0.00103850   -0.44166579  -39.92869228
     atom   21 type  1   force =     0.00822524    0.22610177   -1.96047101
     atom   22 type  2   force =     0.76326315   -1.65794665   38.17210979
     atom   23 type  2   force =    -0.28119889    0.67853395  -39.36496181
     atom   24 type  1   force =    -0.00062665    0.72936667    3.41404893
     atom   25 type  2   force =     1.85827371   -1.36888100   38.71057437
     atom   26 type  2   force =    -0.21534566    0.62310765  -37.76582375
     atom   27 type  1   force =     0.56190423   -0.84732163   -0.99871868
     atom   28 type  2   force =     0.03506739    5.98469072   38.16496980
     atom   29 type  2   force =    -0.00191766   -0.66860000  -35.23511544
     atom   30 type  1   force =    -0.01110031   -0.17503768   -0.68933809
     atom   31 type  2   force =     1.89534596    1.23846018   37.87463923
     atom   32 type  2   force =    -0.55126551   -0.41083738  -39.28719993
     atom   33 type  1   force =     0.56285656   -0.97626741    0.16780600
     atom   34 type  2   force =    -0.00603890   -0.70868325   38.44908211
     atom   35 type  2   force =    -0.00453096    0.42074070  -38.38095091
     atom   36 type  3   force =    -0.03137065   -2.53558960   43.80983240
     The local contribution  to forces
     atom    1 type  1   force =     0.70242677   -1.09913412   -1.66223245
     atom    2 type  2   force =     1.89781194    1.38850122  -38.45349402
     atom    3 type  2   force =    -0.20416182   -0.59078596   37.52541703
     atom    4 type  1   force =     0.55373528    0.82353021    1.01785658
     atom    5 type  2   force =     1.82945070   -1.20380905  -37.69778068
     atom    6 type  2   force =    -0.59645275    0.72601831   38.33838160
     atom    7 type  1   force =     2.96943401    1.91922265    2.18038097
     atom    8 type  2   force =     1.85796292   -1.24840025  -37.62455902
     atom    9 type  2   force =    -0.53511183    0.41190076   39.03244333
     atom   10 type  1   force =     0.55980560    0.96404332   -0.14758541
     atom   11 type  2   force =     0.75555936    1.65468733  -37.92979082
     atom   12 type  2   force =    -0.26971711   -0.66633971   39.13915421
     atom   13 type  1   force =    -0.71534235   -1.12484700   -1.76577198
     atom   14 type  2   force =    -0.00556035    0.29842084  -38.07428107
     atom   15 type  2   force =    -0.00034945   -0.29556795   37.70893635
     atom   16 type  1   force =    -0.00003070   -3.22765331    0.82168552
     atom   17 type  2   force =    -1.82323528   -1.20048618  -37.72870195
     atom   18 type  2   force =     0.59031376    0.72630182   38.34492033
     atom   19 type  1   force =    -2.98449085    1.89985149    2.15962386
     atom   20 type  2   force =    -0.00108501    0.45483892   39.68729095
     atom   21 type  1   force =    -0.00866172   -0.25955199    1.95054855
     atom   22 type  2   force =    -0.75385158    1.65756185  -37.92921379
     atom   23 type  2   force =     0.27153757   -0.66460790   39.12678558
     atom   24 type  1   force =     0.00034870   -0.71897522   -3.36785959
     atom   25 type  2   force =    -1.88410384    1.37923736  -38.47906977
     atom   26 type  2   force =     0.20589608   -0.59722887   37.51891503
     atom   27 type  1   force =    -0.54076364    0.84307581    0.98325476
     atom   28 type  2   force =    -0.03379805   -5.55212738  -37.93690994
     atom   29 type  2   force =     0.00189911    0.66543642   34.98008045
     atom   30 type  1   force =     0.01033331    0.15486074    0.67761055
     atom   31 type  2   force =    -1.85783888   -1.24707623  -37.63144238
     atom   32 type  2   force =     0.53781054    0.41996129   39.03953619
     atom   33 type  1   force =    -0.57020321    0.97209336   -0.17152746
     atom   34 type  2   force =     0.00596090    0.71602356  -38.19817612
     atom   35 type  2   force =     0.00438803   -0.39841826   38.13629788
     atom   36 type  3   force =     0.02025228    0.97967700  -42.65855634
     The core correction contribution to forces
     atom    1 type  1   force =     0.00000000    0.00000000    0.00000000
     atom    2 type  2   force =     0.00089190    0.00064620    0.02069698
     atom    3 type  2   force =     0.00075531    0.00161214   -0.02100199
     atom    4 type  1   force =     0.00000000    0.00000000    0.00000000
     atom    5 type  2   force =    -0.00068002    0.00137985    0.02017669
     atom    6 type  2   force =     0.00081064   -0.00065804   -0.02074778
     atom    7 type  1   force =     0.00000000    0.00000000    0.00000000
     atom    8 type  2   force =    -0.00210710    0.00055139    0.02087324
     atom    9 type  2   force =     0.00108319    0.00045341   -0.02100625
     atom   10 type  1   force =     0.00000000    0.00000000    0.00000000
     atom   11 type  2   force =    -0.00046411   -0.00040785    0.02093038
     atom   12 type  2   force =     0.00078523    0.00119649   -0.02068462
     atom   13 type  1   force =     0.00000000    0.00000000    0.00000000
     atom   14 type  2   force =     0.00000308   -0.00024757    0.02087856
     atom   15 type  2   force =    -0.00002940    0.00067809   -0.02062300
     atom   16 type  1   force =     0.00000000    0.00000000    0.00000000
     atom   17 type  2   force =     0.00072319    0.00141092    0.02019333
     atom   18 type  2   force =    -0.00079034   -0.00068702   -0.02076218
     atom   19 type  1   force =     0.00000000    0.00000000    0.00000000
     atom   20 type  2   force =     0.00000324    0.00033806   -0.02109819
     atom   21 type  1   force =     0.00000000    0.00000000    0.00000000
     atom   22 type  2   force =     0.00044962   -0.00040532    0.02092804
     atom   23 type  2   force =    -0.00080142    0.00117936   -0.02068122
     atom   24 type  1   force =     0.00000000    0.00000000    0.00000000
     atom   25 type  2   force =    -0.00089803    0.00066294    0.02068473
     atom   26 type  2   force =    -0.00076582    0.00161994   -0.02098630
     atom   27 type  1   force =     0.00000000    0.00000000    0.00000000
     atom   28 type  2   force =     0.00007560    0.02570900    0.01576081
     atom   29 type  2   force =     0.00001974   -0.00103886   -0.02075036
     atom   30 type  1   force =     0.00000000    0.00000000    0.00000000
     atom   31 type  2   force =     0.00211208    0.00052384    0.02086760
     atom   32 type  2   force =    -0.00108547    0.00045384   -0.02100966
     atom   33 type  1   force =     0.00000000    0.00000000    0.00000000
     atom   34 type  2   force =     0.00001061    0.00043560    0.02103288
     atom   35 type  2   force =    -0.00000109    0.00140173   -0.02079731
     atom   36 type  3   force =    -0.00013159   -0.01695205    0.01278482
     The Hubbard contrib.    to forces
     atom    1 type  1   force =     0.00000000    0.00000000    0.00000000
     atom    2 type  2   force =     0.00000000    0.00000000    0.00000000
     atom    3 type  2   force =     0.00000000    0.00000000    0.00000000
     atom    4 type  1   force =     0.00000000    0.00000000    0.00000000
     atom    5 type  2   force =     0.00000000    0.00000000    0.00000000
     atom    6 type  2   force =     0.00000000    0.00000000    0.00000000
     atom    7 type  1   force =     0.00000000    0.00000000    0.00000000
     atom    8 type  2   force =     0.00000000    0.00000000    0.00000000
     atom    9 type  2   force =     0.00000000    0.00000000    0.00000000
     atom   10 type  1   force =     0.00000000    0.00000000    0.00000000
     atom   11 type  2   force =     0.00000000    0.00000000    0.00000000
     atom   12 type  2   force =     0.00000000    0.00000000    0.00000000
     atom   13 type  1   force =     0.00000000    0.00000000    0.00000000
     atom   14 type  2   force =     0.00000000    0.00000000    0.00000000
     atom   15 type  2   force =     0.00000000    0.00000000    0.00000000
     atom   16 type  1   force =     0.00000000    0.00000000    0.00000000
     atom   17 type  2   force =     0.00000000    0.00000000    0.00000000
     atom   18 type  2   force =     0.00000000    0.00000000    0.00000000
     atom   19 type  1   force =     0.00000000    0.00000000    0.00000000
     atom   20 type  2   force =     0.00000000    0.00000000    0.00000000
     atom   21 type  1   force =     0.00000000    0.00000000    0.00000000
     atom   22 type  2   force =     0.00000000    0.00000000    0.00000000
     atom   23 type  2   force =     0.00000000    0.00000000    0.00000000
     atom   24 type  1   force =     0.00000000    0.00000000    0.00000000
     atom   25 type  2   force =     0.00000000    0.00000000    0.00000000
     atom   26 type  2   force =     0.00000000    0.00000000    0.00000000
     atom   27 type  1   force =     0.00000000    0.00000000    0.00000000
     atom   28 type  2   force =     0.00000000    0.00000000    0.00000000
     atom   29 type  2   force =     0.00000000    0.00000000    0.00000000
     atom   30 type  1   force =     0.00000000    0.00000000    0.00000000
     atom   31 type  2   force =     0.00000000    0.00000000    0.00000000
     atom   32 type  2   force =     0.00000000    0.00000000    0.00000000
     atom   33 type  1   force =     0.00000000    0.00000000    0.00000000
     atom   34 type  2   force =     0.00000000    0.00000000    0.00000000
     atom   35 type  2   force =     0.00000000    0.00000000    0.00000000
     atom   36 type  3   force =     0.00000000    0.00000000    0.00000000
     The SCF correction term to forces
     atom    1 type  1   force =    -0.00000640    0.00001319    0.00000076
     atom    2 type  2   force =    -0.00000940   -0.00000341    0.00001370
     atom    3 type  2   force =    -0.00000467    0.00000733   -0.00000335
     atom    4 type  1   force =     0.00001139   -0.00000009    0.00000760
     atom    5 type  2   force =     0.00000708   -0.00000361   -0.00000036
     atom    6 type  2   force =    -0.00000981   -0.00000403   -0.00000465
     atom    7 type  1   force =     0.00001479   -0.00001330    0.00001697
     atom    8 type  2   force =     0.00001073   -0.00000491    0.00000033
     atom    9 type  2   force =     0.00000586   -0.00001162    0.00000771
     atom   10 type  1   force =    -0.00000622    0.00000150    0.00002675
     atom   11 type  2   force =     0.00000886    0.00000241    0.00001388
     atom   12 type  2   force =     0.00001203    0.00000264    0.00000462
     atom   13 type  1   force =    -0.00000215    0.00001529   -0.00000604
     atom   14 type  2   force =    -0.00000090    0.00000210   -0.00000135
     atom   15 type  2   force =    -0.00000155    0.00002059    0.00000006
     atom   16 type  1   force =    -0.00000396   -0.00002475   -0.00002434
     atom   17 type  2   force =    -0.00000285   -0.00000431   -0.00000908
     atom   18 type  2   force =     0.00000659   -0.00000470   -0.00000176
     atom   19 type  1   force =    -0.00001572   -0.00002491    0.00001199
     atom   20 type  2   force =    -0.00000313   -0.00002193   -0.00000800
     atom   21 type  1   force =     0.00000001    0.00003432    0.00002139
     atom   22 type  2   force =    -0.00000626    0.00000295    0.00001624
     atom   23 type  2   force =    -0.00001034    0.00000354    0.00000017
     atom   24 type  1   force =     0.00001320    0.00001434    0.00001032
     atom   25 type  2   force =     0.00000903    0.00000102    0.00000713
     atom   26 type  2   force =     0.00000809    0.00001410   -0.00000096
     atom   27 type  1   force =    -0.00000666    0.00000976   -0.00000225
     atom   28 type  2   force =    -0.00000633   -0.00000969   -0.00000196
     atom   29 type  2   force =     0.00000135    0.00001222    0.00000648
     atom   30 type  1   force =    -0.00000448   -0.00002863    0.00002954
     atom   31 type  2   force =    -0.00000848   -0.00000584   -0.00000423
     atom   32 type  2   force =    -0.00000270   -0.00001753    0.00000951
     atom   33 type  1   force =    -0.00000054   -0.00000573    0.00001848
     atom   34 type  2   force =    -0.00000129   -0.00000046    0.00000279
     atom   35 type  2   force =    -0.00000027    0.00000353    0.00000640
     atom   36 type  3   force =    -0.00002100    0.00001838    0.00001124

     Total force =     0.006233     Total SCF correction =     0.000118
     Energy error            =      9.4E-05 Ry
     Gradient error          =      1.8E-03 Ry/Bohr

     bfgs converged in  18 scf cycles and  17 bfgs steps
     (criteria: energy <  1.0E-04 Ry, force <  1.0E-02 Ry/Bohr)

     End of BFGS Geometry Optimization

     Final energy             =   -2246.3676515558 Ry

     File ./MoS2-V-O.bfgs deleted, as requested
Begin final coordinates

ATOMIC_POSITIONS (angstrom)
Mo            6.5641890834        1.7415875617        2.7939169929
S             8.0479129257        0.6982959319        4.4020916956
S             8.1684153359        0.8319751092        1.2297858115
Mo            8.0744767119        4.5584912575        2.7567994935
S             6.5085388956        3.6648746802        4.3259763329
S             6.5736424889        3.5372053773        1.1249428803
Mo            6.4934273814        7.1875841679        2.6022001539
S             8.0004662468        6.3800511024        4.2958101032
S             8.1401677785        6.3070154305        1.0767171709
Mo            8.1109109265        9.8835000323        2.7550179490
S             6.4822254940        8.9146644782        4.2931690636
S             6.5763409345        9.0332232938        1.0727600357
Mo            3.4089079087        1.7412018168        2.7957470844
S             4.9871907838        0.7784533117        4.3500212531
S             4.9855333880        0.8632808918        1.1859947133
Mo            4.9884941639        4.5064181316        2.6384982925
S             3.4700671006        3.6657231602        4.3281976553
S             3.4042934936        3.5354624752        1.1241026999
Mo            3.4841500277        7.1872536406        2.6024627943
S             4.9890692779        6.2677669237        0.9892248748
Mo            4.9882296471        9.8973841788        2.6946043002
S             3.4936337604        8.9159305695        4.2934789226
S             3.3995725380        9.0328557097        1.0735754911
Mo            0.2577176453        1.6166927598        2.9355790763
S             1.9252363720        0.7028677845        4.4029439225
S             1.8044290055        0.8332236778        1.2311657934
Mo            1.9037813535        4.5571016552        2.7571324679
S             0.2591502288        4.1858182411        4.5884956769
S             0.2609021986        3.4941730921        1.3624180497
Mo            0.2619758787        7.1884542154        2.7187048240
S             1.9787173838        6.3777586825        4.2955753269
S             1.8393260876        6.3061500664        1.0764834415
Mo            1.8658114320        9.8863262061        2.7554028250
S             0.2619632439        8.9801893650        4.3464157428
S             0.2613672334        9.0291258406        1.1589251093
O             9.7088726561        2.6215100359        4.8564095556
End final coordinates



     Writing all to output data dir ./MoS2-V-O.save/
 
     init_run     :      6.59s CPU      7.39s WALL (       1 calls)
     electrons    :   1939.27s CPU   2187.43s WALL (      18 calls)
     update_pot   :     59.21s CPU     63.89s WALL (      17 calls)
     forces       :     60.71s CPU     71.14s WALL (      18 calls)

     Called by init_run:
     wfcinit      :      1.13s CPU      1.21s WALL (       1 calls)
     potinit      :      2.97s CPU      3.34s WALL (       1 calls)
     hinit0       :      0.59s CPU      0.64s WALL (       1 calls)

     Called by electrons:
     c_bands      :    295.74s CPU    305.54s WALL (     162 calls)
     sum_band     :    118.63s CPU    160.02s WALL (     162 calls)
     v_of_rho     :    229.25s CPU    275.92s WALL (     175 calls)
     newd         :     72.68s CPU    113.50s WALL (     175 calls)
     PAW_pot      :      7.52s CPU      7.55s WALL (     192 calls)
     mix_rho      :   1242.39s CPU   1356.36s WALL (     162 calls)

     Called by c_bands:
     init_us_2    :      3.90s CPU      4.34s WALL (     342 calls)
     init_us_2:cp :      3.89s CPU      4.34s WALL (     342 calls)
     regterg      :    283.45s CPU    292.82s WALL (     162 calls)

     Called by *egterg:
     rdiaghg      :     15.98s CPU     16.20s WALL (     913 calls)
     h_psi        :    167.47s CPU    169.23s WALL (     936 calls)
     s_psi        :     15.33s CPU     15.41s WALL (     936 calls)
     g_psi        :      1.56s CPU      1.58s WALL (     773 calls)

     Called by h_psi:
     h_psi:calbec :     18.79s CPU     18.98s WALL (     936 calls)
     vloc_psi     :    130.58s CPU    131.97s WALL (     936 calls)
     add_vuspsi   :     14.80s CPU     14.96s WALL (     936 calls)

     General routines
     calbec       :     26.88s CPU     27.12s WALL (    1187 calls)
     fft          :    172.26s CPU    191.12s WALL (   11723 calls)
     ffts         :    526.72s CPU    635.59s WALL (  259182 calls)
     fftw         :     89.02s CPU     89.85s WALL (  100912 calls)
     interpolate  :      2.71s CPU      3.01s WALL (     175 calls)
 
     Parallel routines
 
     PWSCF        :  34m35.52s CPU  39m 4.96s WALL

 
   This run was terminated on:  15:11:39   1Nov2023            

=------------------------------------------------------------------------------=
   JOB DONE.
=------------------------------------------------------------------------------=
