
     Program PWSCF v.7.2 starts on  1Nov2023 at 17:51:52 

     This program is part of the open-source Quantum ESPRESSO suite
     for quantum simulation of materials; please cite
         "P. Giannozzi et al., J. Phys.:Condens. Matter 21 395502 (2009);
         "P. Giannozzi et al., J. Phys.:Condens. Matter 29 465901 (2017);
         "P. Giannozzi et al., J. Chem. Phys. 152 154105 (2020);
          URL http://www.quantum-espresso.org", 
     in publications or presentations arising from this work. More details at
     http://www.quantum-espresso.org/quote

     Parallel version (MPI & OpenMP), running on      48 processor cores
     Number of MPI processes:                48
     Threads/MPI process:                     1

     MPI processes distributed on     1 nodes
     152426 MiB available memory on the printing compute node when the environment starts
 
     Waiting for input...
     Reading input from standard input
Warning: card &CELL ignored
Warning: card CELL_DYNAMICS = 'BFGS', ignored
Warning: card CELL_DOFREE = '2DXY' ignored
Warning: card / ignored

     Current dimensions of program PWSCF are:
     Max number of different atomic species (ntypx) = 10
     Max number of k-points (npk) =  40000
     Max angular momentum in pseudopotentials (lmaxx) =  4
     file O.pbe-n-kjpaw_psl.0.1.UPF: wavefunction(s)  2P renormalized

     IMPORTANT: XC functional enforced from input :
     Exchange-correlation= RVV10
                           (   1   4  13   4  26   0   0)
     Any further DFT definition will be discarded
     Please, verify this is what you really want


     gamma-point specific algorithms are used
     signal trapping enabled: kill the code with -SIGUSR1 to stop cleanly the simulation 
 
     R & G space division:  proc/nbgrp/npool/nimage =      48
     Subspace diagonalization in iterative solution of the eigenvalue problem:
     one sub-group per band group will be used
     scalapack distributed-memory algorithm (size of sub-group:  2*  2 procs)

 
     Parallelization info
     --------------------
     sticks:   dense  smooth     PW     G-vecs:    dense   smooth      PW
     Min         396     194     47               101632    35090    4376
     Max         398     196     50               101674    35128    4410
     Sum       19091    9389   2349              4879585  1685513  210763
 
     Using Slab Decomposition
 


     bravais-lattice index     =            0
     lattice parameter (alat)  =      17.8707  a.u.
     unit-cell volume          =   17436.2743 (a.u.)^3
     number of atoms/cell      =           36
     number of atomic types    =            3
     number of electrons       =       312.00
     number of Kohn-Sham states=          187
     kinetic-energy cutoff     =      80.0000  Ry
     charge density cutoff     =     650.0000  Ry
     scf convergence threshold =      1.0E-06
     mixing beta               =       0.7000
     number of iterations used =            8  local-TF  mixing
     energy convergence thresh.=      1.0E-04
     force convergence thresh. =      1.0E-02
     Exchange-correlation= RVV10
                           (   1   4  13   4  26   0   0)
     nstep                     =          200


     celldm(1)=  17.870686  celldm(2)=   0.000000  celldm(3)=   0.000000
     celldm(4)=   0.000000  celldm(5)=   0.000000  celldm(6)=   0.000000

     crystal axes: (cart. coord. in units of alat)
               a(1) = (   1.000000   0.000000   0.000000 )  
               a(2) = (   0.000000   1.155671   0.000000 )  
               a(3) = (   0.000000   0.000000   2.643601 )  

     reciprocal axes: (cart. coord. in units 2 pi/alat)
               b(1) = (  1.000000  0.000000  0.000000 )  
               b(2) = (  0.000000  0.865298  0.000000 )  
               b(3) = (  0.000000  0.000000  0.378272 )  


     PseudoPot. # 1 for Mo read from file:
     ../pseudo/Mo_ONCV_PBE-1.0.oncvpsp.upf
     MD5 check sum: 1b5d28e075c9ccadda658a603575cd1f
     Pseudo is Norm-conserving, Zval = 14.0
     Generated using ONCVPSP code by D. R. Hamann
     Using radial grid of 1526 points,  6 beta functions with: 
                l(1) =   0
                l(2) =   0
                l(3) =   1
                l(4) =   1
                l(5) =   2
                l(6) =   2

     PseudoPot. # 2 for S  read from file:
     ../pseudo/s_pbe_v1.4.uspp.F.UPF
     MD5 check sum: 88d86576ff6df21479756cfb9bdac1df
     Pseudo is Ultrasoft + core correction, Zval =  6.0
     Generated by new atomic code, or converted to UPF format
     Using radial grid of  907 points,  6 beta functions with: 
                l(1) =   0
                l(2) =   0
                l(3) =   1
                l(4) =   1
                l(5) =   2
                l(6) =   2
     Q(r) pseudized with  8 coefficients,  rinner =    1.300   1.300   1.300
                                                       1.300   1.300

     PseudoPot. # 3 for O  read from file:
     ../pseudo/O.pbe-n-kjpaw_psl.0.1.UPF
     MD5 check sum: 0234752ac141de4415c5fc33072bef88
     Pseudo is Projector augmented-wave + core cor, Zval =  6.0
     Generated using "atomic" code by A. Dal Corso  v.5.0.99 svn rev. 10869
     Shape of augmentation charge: BESSEL
     Using radial grid of 1095 points,  4 beta functions with: 
                l(1) =   0
                l(2) =   0
                l(3) =   1
                l(4) =   1
     Q(r) pseudized with 0 coefficients 


     atomic species   valence    mass     pseudopotential
        Mo            14.00    95.94000     Mo( 1.00)
        S              6.00    32.06500     S ( 1.00)
        O              6.00    15.99940     O ( 1.00)

     No symmetry found



   Cartesian axes

     site n.     atom                  positions (alat units)
         1           Mo  tau(   1) = (   0.6952221   0.1890506   0.2985846  )
         2           S   tau(   2) = (   0.8646417   0.0856217   0.4689279  )
         3           S   tau(   3) = (   0.8663890   0.0857843   0.1351291  )
         4           Mo  tau(   4) = (   0.8560186   0.4753274   0.2873942  )
         5           S   tau(   5) = (   0.6873294   0.3936244   0.4596353  )
         6           S   tau(   6) = (   0.6929804   0.3713468   0.1185692  )
         7           Mo  tau(   7) = (   0.6862796   0.7633098   0.2825370  )
         8           S   tau(   8) = (   0.8545980   0.6708292   0.4486168  )
         9           S   tau(   9) = (   0.8545123   0.6666874   0.1146125  )
        10           Mo  tau(  10) = (   0.8629403   1.0471007   0.3006803  )
        11           S   tau(  11) = (   0.6868280   0.9456650   0.4634891  )
        12           S   tau(  12) = (   0.6998113   0.9568511   0.1205389  )
        13           Mo  tau(  13) = (   0.3618216   0.1847309   0.2935964  )
        14           S   tau(  14) = (   0.5260962   0.0863870   0.4600448  )
        15           S   tau(  15) = (   0.5348379   0.0894875   0.1297123  )
        16           Mo  tau(  16) = (   0.5265817   0.4772436   0.2784130  )
        17           S   tau(  17) = (   0.3624753   0.3882513   0.4525556  )
        18           S   tau(  18) = (   0.3635411   0.3752055   0.1119148  )
        19           Mo  tau(  19) = (   0.3652268   0.7630864   0.2781795  )
        20           S   tau(  20) = (   0.5269494   0.6690381   0.1096838  )
        21           Mo  tau(  21) = (   0.5300192   1.0470394   0.2900995  )
        22           S   tau(  22) = (   0.3670346   0.9457522   0.4574073  )
        23           S   tau(  23) = (   0.3604225   0.9585725   0.1159032  )
        24           Mo  tau(  24) = (   0.0313099   0.1847895   0.3013130  )
        25           S   tau(  25) = (   0.1956761   0.0838230   0.4650863  )
        26           S   tau(  26) = (   0.1967693   0.0903508   0.1278874  )
        27           Mo  tau(  27) = (   0.1967578   0.4753919   0.2813011  )
        28           S   tau(  28) = (   0.0287851   0.3864324   0.4586755  )
        29           S   tau(  29) = (   0.0244514   0.3729871   0.1239344  )
        30           Mo  tau(  30) = (   0.0286728   0.7631204   0.2856894  )
        31           S   tau(  31) = (   0.2011512   0.6675435   0.4465001  )
        32           S   tau(  32) = (   0.1969214   0.6672839   0.1104564  )
        33           Mo  tau(  33) = (   0.1950294   1.0511147   0.2932237  )
        34           S   tau(  34) = (   0.0312912   0.9612169   0.4667423  )
        35           S   tau(  35) = (   0.0292670   0.9563028   0.1216485  )
        36           O   tau(  36) = (   0.2222222   0.6420393   0.5792558  )

     number of k points=     1  Gaussian smearing, width (Ry)=  0.0100
                       cart. coord. in units 2pi/alat
        k(    1) = (   0.0000000   0.0000000   0.0000000), wk =   2.0000000

     Dense  grid:  2439793 G-vectors     FFT dimensions: ( 150, 180, 384)

     Smooth grid:   842757 G-vectors     FFT dimensions: ( 108, 120, 270)

     Estimated max dynamical RAM per process >     269.22 MB

     Estimated total dynamical RAM >      12.62 GB

     Initial potential from superposition of free atoms

     starting charge     311.9873, renormalised to     312.0000

     negative rho (up, down):  2.742E-04 0.000E+00


---------------------------------------------------------------------------------
Carrying out rVV10 run using the following parameters:
Nqs =      20    Nr_points =    1024   r_max =   100.000
b_value =  6.30000    beta =  0.00901
     q_mesh =  0.00010000  0.00030000  0.00058939  0.00100810
               0.00161396  0.00249058  0.00375900  0.00559430
               0.00824984  0.01209221  0.01765183  0.02569619
               0.03733578  0.05417739  0.07854596  0.11380545
               0.16482331  0.23864234  0.34545298  0.50000000

Gradients computed in Reciprocal space

---------------------------------------------------------------------------------


     Starting wfcs are  216 randomized atomic wfcs
     Checking if some PAW data can be deallocated... 

     total cpu time spent up to now is        5.1 secs

     Self-consistent Calculation

     iteration #  1     ecut=    80.00 Ry     beta= 0.70
     Davidson diagonalization with overlap
     ethr =  1.00E-02,  avg # of iterations =  2.0

     Threshold (ethr) on eigenvalues was too large:
     Diagonalizing with lowered threshold

     Davidson diagonalization with overlap
     ethr =  4.36E-04,  avg # of iterations =  4.0

     negative rho (up, down):  3.923E-08 0.000E+00

     total cpu time spent up to now is       23.8 secs

     total energy              =   -2246.29379161 Ry
     estimated scf accuracy    <       1.60939997 Ry

     iteration #  2     ecut=    80.00 Ry     beta= 0.70
     Davidson diagonalization with overlap
     ethr =  5.16E-04,  avg # of iterations =  3.0

     total cpu time spent up to now is       28.5 secs

     total energy              =   -2246.27628531 Ry
     estimated scf accuracy    <       0.54399119 Ry

     iteration #  3     ecut=    80.00 Ry     beta= 0.70
     Davidson diagonalization with overlap
     ethr =  1.74E-04,  avg # of iterations =  2.0

     total cpu time spent up to now is       32.4 secs

     total energy              =   -2246.29725860 Ry
     estimated scf accuracy    <       0.09936644 Ry

     iteration #  4     ecut=    80.00 Ry     beta= 0.70
     Davidson diagonalization with overlap
     ethr =  3.18E-05,  avg # of iterations = 15.0

     total cpu time spent up to now is       37.0 secs

     total energy              =   -2246.31152091 Ry
     estimated scf accuracy    <       0.02127548 Ry

     iteration #  5     ecut=    80.00 Ry     beta= 0.70
     Davidson diagonalization with overlap
     ethr =  6.82E-06,  avg # of iterations =  2.0

     total cpu time spent up to now is       40.5 secs

     total energy              =   -2246.31107391 Ry
     estimated scf accuracy    <       0.01345186 Ry

     iteration #  6     ecut=    80.00 Ry     beta= 0.70
     Davidson diagonalization with overlap
     ethr =  4.31E-06,  avg # of iterations =  1.0

     total cpu time spent up to now is       43.9 secs

     total energy              =   -2246.31004911 Ry
     estimated scf accuracy    <       0.00879180 Ry

     iteration #  7     ecut=    80.00 Ry     beta= 0.70
     Davidson diagonalization with overlap
     ethr =  2.82E-06,  avg # of iterations =  2.0

     negative rho (up, down):  5.209E-05 0.000E+00

     total cpu time spent up to now is       50.4 secs

     total energy              =   -2246.30919870 Ry
     estimated scf accuracy    <       0.00494521 Ry

     iteration #  8     ecut=    80.00 Ry     beta= 0.70
     Davidson diagonalization with overlap
     ethr =  1.59E-06,  avg # of iterations =  2.0

     negative rho (up, down):  1.646E-02 0.000E+00

     total cpu time spent up to now is       56.2 secs

     total energy              =   -2246.30870958 Ry
     estimated scf accuracy    <       0.00282726 Ry

     iteration #  9     ecut=    80.00 Ry     beta= 0.70
     Davidson diagonalization with overlap
     ethr =  9.06E-07,  avg # of iterations =  2.0

     negative rho (up, down):  2.708E-02 0.000E+00

     total cpu time spent up to now is       62.1 secs

     total energy              =   -2246.30866905 Ry
     estimated scf accuracy    <       0.00142019 Ry

     iteration # 10     ecut=    80.00 Ry     beta= 0.70
     Davidson diagonalization with overlap
     ethr =  4.55E-07,  avg # of iterations =  2.0

     negative rho (up, down):  1.921E-02 0.000E+00

     total cpu time spent up to now is       68.9 secs

     total energy              =   -2246.30867741 Ry
     estimated scf accuracy    <       0.00042357 Ry

     iteration # 11     ecut=    80.00 Ry     beta= 0.70
     Davidson diagonalization with overlap
     ethr =  1.36E-07,  avg # of iterations =  4.0

     negative rho (up, down):  8.786E-03 0.000E+00

     total cpu time spent up to now is       75.7 secs

     total energy              =   -2246.30869050 Ry
     estimated scf accuracy    <       0.00006085 Ry

     iteration # 12     ecut=    80.00 Ry     beta= 0.70
     Davidson diagonalization with overlap
     ethr =  1.95E-08,  avg # of iterations =  7.0

     negative rho (up, down):  2.660E-03 0.000E+00

     total cpu time spent up to now is       85.0 secs

     total energy              =   -2246.30873564 Ry
     estimated scf accuracy    <       0.00001739 Ry

     iteration # 13     ecut=    80.00 Ry     beta= 0.70
     Davidson diagonalization with overlap
     ethr =  5.57E-09,  avg # of iterations =  2.0

     negative rho (up, down):  4.638E-04 0.000E+00

     total cpu time spent up to now is       93.6 secs

     total energy              =   -2246.30873767 Ry
     estimated scf accuracy    <       0.00000492 Ry

     iteration # 14     ecut=    80.00 Ry     beta= 0.70
     Davidson diagonalization with overlap
     ethr =  1.58E-09,  avg # of iterations =  2.0

     negative rho (up, down):  2.206E-04 0.000E+00

     total cpu time spent up to now is       96.9 secs

     End of self-consistent calculation

          k = 0.0000 0.0000 0.0000 (105382 PWs)   bands (ev):

   -62.9525 -62.9415 -62.9298 -62.9197 -62.9068 -62.9010 -62.8942 -62.8853
   -62.8697 -62.8398 -62.7784 -62.7415 -37.3043 -37.2430 -37.2101 -37.1949
   -37.1912 -37.1827 -37.1539 -37.1484 -37.1338 -37.1270 -37.1211 -37.1096
   -37.1060 -37.0900 -37.0813 -37.0798 -37.0776 -37.0702 -37.0628 -37.0614
   -37.0343 -37.0265 -37.0150 -37.0027 -36.9912 -36.9880 -36.9612 -36.9469
   -36.9352 -36.9306 -36.8989 -36.8894 -36.8835 -36.8597 -36.8361 -36.7498
   -25.8008 -16.0079 -15.2493 -15.1578 -14.9739 -14.9660 -14.8517 -14.5696
   -14.5246 -14.4775 -14.4496 -14.4174 -14.3814 -14.3482 -14.3201 -14.2032
   -14.1752 -14.1616 -14.1064 -14.0238 -13.9217 -13.9012 -13.8595 -13.3839
    -8.9930  -8.8562  -8.1494  -7.6111  -7.4659  -7.3286  -7.2835  -7.2550
    -7.2426  -7.1241  -7.1026  -6.8872  -6.8185  -6.7626  -6.6593  -6.6465
    -6.4925  -6.4781  -6.3969  -6.3495  -6.2398  -6.1898  -5.9757  -5.9055
    -5.8626  -5.8546  -5.8231  -5.8073  -5.7517  -5.7137  -5.6909  -5.6726
    -5.6142  -5.5718  -5.5441  -5.3655  -5.2820  -5.1940  -5.1114  -5.0761
    -5.0528  -4.9735  -4.9609  -4.8832  -4.8092  -4.7141  -4.4554  -4.4057
    -4.3610  -4.3223  -4.2672  -4.2228  -4.1552  -4.0550  -4.0016  -3.8461
    -3.8452  -3.7649  -3.7499  -3.6585  -3.6164  -3.5631  -3.5418  -3.5260
    -3.4960  -3.4568  -3.3895  -3.2850  -3.2141  -3.1213  -2.9492  -2.8991
    -2.8680  -2.8433  -2.7881  -2.7394  -2.7193  -2.6747  -2.6178  -2.5659
    -2.2976  -2.0911  -2.0306  -1.9670  -0.8988  -0.8282  -0.2505  -0.2337
    -0.1564  -0.1314  -0.0355   0.0707   0.1299   0.1627   0.1914   0.2069
     0.2596   0.3409   0.3870   0.4536   0.4893   0.5277   0.5429   0.6077
     0.6572   0.6945   0.7166   0.7472   0.7667   0.8115   0.8838   0.8972
     0.9620   1.0798   1.1770

     the Fermi energy is    -1.4328 ev

!    total energy              =   -2246.30873938 Ry
     estimated scf accuracy    <       0.00000089 Ry
     smearing contrib. (-TS)   =      -0.00000000 Ry
     internal energy E=F+TS    =   -2246.30873938 Ry

     The total energy is F=E-TS. E is the sum of the following terms:
     one-electron contribution =  -18432.67760863 Ry
     hartree contribution      =    9204.09111779 Ry
     xc contribution           =    -392.39709859 Ry
     ewald contribution        =    7384.51590413 Ry
     one-center paw contrib.   =      -9.84105408 Ry

     convergence has been achieved in  14 iterations

     negative rho (up, down):  2.206E-04 0.000E+00

     Forces acting on atoms (cartesian axes, Ry/au):

     atom    1 type  1   force =     0.01323660   -0.02542673    0.00629050
     atom    2 type  2   force =    -0.01519008    0.01663138   -0.00059605
     atom    3 type  2   force =    -0.01149758    0.00921384   -0.00185827
     atom    4 type  1   force =     0.00355386    0.00402073   -0.00236334
     atom    5 type  2   force =    -0.00152691   -0.00675199   -0.00702408
     atom    6 type  2   force =     0.00158156    0.01054130   -0.00133546
     atom    7 type  1   force =     0.00919233   -0.01772178   -0.00525789
     atom    8 type  2   force =    -0.00393156   -0.00222330    0.01395922
     atom    9 type  2   force =     0.01132168    0.00368029    0.01123890
     atom   10 type  1   force =    -0.01027198    0.00531479   -0.02667677
     atom   11 type  2   force =     0.00387693   -0.00029273   -0.00722355
     atom   12 type  2   force =    -0.00278289    0.00175882    0.00710259
     atom   13 type  1   force =     0.00542880    0.00646111   -0.00692884
     atom   14 type  2   force =     0.00839203   -0.00080442    0.01277893
     atom   15 type  2   force =    -0.01196987    0.00320704   -0.00792443
     atom   16 type  1   force =    -0.00152937    0.01492103    0.00577247
     atom   17 type  2   force =     0.00448064    0.00019893    0.00239847
     atom   18 type  2   force =     0.00126537   -0.00772529    0.01228391
     atom   19 type  1   force =     0.00869617   -0.00579285   -0.00767638
     atom   20 type  2   force =     0.00306034   -0.00756354    0.00000592
     atom   21 type  1   force =    -0.00495023    0.00430958   -0.00285080
     atom   22 type  2   force =    -0.00515921   -0.00406766    0.00156736
     atom   23 type  2   force =    -0.00201067    0.00528034    0.00946051
     atom   24 type  1   force =    -0.01058894   -0.00019510   -0.02162749
     atom   25 type  2   force =     0.01634311    0.01789439    0.00759325
     atom   26 type  2   force =    -0.01147349   -0.00074144   -0.00355739
     atom   27 type  1   force =    -0.00020423   -0.00751230   -0.00669945
     atom   28 type  2   force =     0.00229302   -0.00008313   -0.00222568
     atom   29 type  2   force =    -0.00142460   -0.00157881   -0.00343210
     atom   30 type  1   force =    -0.01122152    0.00758051    0.02187734
     atom   31 type  2   force =    -0.07875335    0.10882235   -0.71134075
     atom   32 type  2   force =    -0.00877556    0.00612474    0.01258493
     atom   33 type  1   force =     0.01633644   -0.00533184   -0.00808891
     atom   34 type  2   force =     0.00383804   -0.04006368   -0.00922370
     atom   35 type  2   force =    -0.00535740    0.01091725    0.01301378
     atom   36 type  3   force =     0.08572252   -0.10300183    0.70598324
     The non-local contrib.  to forces
     atom    1 type  1   force =    -0.00070129    0.03500661   -0.01234078
     atom    2 type  2   force =    -0.01011511   -0.00054034   -0.27452718
     atom    3 type  2   force =    -0.01461698   -0.00308952    0.27061938
     atom    4 type  1   force =     0.00298777    0.00451307    0.00393893
     atom    5 type  2   force =     0.00449543   -0.03316056   -0.25569399
     atom    6 type  2   force =    -0.00205264    0.01323461    0.26381503
     atom    7 type  1   force =    -0.02348336    0.00723157   -0.02622474
     atom    8 type  2   force =     0.00646346   -0.00027823   -0.25675827
     atom    9 type  2   force =     0.00422080   -0.00950199    0.27390110
     atom   10 type  1   force =     0.00035662    0.00553357   -0.00017270
     atom   11 type  2   force =     0.01431525    0.00326821   -0.26348080
     atom   12 type  2   force =    -0.01364292   -0.01548140    0.26350352
     atom   13 type  1   force =     0.00239402    0.02174548   -0.00640995
     atom   14 type  2   force =     0.00994385   -0.01204364   -0.26470220
     atom   15 type  2   force =    -0.01308723   -0.00580836    0.26174474
     atom   16 type  1   force =    -0.00250466    0.02230416   -0.03422002
     atom   17 type  2   force =     0.00674974   -0.03134065   -0.25372782
     atom   18 type  2   force =     0.00079736   -0.00543212    0.27470881
     atom   19 type  1   force =    -0.01227678   -0.01712246    0.01085347
     atom   20 type  2   force =     0.00254411   -0.02256492    0.26402704
     atom   21 type  1   force =     0.00435059    0.02535789    0.00714933
     atom   22 type  2   force =    -0.00797498   -0.00901796   -0.25846618
     atom   23 type  2   force =     0.00475785   -0.01224911    0.26775131
     atom   24 type  1   force =     0.00309742    0.01261337   -0.01075738
     atom   25 type  2   force =     0.01050210    0.00514960   -0.26163250
     atom   26 type  2   force =    -0.00263288   -0.01261012    0.26435341
     atom   27 type  1   force =    -0.00210594    0.04066283    0.03776547
     atom   28 type  2   force =     0.00088195   -0.01776857   -0.27531805
     atom   29 type  2   force =     0.00226947   -0.00083849    0.26264642
     atom   30 type  1   force =     0.01698422   -0.00838954    0.02144257
     atom   31 type  2   force =    -0.04993466    0.03077726   -0.23300932
     atom   32 type  2   force =    -0.00522684   -0.00823752    0.28241212
     atom   33 type  1   force =    -0.00423721    0.01056124    0.00478103
     atom   34 type  2   force =     0.00128496   -0.04620615   -0.27307322
     atom   35 type  2   force =    -0.00259445   -0.00813366    0.26984300
     atom   36 type  3   force =    -0.45130193    0.52178520   -2.33394709
     The ionic contribution  to forces
     atom    1 type  1   force =     0.44542464   -0.12001888    4.73518038
     atom    2 type  2   force =    -0.79737157    0.35747946   39.09026068
     atom    3 type  2   force =    -0.21538339   -0.00255138  -36.56373260
     atom    4 type  1   force =    -0.68671501   -0.06049889   -1.03881777
     atom    5 type  2   force =    -0.84276402    1.10902418   38.44256811
     atom    6 type  2   force =     0.36814820   -0.63569706  -38.59646700
     atom    7 type  1   force =    -2.38231780   -2.37833690    1.02994975
     atom    8 type  2   force =    -1.89329426    0.13781321   36.78636322
     atom    9 type  2   force =     0.19729158   -0.01265003  -38.73194804
     atom   10 type  1   force =    -1.43018953    0.23970383    4.57160885
     atom   11 type  2   force =    -0.46449987   -1.22808398   38.87459990
     atom   12 type  2   force =     0.45791512    0.82637062  -38.39890497
     atom   13 type  1   force =     0.77227886    0.31150839    1.56183706
     atom   14 type  2   force =     0.22336305   -0.06317034   38.30124635
     atom   15 type  2   force =     0.21758274   -0.08626894  -37.29414767
     atom   16 type  1   force =     1.01817173    3.16797918   -1.54689023
     atom   17 type  2   force =     1.68997486   -0.15159659   36.97168742
     atom   18 type  2   force =    -0.05202600   -0.88184076  -39.33772920
     atom   19 type  1   force =     4.12781136   -1.14597595   -3.16965354
     atom   20 type  2   force =     0.41592176   -0.16844517  -39.27155832
     atom   21 type  1   force =     0.43673062    0.66641729   -0.01855581
     atom   22 type  2   force =     1.05796919   -0.41644243   37.76998758
     atom   23 type  2   force =     0.00581924    0.89596780  -39.00018931
     atom   24 type  1   force =    -0.90587206    0.51298310    4.62324199
     atom   25 type  2   force =     0.62503211    0.19309093   39.00692728
     atom   26 type  2   force =    -0.29948946    0.03140284  -37.88433648
     atom   27 type  1   force =    -0.26282816   -1.56925832   -6.41016797
     atom   28 type  2   force =    -0.86447914   -0.28555570   37.46880664
     atom   29 type  2   force =    -0.40360297   -0.65593548  -38.00534738
     atom   30 type  1   force =    -1.93262835    0.21884951   -3.32664606
     atom   31 type  2   force =    -0.60742133    2.17729114   25.59301467
     atom   32 type  2   force =    -0.51962094    0.03954746  -39.77968185
     atom   33 type  1   force =     0.70883139    0.22174628    0.49897135
     atom   34 type  2   force =    -0.34751180   -0.41080909   38.86071678
     atom   35 type  2   force =    -0.41586766    0.69551313  -38.49898898
     atom   36 type  3   force =     2.55561684   -1.52955244   52.68679517
     The local contribution  to forces
     atom    1 type  1   force =    -0.43157239    0.05991678   -4.71773314
     atom    2 type  2   force =     0.79211824   -0.34029944  -38.83773508
     atom    3 type  2   force =     0.21783956    0.01479744   36.31176515
     atom    4 type  1   force =     0.68749566    0.06020704    1.03149702
     atom    5 type  2   force =     0.83722445   -1.08434962  -38.21485767
     atom    6 type  2   force =    -0.36488481    0.63427082   38.35188332
     atom    7 type  1   force =     2.41494762    2.35319037   -1.01000576
     atom    8 type  2   force =     1.88342406   -0.14008896  -36.53660939
     atom    9 type  2   force =    -0.19016556    0.02525984   38.48981415
     atom   10 type  1   force =     1.41972867   -0.24023879   -4.59921818
     atom   11 type  2   force =     0.45471511    1.22480966  -38.63964025
     atom   12 type  2   force =    -0.44825470   -0.81054940   38.16300321
     atom   13 type  1   force =    -0.76934487   -0.32635992   -1.56342754
     atom   14 type  2   force =    -0.22448354    0.07431600  -38.04498518
     atom   15 type  2   force =    -0.21721088    0.09496827   37.04469285
     atom   16 type  1   force =    -1.01751195   -3.17522547    1.58592278
     atom   17 type  2   force =    -1.69215049    0.18177122  -36.73649178
     atom   18 type  2   force =     0.05274782    0.88003229   39.09607694
     atom   19 type  1   force =    -4.10716278    1.15708357    3.15044743
     atom   20 type  2   force =    -0.41546107    0.18247121   39.02824475
     atom   21 type  1   force =    -0.44628368   -0.68771535    0.00746581
     atom   22 type  2   force =    -1.05563021    0.42087931  -37.53087480
     atom   23 type  2   force =    -0.01220463   -0.87967942   38.76246003
     atom   24 type  1   force =     0.89239262   -0.52544407   -4.63513209
     atom   25 type  2   force =    -0.61902229   -0.17989059  -38.75892055
     atom   26 type  2   force =     0.29084317   -0.02015781   37.63698545
     atom   27 type  1   force =     0.26483775    1.52139782    6.36493357
     atom   28 type  2   force =     0.86605469    0.30209440  -37.21713202
     atom   29 type  2   force =     0.40024393    0.65576520   37.75944564
     atom   30 type  1   force =     1.90477992   -0.20310935    3.32629487
     atom   31 type  2   force =     0.57516419   -2.09667823  -26.09622041
     atom   32 type  2   force =     0.51610461   -0.02571114   39.53119209
     atom   33 type  1   force =    -0.68817021   -0.23804833   -0.51278012
     atom   34 type  2   force =     0.34999376    0.41496234  -38.61840828
     atom   35 type  2   force =     0.41322578   -0.67740718   38.26288830
     atom   36 type  3   force =    -2.02257929    0.90928271  -49.66616494
     The core correction contribution to forces
     atom    1 type  1   force =     0.00000000    0.00000000    0.00000000
     atom    2 type  2   force =     0.00023595    0.00002962    0.02095916
     atom    3 type  2   force =     0.00066176    0.00008430   -0.02092219
     atom    4 type  1   force =     0.00000000    0.00000000    0.00000000
     atom    5 type  2   force =    -0.00054091    0.00184023    0.02051849
     atom    6 type  2   force =     0.00031691   -0.00118488   -0.02093355
     atom    7 type  1   force =     0.00000000    0.00000000    0.00000000
     atom    8 type  2   force =    -0.00035054    0.00030174    0.02053594
     atom    9 type  2   force =     0.00002984    0.00054287   -0.02086402
     atom   10 type  1   force =     0.00000000    0.00000000    0.00000000
     atom   11 type  2   force =    -0.00067785   -0.00043049    0.02085693
     atom   12 type  2   force =     0.00119829    0.00132146   -0.02089328
     atom   13 type  1   force =     0.00000000    0.00000000    0.00000000
     atom   14 type  2   force =    -0.00051484    0.00015076    0.02074553
     atom   15 type  2   force =     0.00070831    0.00037690   -0.02061691
     atom   16 type  1   force =     0.00000000    0.00000000    0.00000000
     atom   17 type  2   force =    -0.00019104    0.00158124    0.02052845
     atom   18 type  2   force =    -0.00026122   -0.00037567   -0.02106486
     atom   19 type  1   force =     0.00000000    0.00000000    0.00000000
     atom   20 type  2   force =    -0.00002460    0.00091703   -0.02109370
     atom   21 type  1   force =     0.00000000    0.00000000    0.00000000
     atom   22 type  2   force =     0.00032999    0.00025066    0.02051410
     atom   23 type  2   force =    -0.00043155    0.00108842   -0.02086632
     atom   24 type  1   force =     0.00000000    0.00000000    0.00000000
     atom   25 type  2   force =    -0.00013852   -0.00043022    0.02078685
     atom   26 type  2   force =    -0.00015480    0.00066053   -0.02093650
     atom   27 type  1   force =     0.00000000    0.00000000    0.00000000
     atom   28 type  2   force =    -0.00000803    0.00136190    0.02101408
     atom   29 type  2   force =    -0.00027431   -0.00044912   -0.02050496
     atom   30 type  1   force =     0.00000000    0.00000000    0.00000000
     atom   31 type  2   force =     0.00345333   -0.00255138    0.02443756
     atom   32 type  2   force =    -0.00000430    0.00050033   -0.02157916
     atom   33 type  1   force =     0.00000000    0.00000000    0.00000000
     atom   34 type  2   force =     0.00022151    0.00174590    0.02111833
     atom   35 type  2   force =    -0.00007410    0.00080509   -0.02105037
     atom   36 type  3   force =     0.00396453   -0.00450438    0.01867050
     The Hubbard contrib.    to forces
     atom    1 type  1   force =     0.00000000    0.00000000    0.00000000
     atom    2 type  2   force =     0.00000000    0.00000000    0.00000000
     atom    3 type  2   force =     0.00000000    0.00000000    0.00000000
     atom    4 type  1   force =     0.00000000    0.00000000    0.00000000
     atom    5 type  2   force =     0.00000000    0.00000000    0.00000000
     atom    6 type  2   force =     0.00000000    0.00000000    0.00000000
     atom    7 type  1   force =     0.00000000    0.00000000    0.00000000
     atom    8 type  2   force =     0.00000000    0.00000000    0.00000000
     atom    9 type  2   force =     0.00000000    0.00000000    0.00000000
     atom   10 type  1   force =     0.00000000    0.00000000    0.00000000
     atom   11 type  2   force =     0.00000000    0.00000000    0.00000000
     atom   12 type  2   force =     0.00000000    0.00000000    0.00000000
     atom   13 type  1   force =     0.00000000    0.00000000    0.00000000
     atom   14 type  2   force =     0.00000000    0.00000000    0.00000000
     atom   15 type  2   force =     0.00000000    0.00000000    0.00000000
     atom   16 type  1   force =     0.00000000    0.00000000    0.00000000
     atom   17 type  2   force =     0.00000000    0.00000000    0.00000000
     atom   18 type  2   force =     0.00000000    0.00000000    0.00000000
     atom   19 type  1   force =     0.00000000    0.00000000    0.00000000
     atom   20 type  2   force =     0.00000000    0.00000000    0.00000000
     atom   21 type  1   force =     0.00000000    0.00000000    0.00000000
     atom   22 type  2   force =     0.00000000    0.00000000    0.00000000
     atom   23 type  2   force =     0.00000000    0.00000000    0.00000000
     atom   24 type  1   force =     0.00000000    0.00000000    0.00000000
     atom   25 type  2   force =     0.00000000    0.00000000    0.00000000
     atom   26 type  2   force =     0.00000000    0.00000000    0.00000000
     atom   27 type  1   force =     0.00000000    0.00000000    0.00000000
     atom   28 type  2   force =     0.00000000    0.00000000    0.00000000
     atom   29 type  2   force =     0.00000000    0.00000000    0.00000000
     atom   30 type  1   force =     0.00000000    0.00000000    0.00000000
     atom   31 type  2   force =     0.00000000    0.00000000    0.00000000
     atom   32 type  2   force =     0.00000000    0.00000000    0.00000000
     atom   33 type  1   force =     0.00000000    0.00000000    0.00000000
     atom   34 type  2   force =     0.00000000    0.00000000    0.00000000
     atom   35 type  2   force =     0.00000000    0.00000000    0.00000000
     atom   36 type  3   force =     0.00000000    0.00000000    0.00000000
     The SCF correction term to forces
     atom    1 type  1   force =     0.00008517   -0.00033155    0.00115953
     atom    2 type  2   force =    -0.00005806   -0.00003822    0.00042186
     atom    3 type  2   force =     0.00000101   -0.00002730    0.00038748
     atom    4 type  1   force =    -0.00021504   -0.00020080    0.00099397
     atom    5 type  2   force =     0.00005767   -0.00010652    0.00041646
     atom    6 type  2   force =     0.00005344   -0.00008250    0.00034222
     atom    7 type  1   force =     0.00004541    0.00019289    0.00099835
     atom    8 type  2   force =    -0.00017475    0.00002864    0.00040320
     atom    9 type  2   force =    -0.00005544    0.00002930    0.00031120
     atom   10 type  1   force =    -0.00016821    0.00031587    0.00108074
     atom   11 type  2   force =     0.00002382    0.00014357    0.00041616
     atom   12 type  2   force =     0.00000084    0.00009724    0.00036961
     atom   13 type  1   force =     0.00010033   -0.00043315    0.00104707
     atom   14 type  2   force =     0.00008304   -0.00005750    0.00044992
     atom   15 type  2   force =     0.00003672   -0.00006114    0.00037805
     atom   16 type  1   force =     0.00031504   -0.00013713    0.00093544
     atom   17 type  2   force =     0.00009709   -0.00021659    0.00037771
     atom   18 type  2   force =     0.00000694   -0.00010933    0.00026771
     atom   19 type  1   force =     0.00032391    0.00022169    0.00065175
     atom   20 type  2   force =     0.00007967    0.00005801    0.00036165
     atom   21 type  1   force =     0.00025177    0.00024945    0.00106536
     atom   22 type  2   force =     0.00014634    0.00026246    0.00038215
     atom   23 type  2   force =     0.00004794    0.00015236    0.00028027
     atom   24 type  1   force =    -0.00020739   -0.00034780    0.00099548
     atom   25 type  2   force =    -0.00003076   -0.00002562    0.00040766
     atom   26 type  2   force =    -0.00003999   -0.00003717    0.00035223
     atom   27 type  1   force =    -0.00010835   -0.00031494    0.00074497
     atom   28 type  2   force =    -0.00015692   -0.00021547    0.00037917
     atom   29 type  2   force =    -0.00006120   -0.00012123    0.00030367
     atom   30 type  1   force =    -0.00035778    0.00022958    0.00076145
     atom   31 type  2   force =    -0.00001535   -0.00001673    0.00041224
     atom   32 type  2   force =    -0.00002855    0.00002531    0.00021721
     atom   33 type  1   force =    -0.00008800    0.00040867    0.00091432
     atom   34 type  2   force =    -0.00015086    0.00024301    0.00039817
     atom   35 type  2   force =    -0.00004744    0.00013956    0.00029732
     atom   36 type  3   force =     0.00002189   -0.00001322    0.00060508

     Total force =     1.024927     Total SCF correction =     0.004068

     BFGS Geometry Optimization
     Energy error            =      0.0E+00 Ry
     Gradient error          =      7.1E-01 Ry/Bohr

     number of scf cycles    =   1
     number of bfgs steps    =   0

     energy             new  =   -2246.3087393827 Ry

     new trust radius        =       0.5000000000 bohr
     new conv_thr            =       0.0000010000 Ry


ATOMIC_POSITIONS (angstrom)
Mo            6.5793863549        1.7785128154        2.8259421953
S             8.1711573982        0.8157827568        4.4343204987
S             8.1890307472        0.8146093831        1.2772042330
Mo            8.0964614922        4.4965265126        2.7169545997
S             6.4993511740        3.7199436516        4.3440933614
S             6.5539278565        3.5155903760        1.1207921195
Mo            6.4933414737        7.2119600137        2.6699627366
S             8.0802907501        6.3430583827        4.2475636258
S             8.0850556973        6.3060474542        1.0879707929
Mo            8.1568646611        9.9041229567        2.8337114593
S             6.4965846039        8.9428198222        4.3804653429
S             6.6169300612        9.0493540579        1.1425032849
Mo            3.4236438787        1.7493173709        2.7739386853
S             4.9782327576        0.8166471940        4.3552037634
S             5.0534587926        0.8474342748        1.2237620979
Mo            4.9791977003        4.5186316080        2.6349943746
S             3.4294793274        3.6716723959        4.2805862168
S             3.4383830716        3.5454051206        1.0628414252
Mo            3.4570401715        7.2142072634        2.6278711631
S             4.9843527398        6.3241678278        1.0372558962
Mo            5.0104546205        9.9031751925        2.7423590003
S             3.4690724371        8.9422645488        4.3261641790
S             3.4076942689        9.0669199358        1.0995260933
Mo            0.2922202547        1.7474382228        2.8415399110
S             1.8564355819        0.7992343683        4.4009847550
S             1.8566064987        0.8541549224        1.2081006357
Mo            1.8606166646        4.4929210323        2.6577487474
S             0.2730519440        3.6543684406        4.3367706184
S             0.2307105178        3.5266721759        1.1707634587
Mo            0.2670507107        7.2194167522        2.7096925466
S             1.8734540720        6.3525731646        3.9624506520
S             1.8590307673        6.3125823928        1.0491590459
Mo            1.8503175950        9.9381903794        2.7699897732
S             0.2973156957        9.0753546410        4.4104982236
S             0.2748132831        9.0475159444        1.1551572872
O             2.1328336124        6.0339641696        5.7359187371



     Writing config-only to output data dir ./MoS2-V-O.save/
     NEW-OLD atomic charge density approx. for the potential

     negative rho (up, down):  1.832E-04 0.000E+00

     total cpu time spent up to now is      103.8 secs

     Self-consistent Calculation

     iteration #  1     ecut=    80.00 Ry     beta= 0.70
     Davidson diagonalization with overlap
     ethr =  1.00E-06,  avg # of iterations = 19.0

     negative rho (up, down):  6.259E-03 0.000E+00

     total cpu time spent up to now is      122.5 secs

     total energy              =   -2246.28181861 Ry
     estimated scf accuracy    <       0.19795842 Ry

     iteration #  2     ecut=    80.00 Ry     beta= 0.70
     Davidson diagonalization with overlap
     ethr =  6.34E-05,  avg # of iterations =  7.0

     negative rho (up, down):  9.025E-03 0.000E+00

     total cpu time spent up to now is      137.1 secs

     total energy              =   -2246.30514502 Ry
     estimated scf accuracy    <       0.13542216 Ry

     iteration #  3     ecut=    80.00 Ry     beta= 0.70
     Davidson diagonalization with overlap
     ethr =  4.34E-05,  avg # of iterations =  4.0

     negative rho (up, down):  1.763E-02 0.000E+00

     total cpu time spent up to now is      149.2 secs

     total energy              =   -2246.30932011 Ry
     estimated scf accuracy    <       0.02068459 Ry

     iteration #  4     ecut=    80.00 Ry     beta= 0.70
     Davidson diagonalization with overlap
     ethr =  6.63E-06,  avg # of iterations =  3.0

     negative rho (up, down):  1.918E-02 0.000E+00

     total cpu time spent up to now is      158.1 secs

     total energy              =   -2246.31107899 Ry
     estimated scf accuracy    <       0.00992740 Ry

     iteration #  5     ecut=    80.00 Ry     beta= 0.70
     Davidson diagonalization with overlap
     ethr =  3.18E-06,  avg # of iterations =  2.0

     negative rho (up, down):  1.947E-02 0.000E+00

     total cpu time spent up to now is      167.4 secs

     total energy              =   -2246.31036307 Ry
     estimated scf accuracy    <       0.00407305 Ry

     iteration #  6     ecut=    80.00 Ry     beta= 0.70
     Davidson diagonalization with overlap
     ethr =  1.31E-06,  avg # of iterations =  5.0

     negative rho (up, down):  1.701E-02 0.000E+00

     total cpu time spent up to now is      177.4 secs

     total energy              =   -2246.31084353 Ry
     estimated scf accuracy    <       0.00053281 Ry

     iteration #  7     ecut=    80.00 Ry     beta= 0.70
     Davidson diagonalization with overlap
     ethr =  1.71E-07,  avg # of iterations =  4.0

     negative rho (up, down):  1.310E-02 0.000E+00

     total cpu time spent up to now is      187.3 secs

     total energy              =   -2246.31080032 Ry
     estimated scf accuracy    <       0.00014632 Ry

     iteration #  8     ecut=    80.00 Ry     beta= 0.70
     Davidson diagonalization with overlap
     ethr =  4.69E-08,  avg # of iterations =  5.0

     negative rho (up, down):  9.463E-03 0.000E+00

     total cpu time spent up to now is      199.9 secs

     total energy              =   -2246.31075869 Ry
     estimated scf accuracy    <       0.00010023 Ry

     iteration #  9     ecut=    80.00 Ry     beta= 0.70
     Davidson diagonalization with overlap
     ethr =  3.21E-08,  avg # of iterations =  2.0

     negative rho (up, down):  5.835E-03 0.000E+00

     total cpu time spent up to now is      208.6 secs

     total energy              =   -2246.31071066 Ry
     estimated scf accuracy    <       0.00003810 Ry

     iteration # 10     ecut=    80.00 Ry     beta= 0.70
     Davidson diagonalization with overlap
     ethr =  1.22E-08,  avg # of iterations =  3.0

     negative rho (up, down):  3.556E-03 0.000E+00

     total cpu time spent up to now is      215.2 secs

     total energy              =   -2246.31068975 Ry
     estimated scf accuracy    <       0.00001141 Ry

     iteration # 11     ecut=    80.00 Ry     beta= 0.70
     Davidson diagonalization with overlap
     ethr =  3.66E-09,  avg # of iterations =  4.0

     negative rho (up, down):  1.830E-03 0.000E+00

     total cpu time spent up to now is      221.8 secs

     total energy              =   -2246.31067646 Ry
     estimated scf accuracy    <       0.00000526 Ry

     iteration # 12     ecut=    80.00 Ry     beta= 0.70
     Davidson diagonalization with overlap
     ethr =  1.69E-09,  avg # of iterations =  4.0

     negative rho (up, down):  8.501E-04 0.000E+00

     total cpu time spent up to now is      229.3 secs

     total energy              =   -2246.31066999 Ry
     estimated scf accuracy    <       0.00000231 Ry

     iteration # 13     ecut=    80.00 Ry     beta= 0.70
     Davidson diagonalization with overlap
     ethr =  7.41E-10,  avg # of iterations =  2.0

     negative rho (up, down):  1.598E-04 0.000E+00

     total cpu time spent up to now is      232.5 secs

     End of self-consistent calculation

          k = 0.0000 0.0000 0.0000 (105382 PWs)   bands (ev):

   -63.1133 -63.1030 -63.0836 -63.0736 -63.0650 -63.0570 -63.0553 -63.0405
   -63.0298 -63.0263 -63.0108 -62.9821 -37.4850 -37.4216 -37.4016 -37.3805
   -37.3661 -37.3469 -37.3219 -37.3139 -37.3079 -37.2985 -37.2850 -37.2827
   -37.2686 -37.2590 -37.2572 -37.2530 -37.2428 -37.2342 -37.2260 -37.2173
   -37.2110 -37.2074 -37.1989 -37.1823 -37.1770 -37.1571 -37.1554 -37.1466
   -37.1426 -37.1396 -37.1045 -37.0942 -37.0769 -37.0314 -37.0114 -36.9744
   -18.9063 -16.1912 -15.4437 -15.3971 -15.2082 -15.1188 -14.9959 -14.7855
   -14.6890 -14.6566 -14.6381 -14.6083 -14.5524 -14.5330 -14.4833 -14.4001
   -14.3343 -14.3296 -14.2999 -14.2557 -14.1241 -14.1062 -14.0641 -14.0171
    -8.0357  -7.8891  -7.7256  -7.6649  -7.4888  -7.4857  -7.4315  -7.4171
    -7.3028  -7.0780  -7.0550  -7.0176  -6.9429  -6.8452  -6.7668  -6.6517
    -6.6269  -6.5730  -6.4989  -6.3988  -6.2630  -6.2190  -6.1147  -6.0386
    -5.9942  -5.9833  -5.9709  -5.9171  -5.8892  -5.8735  -5.8098  -5.7676
    -5.7514  -5.6914  -5.6874  -5.4341  -5.3914  -5.3156  -5.2494  -5.2216
    -5.1670  -5.1279  -5.0915  -4.9273  -4.8395  -4.7128  -4.5685  -4.5142
    -4.5023  -4.3724  -4.3034  -4.2623  -4.1537  -4.0822  -4.0103  -3.9968
    -3.9316  -3.9029  -3.8387  -3.7745  -3.7615  -3.7195  -3.6921  -3.6623
    -3.6266  -3.6025  -3.4784  -3.3566  -3.1541  -3.1367  -3.0588  -3.0501
    -3.0231  -3.0036  -2.9530  -2.9153  -2.8881  -2.8346  -2.5308  -2.3825
    -2.3106  -2.2356  -2.1633  -1.9812  -1.0811  -0.9862  -0.4855  -0.4381
    -0.3389  -0.3082  -0.1974  -0.1001  -0.0438   0.0124   0.0345   0.0543
     0.1062   0.1465   0.1749   0.2706   0.3010   0.3478   0.3546   0.4341
     0.4992   0.5230   0.5424   0.5830   0.6004   0.6493   0.6971   0.7211
     0.8128   0.9138   0.9852

     the Fermi energy is    -1.5312 ev

!    total energy              =   -2246.31066749 Ry
     estimated scf accuracy    <       0.00000086 Ry
     smearing contrib. (-TS)   =      -0.00000020 Ry
     internal energy E=F+TS    =   -2246.31066729 Ry

     The total energy is F=E-TS. E is the sum of the following terms:
     one-electron contribution =  -18411.84734946 Ry
     hartree contribution      =    9192.51668831 Ry
     xc contribution           =    -391.98914197 Ry
     ewald contribution        =    7374.88044851 Ry
     one-center paw contrib.   =      -9.87131267 Ry

     convergence has been achieved in  13 iterations

     negative rho (up, down):  1.598E-04 0.000E+00

     Forces acting on atoms (cartesian axes, Ry/au):

     atom    1 type  1   force =     0.00607112   -0.01629862    0.00201506
     atom    2 type  2   force =    -0.01103367    0.01247124   -0.00089855
     atom    3 type  2   force =    -0.01108188    0.00762437   -0.00643635
     atom    4 type  1   force =     0.00538344    0.00169527   -0.00033102
     atom    5 type  2   force =    -0.00086137   -0.00643770   -0.00599561
     atom    6 type  2   force =     0.00056763    0.00780236    0.00116945
     atom    7 type  1   force =     0.00696493   -0.01329015   -0.00632364
     atom    8 type  2   force =    -0.00410610   -0.00413283    0.01609979
     atom    9 type  2   force =     0.00953825    0.00322460    0.00935688
     atom   10 type  1   force =    -0.00341503    0.00604796   -0.01650819
     atom   11 type  2   force =     0.00317532   -0.00111480   -0.00733296
     atom   12 type  2   force =    -0.00411450    0.00061798    0.00436245
     atom   13 type  1   force =     0.00697173    0.00430254   -0.00497967
     atom   14 type  2   force =     0.00610973   -0.00040148    0.01102653
     atom   15 type  2   force =    -0.00941874    0.00259949   -0.00721429
     atom   16 type  1   force =     0.00121073    0.00865959    0.00607289
     atom   17 type  2   force =     0.00053609    0.00759584    0.00522314
     atom   18 type  2   force =     0.00097081   -0.00608963    0.00935758
     atom   19 type  1   force =     0.05270552    0.02684711   -0.04931027
     atom   20 type  2   force =     0.00529739   -0.00694862   -0.00199472
     atom   21 type  1   force =    -0.00513055    0.00409477   -0.00237784
     atom   22 type  2   force =    -0.00331091   -0.00624294    0.00331757
     atom   23 type  2   force =     0.00092852    0.00258219    0.00633685
     atom   24 type  1   force =    -0.00899443    0.00009966   -0.01351533
     atom   25 type  2   force =     0.01307257    0.01519394    0.00326199
     atom   26 type  2   force =    -0.00874611   -0.00077692   -0.00453287
     atom   27 type  1   force =    -0.00347769   -0.04964075   -0.03837894
     atom   28 type  2   force =     0.00421938    0.00149001   -0.00135440
     atom   29 type  2   force =    -0.00058576   -0.00131323   -0.00476895
     atom   30 type  1   force =    -0.06968024    0.04113712   -0.04922226
     atom   31 type  2   force =     0.05846046   -0.06665863    0.33645390
     atom   32 type  2   force =    -0.00926573    0.00572505   -0.00798448
     atom   33 type  1   force =     0.00858228   -0.00423382   -0.00426277
     atom   34 type  2   force =     0.00284730   -0.03301658   -0.00912319
     atom   35 type  2   force =    -0.00472900    0.01056012    0.01118977
     atom   36 type  3   force =    -0.03566150    0.04622548   -0.18239756
     The non-local contrib.  to forces
     atom    1 type  1   force =     0.00047805    0.03201632   -0.01219276
     atom    2 type  2   force =    -0.00722111   -0.00318432   -0.27671440
     atom    3 type  2   force =    -0.01294279   -0.00429203    0.26761266
     atom    4 type  1   force =     0.00028258    0.00329625    0.00537696
     atom    5 type  2   force =     0.00521787   -0.03334237   -0.25939683
     atom    6 type  2   force =    -0.00258646    0.01113844    0.26645810
     atom    7 type  1   force =    -0.02617845    0.00108976   -0.02364977
     atom    8 type  2   force =     0.00198477   -0.00278860   -0.26423124
     atom    9 type  2   force =     0.00288778   -0.01134557    0.27111713
     atom   10 type  1   force =    -0.00055897    0.00661628    0.00061595
     atom   11 type  2   force =     0.01313634    0.00269125   -0.26762889
     atom   12 type  2   force =    -0.01336879   -0.01788284    0.26254114
     atom   13 type  1   force =     0.00216409    0.02559804   -0.00429405
     atom   14 type  2   force =     0.00868616   -0.01136924   -0.26845610
     atom   15 type  2   force =    -0.01153604   -0.00614326    0.26226190
     atom   16 type  1   force =    -0.00140402    0.02055798   -0.03184780
     atom   17 type  2   force =     0.00683798   -0.02557017   -0.26012973
     atom   18 type  2   force =    -0.00042039   -0.00163100    0.27319270
     atom   19 type  1   force =     0.00088814   -0.01338499   -0.00458425
     atom   20 type  2   force =     0.00189482   -0.02250148    0.26168523
     atom   21 type  1   force =     0.00249488    0.02678155    0.00780580
     atom   22 type  2   force =    -0.00501771   -0.00108089   -0.26546170
     atom   23 type  2   force =     0.00485741   -0.01679904    0.26604577
     atom   24 type  1   force =     0.00293148    0.01442804   -0.00971502
     atom   25 type  2   force =     0.00739347    0.00172304   -0.26737475
     atom   26 type  2   force =    -0.00069849   -0.01229425    0.26521474
     atom   27 type  1   force =    -0.00058280    0.02043237    0.02574812
     atom   28 type  2   force =    -0.00559084   -0.02037641   -0.28606057
     atom   29 type  2   force =     0.00392630    0.00153054    0.26208937
     atom   30 type  1   force =     0.00881624   -0.00130856    0.01629070
     atom   31 type  2   force =     0.04878359   -0.08713074    0.45216914
     atom   32 type  2   force =    -0.00349308   -0.00765289    0.28079704
     atom   33 type  1   force =    -0.00226930    0.01407590    0.00445324
     atom   34 type  2   force =    -0.00268855   -0.03363036   -0.28226274
     atom   35 type  2   force =    -0.00000893   -0.00995567    0.26825454
     atom   36 type  3   force =    -0.25842083    0.28358882   -1.49481125
     The ionic contribution  to forces
     atom    1 type  1   force =     0.25069303    0.12772781    4.86568835
     atom    2 type  2   force =    -0.65172095    0.27021569   39.14572138
     atom    3 type  2   force =    -0.20684395    0.00784197  -36.61718782
     atom    4 type  1   force =    -0.73172400   -0.19053501   -0.87179996
     atom    5 type  2   force =    -0.84858311    1.10418479   38.39009391
     atom    6 type  2   force =     0.32232973   -0.68277029  -38.50843534
     atom    7 type  1   force =    -2.49360586   -2.22890603    1.10235821
     atom    8 type  2   force =    -1.82256356    0.09283793   37.00542706
     atom    9 type  2   force =     0.18512083   -0.01562094  -38.73042783
     atom   10 type  1   force =    -1.27159370    0.25797710    4.39658737
     atom   11 type  2   force =    -0.46756682   -1.24531054   38.84979508
     atom   12 type  2   force =     0.40278177    0.78172830  -38.36087863
     atom   13 type  1   force =     0.74019144    0.30294702    1.61354995
     atom   14 type  2   force =     0.15861432   -0.05251758   38.36041305
     atom   15 type  2   force =     0.23044598   -0.04654538  -37.30096335
     atom   16 type  1   force =     1.02040298    3.00309094   -1.19341159
     atom   17 type  2   force =     1.54003750    0.06776251   37.04078990
     atom   18 type  2   force =    -0.00056458   -0.89003002  -39.27459835
     atom   19 type  1   force =     5.05783939   -0.78366887   -3.05527062
     atom   20 type  2   force =     0.44468929   -0.16102805  -39.30407560
     atom   21 type  1   force =     0.43423817    0.60904002    0.11414598
     atom   22 type  2   force =     1.00718777   -0.56712319   37.90891968
     atom   23 type  2   force =     0.04715489    0.90483378  -38.99184634
     atom   24 type  1   force =    -0.73244822    0.43384696    4.51685989
     atom   25 type  2   force =     0.53900029    0.16443666   38.99061142
     atom   26 type  2   force =    -0.27195990    0.03292392  -37.83449072
     atom   27 type  1   force =    -0.16203981   -2.36764490   -5.99742555
     atom   28 type  2   force =    -0.72454544   -0.15852097   37.54004461
     atom   29 type  2   force =    -0.41521612   -0.65744792  -38.01329529
     atom   30 type  1   force =    -2.93532898    0.69716815   -2.97424674
     atom   31 type  2   force =     0.54689304    0.67021131   29.12224966
     atom   32 type  2   force =    -0.53216000    0.02958133  -39.96731773
     atom   33 type  1   force =     0.57809541    0.46654470    0.69809001
     atom   34 type  2   force =    -0.32271630   -0.30883598   38.91698883
     atom   35 type  2   force =    -0.40145373    0.70316109  -38.44798832
     atom   36 type  3   force =     1.48691921   -0.37155633   46.86532543
     The local contribution  to forces
     atom    1 type  1   force =    -0.24516012   -0.17583162   -4.85207495
     atom    2 type  2   force =     0.64780613   -0.25465485  -38.89101794
     atom    3 type  2   force =     0.20815768    0.00391871   36.36349685
     atom    4 type  1   force =     0.73701992    0.18911572    0.86582167
     atom    5 type  2   force =     0.84305660   -1.07897214  -38.15741665
     atom    6 type  2   force =    -0.31949802    0.68060195   38.26368749
     atom    7 type  1   force =     2.52674134    2.21438879   -1.08533519
     atom    8 type  2   force =     1.81661818   -0.09459127  -36.74616044
     atom    9 type  2   force =    -0.17857446    0.02959048   38.48909995
     atom   10 type  1   force =     1.26897420   -0.25881137   -4.41413598
     atom   11 type  2   force =     0.45821720    1.24174851  -38.61058149
     atom   12 type  2   force =    -0.39464886   -0.76469053   38.12311804
     atom   13 type  1   force =    -0.73550461   -0.32395443   -1.61466106
     atom   14 type  2   force =    -0.16077051    0.06338498  -38.10185741
     atom   15 type  2   force =    -0.22900797    0.05489945   37.05161608
     atom   16 type  1   force =    -1.01803432   -3.01486312    1.23105754
     atom   17 type  2   force =    -1.54602201   -0.03611514  -36.79659703
     atom   18 type  2   force =     0.00204192    0.88619384   39.03142626
     atom   19 type  1   force =    -5.00611016    0.82382996    3.01040469
     atom   20 type  2   force =    -0.44134441    0.17567351   39.06107727
     atom   21 type  1   force =    -0.44207961   -0.63199889   -0.12479531
     atom   22 type  2   force =    -1.00571552    0.56213568  -37.66124924
     atom   23 type  2   force =    -0.05070688   -0.88683788   38.75259552
     atom   24 type  1   force =     0.72069606   -0.44793721   -4.52105697
     atom   25 type  2   force =    -0.53329097   -0.15072526  -38.74100414
     atom   26 type  2   force =     0.26413164   -0.02208121   37.58524861
     atom   27 type  1   force =     0.15920730    2.29767487    5.93319560
     atom   28 type  2   force =     0.73398847    0.17885868  -37.27710623
     atom   29 type  2   force =     0.41115952    0.65520839   37.76656073
     atom   30 type  1   force =     2.85688038   -0.65476996    2.90860711
     atom   31 type  2   force =    -0.53464186   -0.65458870  -29.22210530
     atom   32 type  2   force =     0.52653427   -0.01673466   39.69956838
     atom   33 type  1   force =    -0.56725424   -0.48514802   -0.70710509
     atom   34 type  2   force =     0.32793096    0.30814276  -38.66555038
     atom   35 type  2   force =     0.39693853   -0.68355542   38.21155257
     atom   36 type  3   force =    -1.26718996    0.13753986  -45.56980893
     The core correction contribution to forces
     atom    1 type  1   force =     0.00000000    0.00000000    0.00000000
     atom    2 type  2   force =     0.00019254    0.00009740    0.02114925
     atom    3 type  2   force =     0.00057488    0.00015822   -0.02086474
     atom    4 type  1   force =     0.00000000    0.00000000    0.00000000
     atom    5 type  2   force =    -0.00058950    0.00183810    0.02075439
     atom    6 type  2   force =     0.00030492   -0.00114515   -0.02097683
     atom    7 type  1   force =     0.00000000    0.00000000    0.00000000
     atom    8 type  2   force =    -0.00002047    0.00037950    0.02116053
     atom    9 type  2   force =     0.00011304    0.00061458   -0.02080407
     atom   10 type  1   force =     0.00000000    0.00000000    0.00000000
     atom   11 type  2   force =    -0.00062380   -0.00042350    0.02109860
     atom   12 type  2   force =     0.00112911    0.00139600   -0.02085887
     atom   13 type  1   force =     0.00000000    0.00000000    0.00000000
     atom   14 type  2   force =    -0.00050394    0.00013370    0.02095502
     atom   15 type  2   force =     0.00066345    0.00041379   -0.02063586
     atom   16 type  1   force =     0.00000000    0.00000000    0.00000000
     atom   17 type  2   force =    -0.00044078    0.00176614    0.02128038
     atom   18 type  2   force =    -0.00012193   -0.00057020   -0.02104648
     atom   19 type  1   force =     0.00000000    0.00000000    0.00000000
     atom   20 type  2   force =     0.00004551    0.00090075   -0.02105228
     atom   21 type  1   force =     0.00000000    0.00000000    0.00000000
     atom   22 type  2   force =     0.00008909   -0.00039526    0.02120416
     atom   23 type  2   force =    -0.00041726    0.00135843   -0.02084937
     atom   24 type  1   force =     0.00000000    0.00000000    0.00000000
     atom   25 type  2   force =    -0.00003961   -0.00024571    0.02105697
     atom   26 type  2   force =    -0.00022184    0.00065929   -0.02095001
     atom   27 type  1   force =     0.00000000    0.00000000    0.00000000
     atom   28 type  2   force =     0.00051530    0.00174647    0.02186467
     atom   29 type  2   force =    -0.00040122   -0.00056072   -0.02051221
     atom   30 type  1   force =     0.00000000    0.00000000    0.00000000
     atom   31 type  2   force =    -0.00250698    0.00472715   -0.01518602
     atom   32 type  2   force =    -0.00014058    0.00048779   -0.02139030
     atom   33 type  1   force =     0.00000000    0.00000000    0.00000000
     atom   34 type  2   force =     0.00046436    0.00111634    0.02177308
     atom   35 type  2   force =    -0.00017071    0.00088618   -0.02100480
     atom   36 type  3   force =     0.00297596   -0.00325675    0.01688807
     The Hubbard contrib.    to forces
     atom    1 type  1   force =     0.00000000    0.00000000    0.00000000
     atom    2 type  2   force =     0.00000000    0.00000000    0.00000000
     atom    3 type  2   force =     0.00000000    0.00000000    0.00000000
     atom    4 type  1   force =     0.00000000    0.00000000    0.00000000
     atom    5 type  2   force =     0.00000000    0.00000000    0.00000000
     atom    6 type  2   force =     0.00000000    0.00000000    0.00000000
     atom    7 type  1   force =     0.00000000    0.00000000    0.00000000
     atom    8 type  2   force =     0.00000000    0.00000000    0.00000000
     atom    9 type  2   force =     0.00000000    0.00000000    0.00000000
     atom   10 type  1   force =     0.00000000    0.00000000    0.00000000
     atom   11 type  2   force =     0.00000000    0.00000000    0.00000000
     atom   12 type  2   force =     0.00000000    0.00000000    0.00000000
     atom   13 type  1   force =     0.00000000    0.00000000    0.00000000
     atom   14 type  2   force =     0.00000000    0.00000000    0.00000000
     atom   15 type  2   force =     0.00000000    0.00000000    0.00000000
     atom   16 type  1   force =     0.00000000    0.00000000    0.00000000
     atom   17 type  2   force =     0.00000000    0.00000000    0.00000000
     atom   18 type  2   force =     0.00000000    0.00000000    0.00000000
     atom   19 type  1   force =     0.00000000    0.00000000    0.00000000
     atom   20 type  2   force =     0.00000000    0.00000000    0.00000000
     atom   21 type  1   force =     0.00000000    0.00000000    0.00000000
     atom   22 type  2   force =     0.00000000    0.00000000    0.00000000
     atom   23 type  2   force =     0.00000000    0.00000000    0.00000000
     atom   24 type  1   force =     0.00000000    0.00000000    0.00000000
     atom   25 type  2   force =     0.00000000    0.00000000    0.00000000
     atom   26 type  2   force =     0.00000000    0.00000000    0.00000000
     atom   27 type  1   force =     0.00000000    0.00000000    0.00000000
     atom   28 type  2   force =     0.00000000    0.00000000    0.00000000
     atom   29 type  2   force =     0.00000000    0.00000000    0.00000000
     atom   30 type  1   force =     0.00000000    0.00000000    0.00000000
     atom   31 type  2   force =     0.00000000    0.00000000    0.00000000
     atom   32 type  2   force =     0.00000000    0.00000000    0.00000000
     atom   33 type  1   force =     0.00000000    0.00000000    0.00000000
     atom   34 type  2   force =     0.00000000    0.00000000    0.00000000
     atom   35 type  2   force =     0.00000000    0.00000000    0.00000000
     atom   36 type  3   force =     0.00000000    0.00000000    0.00000000
     The SCF correction term to forces
     atom    1 type  1   force =     0.00006032   -0.00021257    0.00057917
     atom    2 type  2   force =    -0.00009012   -0.00000413   -0.00005210
     atom    3 type  2   force =    -0.00002754   -0.00000396    0.00049144
     atom    4 type  1   force =    -0.00019489   -0.00018315    0.00025506
     atom    5 type  2   force =     0.00003693   -0.00014754   -0.00004568
     atom    6 type  2   force =     0.00001761   -0.00002406    0.00042076
     atom    7 type  1   force =     0.00000806    0.00013588    0.00028784
     atom    8 type  2   force =    -0.00012487    0.00002815   -0.00011139
     atom    9 type  2   force =    -0.00000877   -0.00001541    0.00035643
     atom   10 type  1   force =    -0.00023640    0.00026450    0.00040922
     atom   11 type  2   force =     0.00001257    0.00017803   -0.00003152
     atom   12 type  2   force =    -0.00000758    0.00006561    0.00042550
     atom   13 type  1   force =     0.00012097   -0.00028954    0.00041023
     atom   14 type  2   force =     0.00008386   -0.00003478   -0.00004329
     atom   15 type  2   force =     0.00001601   -0.00002656    0.00049168
     atom   16 type  1   force =     0.00024625   -0.00012767    0.00025948
     atom   17 type  2   force =     0.00012355   -0.00024894   -0.00013564
     atom   18 type  2   force =     0.00003595   -0.00005372    0.00036819
     atom   19 type  1   force =     0.00008832    0.00006957    0.00012465
     atom   20 type  2   force =     0.00001234    0.00000519    0.00035541
     atom   21 type  1   force =     0.00021617    0.00027065    0.00045042
     atom   22 type  2   force =     0.00014563    0.00021928   -0.00011059
     atom   23 type  2   force =     0.00004052    0.00002545    0.00037601
     atom   24 type  1   force =    -0.00017359   -0.00023958    0.00038150
     atom   25 type  2   force =     0.00000955    0.00000375   -0.00004278
     atom   26 type  2   force =     0.00000265    0.00001387    0.00042924
     atom   27 type  1   force =    -0.00006222   -0.00010455    0.00008764
     atom   28 type  2   force =    -0.00014794   -0.00021922   -0.00011213
     atom   29 type  2   force =    -0.00005408   -0.00004498    0.00037320
     atom   30 type  1   force =    -0.00004772    0.00004603    0.00011141
     atom   31 type  2   force =    -0.00006716    0.00012090   -0.00068884
     atom   32 type  2   force =    -0.00000618    0.00004204    0.00034287
     atom   33 type  1   force =     0.00001056    0.00029215    0.00028381
     atom   34 type  2   force =    -0.00014301    0.00018921   -0.00008724
     atom   35 type  2   force =    -0.00003400    0.00002249    0.00036051
     atom   36 type  3   force =     0.00005427   -0.00009157   -0.00000614

     Total force =     0.426910     Total SCF correction =     0.002240
     Energy error            =      1.9E-03 Ry
     Gradient error          =      3.4E-01 Ry/Bohr

     number of scf cycles    =   2
     number of bfgs steps    =   1

     energy             old  =   -2246.3087393827 Ry
     energy             new  =   -2246.3106674890 Ry

     CASE: energy            _new > energy            _old

     new trust radius        =       0.2506661275 bohr
     new conv_thr            =       0.0000010000 Ry


ATOMIC_POSITIONS (angstrom)
Mo            6.5769738270        1.7831471413        2.8247956767
S             8.1739259719        0.8127514891        4.4344291354
S             8.1911263180        0.8129300505        1.2775429248
Mo            8.0958137591        4.4957936864        2.7173853458
S             6.4996294719        3.7211742819        4.3453735847
S             6.5536395975        3.5136690987        1.1210355234
Mo            6.4916660611        7.2151900195        2.6709210503
S             8.0810073247        6.3434636050        4.2450193918
S             8.0829921852        6.3053766774        1.0859223684
Mo            8.1587368529        9.9031542729        2.8385736203
S             6.4958779877        8.9428731758        4.3817819208
S             6.6174372753        9.0490334919        1.1412087523
Mo            3.4226544143        1.7481397569        2.7752015499
S             4.9767032106        0.8167938099        4.3528746506
S             5.0556404449        0.8468497534        1.2252064207
Mo            4.9794764461        4.5159120710        2.6339422727
S             3.4286626764        3.6716361377        4.2801490661
S             3.4381524424        3.5468131475        1.0606025351
Mo            3.4554551902        7.2152630802        2.6292702746
S             4.9837949565        6.3255463739        1.0372548165
Mo            5.0113568599        9.9023897204        2.7428785923
S             3.4700127649        8.9430059282        4.3258785087
S             3.4080607383        9.0659575310        1.0978018028
Mo            0.2941502148        1.7474737820        2.8454817788
S             1.8534568554        0.7959729010        4.3996007943
S             1.8586976796        0.8542900592        1.2087490127
Mo            1.8606538875        4.4942902388        2.6589698015
S             0.2726340132        3.6543835929        4.3371762752
S             0.2309701690        3.5269599324        1.1713890001
Mo            0.2690959667        7.2180351144        2.7057051401
S             1.8878078120        6.3327389894        4.0921010091
S             1.8606302178        6.3114660849        1.0468652926
Mo            1.8473400837        9.9391621702        2.7714640736
S             0.2966161664        9.0826567257        4.4121793534
S             0.2757897327        9.0455261455        1.1527853704
O             2.1172096587        6.0527374850        5.6072448505



     Writing config-only to output data dir ./MoS2-V-O.save/
     NEW-OLD atomic charge density approx. for the potential

     negative rho (up, down):  1.372E-04 0.000E+00

     total cpu time spent up to now is      239.4 secs

     Self-consistent Calculation

     iteration #  1     ecut=    80.00 Ry     beta= 0.70
     Davidson diagonalization with overlap
     ethr =  1.00E-06,  avg # of iterations = 11.0

     negative rho (up, down):  3.279E-05 0.000E+00

     total cpu time spent up to now is      260.9 secs

     total energy              =   -2246.40514158 Ry
     estimated scf accuracy    <       0.03456377 Ry

     iteration #  2     ecut=    80.00 Ry     beta= 0.70
     Davidson diagonalization with overlap
     ethr =  1.11E-05,  avg # of iterations =  6.0

     negative rho (up, down):  4.039E-05 0.000E+00

     total cpu time spent up to now is      275.3 secs

     total energy              =   -2246.41266972 Ry
     estimated scf accuracy    <       0.02623550 Ry

     iteration #  3     ecut=    80.00 Ry     beta= 0.70
     Davidson diagonalization with overlap
     ethr =  8.41E-06,  avg # of iterations =  3.0

     negative rho (up, down):  3.465E-05 0.000E+00

     total cpu time spent up to now is      287.9 secs

     total energy              =   -2246.41185344 Ry
     estimated scf accuracy    <       0.00711275 Ry

     iteration #  4     ecut=    80.00 Ry     beta= 0.70
     Davidson diagonalization with overlap
     ethr =  2.28E-06,  avg # of iterations =  5.0

     negative rho (up, down):  3.930E-05 0.000E+00

     total cpu time spent up to now is      301.1 secs

     total energy              =   -2246.41270783 Ry
     estimated scf accuracy    <       0.00106147 Ry

     iteration #  5     ecut=    80.00 Ry     beta= 0.70
     Davidson diagonalization with overlap
     ethr =  3.40E-07,  avg # of iterations =  4.0

     negative rho (up, down):  3.366E-05 0.000E+00

     total cpu time spent up to now is      313.0 secs

     total energy              =   -2246.41286991 Ry
     estimated scf accuracy    <       0.00031154 Ry

     iteration #  6     ecut=    80.00 Ry     beta= 0.70
     Davidson diagonalization with overlap
     ethr =  9.99E-08,  avg # of iterations =  2.0

     negative rho (up, down):  1.745E-05 0.000E+00

     total cpu time spent up to now is      323.3 secs

     total energy              =   -2246.41285147 Ry
     estimated scf accuracy    <       0.00020089 Ry

     iteration #  7     ecut=    80.00 Ry     beta= 0.70
     Davidson diagonalization with overlap
     ethr =  6.44E-08,  avg # of iterations =  4.0

     negative rho (up, down):  3.231E-06 0.000E+00

     total cpu time spent up to now is      332.8 secs

     total energy              =   -2246.41288659 Ry
     estimated scf accuracy    <       0.00002925 Ry

     iteration #  8     ecut=    80.00 Ry     beta= 0.70
     Davidson diagonalization with overlap
     ethr =  9.37E-09,  avg # of iterations =  5.0

     negative rho (up, down):  1.668E-06 0.000E+00

     total cpu time spent up to now is      342.5 secs

     total energy              =   -2246.41290185 Ry
     estimated scf accuracy    <       0.00001952 Ry

     iteration #  9     ecut=    80.00 Ry     beta= 0.70
     Davidson diagonalization with overlap
     ethr =  6.26E-09,  avg # of iterations =  2.0

     negative rho (up, down):  1.076E-05 0.000E+00

     total cpu time spent up to now is      352.7 secs

     total energy              =   -2246.41291278 Ry
     estimated scf accuracy    <       0.00000694 Ry

     iteration # 10     ecut=    80.00 Ry     beta= 0.70
     Davidson diagonalization with overlap
     ethr =  2.22E-09,  avg # of iterations =  5.0

     negative rho (up, down):  2.191E-05 0.000E+00

     total cpu time spent up to now is      361.8 secs

     total energy              =   -2246.41291618 Ry
     estimated scf accuracy    <       0.00000254 Ry

     iteration # 11     ecut=    80.00 Ry     beta= 0.70
     Davidson diagonalization with overlap
     ethr =  8.15E-10,  avg # of iterations =  4.0

     negative rho (up, down):  1.753E-04 0.000E+00

     total cpu time spent up to now is      365.1 secs

     End of self-consistent calculation

          k = 0.0000 0.0000 0.0000 (105382 PWs)   bands (ev):

   -63.0440 -63.0389 -63.0199 -63.0103 -62.9972 -62.9927 -62.9912 -62.9752
   -62.9676 -62.9514 -62.9180 -62.8844 -37.4032 -37.3417 -37.3122 -37.3040
   -37.2948 -37.2789 -37.2481 -37.2449 -37.2347 -37.2262 -37.2179 -37.2054
   -37.2014 -37.1902 -37.1833 -37.1808 -37.1716 -37.1697 -37.1619 -37.1532
   -37.1351 -37.1331 -37.1284 -37.1034 -37.0876 -37.0840 -37.0794 -37.0691
   -37.0626 -37.0451 -37.0302 -37.0208 -36.9968 -36.9661 -36.9428 -36.8834
   -21.6108 -16.1097 -15.3374 -15.2806 -15.0992 -15.0546 -14.9363 -14.6449
   -14.6193 -14.5728 -14.5647 -14.5271 -14.4804 -14.4461 -14.4061 -14.2877
   -14.2702 -14.2474 -14.2129 -14.1370 -14.0331 -13.9970 -13.9752 -13.9345
    -8.0489  -7.8670  -7.7427  -7.6239  -7.4416  -7.4207  -7.3678  -7.3492
    -7.2791  -7.0843  -7.0281  -6.9734  -6.8964  -6.8095  -6.7131  -6.6593
    -6.5761  -6.5634  -6.4359  -6.4164  -6.2130  -6.1937  -6.0600  -5.9731
    -5.9358  -5.9234  -5.9020  -5.8982  -5.8289  -5.8010  -5.7505  -5.7142
    -5.6983  -5.6518  -5.6226  -5.4008  -5.3532  -5.2638  -5.1721  -5.1608
    -5.1174  -5.0627  -5.0538  -4.8997  -4.8516  -4.7078  -4.4900  -4.4520
    -4.4203  -4.3120  -4.2563  -4.2333  -4.1834  -4.0916  -4.0157  -3.9369
    -3.9152  -3.8486  -3.7778  -3.7351  -3.7036  -3.6576  -3.6381  -3.6139
    -3.5795  -3.5483  -3.4439  -3.3501  -3.2438  -3.1924  -3.0448  -2.9972
    -2.9838  -2.9543  -2.8839  -2.8653  -2.8187  -2.7639  -2.6734  -2.6357
    -2.3806  -2.1764  -2.1433  -2.0524  -1.0021  -0.9195  -0.3659  -0.3402
    -0.2500  -0.2286  -0.1334  -0.0268   0.0318   0.0757   0.1003   0.1154
     0.1716   0.2314   0.2710   0.3540   0.3843   0.4194   0.4316   0.5055
     0.5655   0.5946   0.6199   0.6508   0.6686   0.7329   0.7756   0.7999
     0.8677   0.9732   1.0979

     the Fermi energy is    -1.5273 ev

!    total energy              =   -2246.41291961 Ry
     estimated scf accuracy    <       0.00000064 Ry
     smearing contrib. (-TS)   =      -0.00000000 Ry
     internal energy E=F+TS    =   -2246.41291961 Ry

     The total energy is F=E-TS. E is the sum of the following terms:
     one-electron contribution =  -18421.42414524 Ry
     hartree contribution      =    9197.87671138 Ry
     xc contribution           =    -392.09989488 Ry
     ewald contribution        =    7379.09520750 Ry
     one-center paw contrib.   =      -9.86079837 Ry

     convergence has been achieved in  11 iterations

     negative rho (up, down):  1.753E-04 0.000E+00

     Forces acting on atoms (cartesian axes, Ry/au):

     atom    1 type  1   force =     0.00968371   -0.02079604    0.00413749
     atom    2 type  2   force =    -0.01309749    0.01448273   -0.00078151
     atom    3 type  2   force =    -0.01129655    0.00840253   -0.00419203
     atom    4 type  1   force =     0.00461247    0.00295444   -0.00131235
     atom    5 type  2   force =    -0.00121642   -0.00659880   -0.00648858
     atom    6 type  2   force =     0.00106525    0.00913638   -0.00005359
     atom    7 type  1   force =     0.00831740   -0.01549401   -0.00580668
     atom    8 type  2   force =    -0.00411341   -0.00317140    0.01500540
     atom    9 type  2   force =     0.01050966    0.00360122    0.01032573
     atom   10 type  1   force =    -0.00680818    0.00555440   -0.02161184
     atom   11 type  2   force =     0.00350653   -0.00075392   -0.00720926
     atom   12 type  2   force =    -0.00342947    0.00110779    0.00571988
     atom   13 type  1   force =     0.00615571    0.00554136   -0.00575581
     atom   14 type  2   force =     0.00724852   -0.00066114    0.01186876
     atom   15 type  2   force =    -0.01068144    0.00291107   -0.00760249
     atom   16 type  1   force =    -0.00015704    0.01182119    0.00623828
     atom   17 type  2   force =     0.00277463    0.00334141    0.00303682
     atom   18 type  2   force =     0.00103052   -0.00694367    0.01081782
     atom   19 type  1   force =     0.02717203    0.00944416   -0.02788234
     atom   20 type  2   force =     0.00413661   -0.00708819   -0.00097492
     atom   21 type  1   force =    -0.00518927    0.00395748   -0.00264538
     atom   22 type  2   force =    -0.00398121   -0.00505754    0.00224414
     atom   23 type  2   force =    -0.00052079    0.00370164    0.00810725
     atom   24 type  1   force =    -0.00973287    0.00012129   -0.01749428
     atom   25 type  2   force =     0.01466939    0.01645620    0.00544751
     atom   26 type  2   force =    -0.01013221   -0.00076322   -0.00403677
     atom   27 type  1   force =    -0.00219732   -0.02617892   -0.02243358
     atom   28 type  2   force =     0.00309341    0.00025650   -0.00219701
     atom   29 type  2   force =    -0.00085572   -0.00147738   -0.00404009
     atom   30 type  1   force =    -0.03437632    0.02175418   -0.01100821
     atom   31 type  2   force =     0.03885795   -0.03940780    0.13690859
     atom   32 type  2   force =    -0.00906555    0.00601999    0.00366634
     atom   33 type  1   force =     0.01239545   -0.00487175   -0.00620559
     atom   34 type  2   force =     0.00326056   -0.03652869   -0.00944574
     atom   35 type  2   force =    -0.00513580    0.01058224    0.01221196
     atom   36 type  3   force =    -0.02650272    0.03464426   -0.06655794
     The non-local contrib.  to forces
     atom    1 type  1   force =    -0.00007172    0.03351708   -0.01229358
     atom    2 type  2   force =    -0.00858994   -0.00184104   -0.27581515
     atom    3 type  2   force =    -0.01378483   -0.00359158    0.26925275
     atom    4 type  1   force =     0.00153611    0.00376758    0.00475643
     atom    5 type  2   force =     0.00487170   -0.03322590   -0.25777875
     atom    6 type  2   force =    -0.00225398    0.01216566    0.26528364
     atom    7 type  1   force =    -0.02437063    0.00483477   -0.02487043
[...]
     atom   28 type  2   force =     0.00039365   -0.01116805   -0.27818461
     atom   29 type  2   force =     0.00095689   -0.00737676    0.26740888
     atom   30 type  1   force =     0.00540608    0.00314605    0.01948548
     atom   31 type  2   force =     0.00344675   -0.03407993    0.29991263
     atom   32 type  2   force =     0.00916439   -0.01366321    0.28066538
     atom   33 type  1   force =    -0.00093354    0.00453439    0.00068766
     atom   34 type  2   force =    -0.00044855   -0.00825451   -0.27745810
     atom   35 type  2   force =    -0.00054938   -0.01570975    0.26440078
     atom   36 type  3   force =    -0.07082008    0.05586993   -2.30785465
     The ionic contribution  to forces
     atom    1 type  1   force =    -0.08316582    0.51624799    2.14204411
     atom    2 type  2   force =    -0.29155822    0.09763885   38.74050445
     atom    3 type  2   force =     0.01892802   -0.05775175  -37.77425726
     atom    4 type  1   force =    -0.60770984   -0.33434451   -0.85553189
     atom    5 type  2   force =    -0.77708536    0.82849600   38.03205656
     atom    6 type  2   force =     0.21688220   -0.55080301  -38.44385043
     atom    7 type  1   force =    -2.53660318   -1.58472415    0.81377777
     atom    8 type  2   force =    -1.99805470    0.02618142   37.62505098
     atom    9 type  2   force =     0.32022873   -0.02862536  -38.70274439
     atom   10 type  1   force =    -0.74452320    0.25656205    2.38872836
     atom   11 type  2   force =    -0.41748654   -1.09361812   38.29777177
     atom   12 type  2   force =     0.27180994    0.53771309  -38.40286835
     atom   13 type  1   force =     0.30262642    0.20176653    1.88557501
     atom   14 type  2   force =     0.11507743   -0.03654366   38.50099281
     atom   15 type  2   force =     0.05176084   -0.09877547  -37.85298312
     atom   16 type  1   force =     0.55380292    2.65877539    0.17702226
     atom   17 type  2   force =     1.48557905    0.06001460   37.52870065
     atom   18 type  2   force =    -0.09108663   -0.54919935  -38.77042259
     atom   19 type  1   force =     3.36592352   -1.37710258   -2.56890693
     atom   20 type  2   force =     0.10076083   -0.10759873  -39.69338961
     atom   21 type  1   force =     0.34872446    0.48448727    0.11429540
     atom   22 type  2   force =     1.05749954   -0.30647289   37.92007990
     atom   23 type  2   force =    -0.24175395    0.63619490  -38.76008458
     atom   24 type  1   force =    -0.20865338   -0.10853625    1.67711463
     atom   25 type  2   force =     0.16697145    0.07362250   38.60802678
     atom   26 type  2   force =    -0.08288892   -0.06229720  -37.75575744
     atom   27 type  1   force =     0.03228958   -1.00456212   -4.16690973
     atom   28 type  2   force =    -0.62995316   -0.45380168   37.49136443
     atom   29 type  2   force =    -0.12667575   -0.29816461  -38.42164960
     atom   30 type  1   force =    -1.06895371    0.00346871   -1.43515188
     atom   31 type  2   force =     0.97400392    0.27082288   27.90957522
     atom   32 type  2   force =    -0.38820543    0.02930264  -38.68470464
     atom   33 type  1   force =     0.42132032    0.65286622    2.16989334
     atom   34 type  2   force =    -0.55296651    0.56649313   38.44142920
     atom   35 type  2   force =    -0.04186881    0.38175832  -38.12119790
     atom   36 type  3   force =     1.08500395   -0.22949105   49.94640672
     The local contribution  to forces
     atom    1 type  1   force =     0.08583276   -0.54245030   -2.13403985
     atom    2 type  2   force =     0.29039921   -0.08587554  -38.49184016
     atom    3 type  2   force =    -0.01608741    0.06709293   37.52853754
     atom    4 type  1   force =     0.60200332    0.32695188    0.85256141
     atom    5 type  2   force =     0.77501995   -0.80694981  -37.79509405
     atom    6 type  2   force =    -0.21675064    0.55173145   38.19613170
     atom    7 type  1   force =     2.55205951    1.57892045   -0.78818936
     atom    8 type  2   force =     1.98949559   -0.02645647  -37.37761861
     atom    9 type  2   force =    -0.31193148    0.04182838   38.45971364
     atom   10 type  1   force =     0.74467267   -0.26355242   -2.39311134
     atom   11 type  2   force =     0.41056386    1.09550549  -38.05515362
     atom   12 type  2   force =    -0.26326714   -0.52328928   38.15981302
     atom   13 type  1   force =    -0.30660210   -0.22608233   -1.87931746
     atom   14 type  2   force =    -0.11332220    0.04675727  -38.25058711
     atom   15 type  2   force =    -0.05163123    0.10814450   37.60980948
     atom   16 type  1   force =    -0.55394632   -2.68993778   -0.13826056
     atom   17 type  2   force =    -1.48356902   -0.03789210  -37.28848540
     atom   18 type  2   force =     0.09070175    0.55035994   38.52300128
     atom   19 type  1   force =    -3.37365565    1.38658766    2.57333792
     atom   20 type  2   force =    -0.10120079    0.11813105   39.45331841
     atom   21 type  1   force =    -0.34974501   -0.51033388   -0.11838878
     atom   22 type  2   force =    -1.05270520    0.30866265  -37.67663091
     atom   23 type  2   force =     0.23313257   -0.62054354   38.51866837
     atom   24 type  1   force =     0.21278812    0.09587220   -1.67572182
     atom   25 type  2   force =    -0.16802100   -0.06278807  -38.35898182
     atom   26 type  2   force =     0.08016786    0.07154472   37.50859490
     atom   27 type  1   force =    -0.03016611    0.98159807    4.14356167
     atom   28 type  2   force =     0.62931619    0.46428176  -37.23433295
     atom   29 type  2   force =     0.12508615    0.30512519   38.17536560
     atom   30 type  1   force =     1.06223316   -0.00625872    1.41550412
     atom   31 type  2   force =    -0.97835851   -0.23755172  -28.19698102
     atom   32 type  2   force =     0.38126773   -0.01694137   38.42480958
     atom   33 type  1   force =    -0.41993301   -0.65743521   -2.17100893
     atom   34 type  2   force =     0.55380855   -0.55867087  -38.18641695
     atom   35 type  2   force =     0.04213243   -0.36795438   37.87838097
     atom   36 type  3   force =    -1.01599092    0.17423139  -47.66367398
     The core correction contribution to forces
     atom    1 type  1   force =     0.00000000    0.00000000    0.00000000
     atom    2 type  2   force =    -0.00012548    0.00058143    0.02101063
     atom    3 type  2   force =     0.00014266    0.00036508   -0.02090566
     atom    4 type  1   force =     0.00000000    0.00000000    0.00000000
     atom    5 type  2   force =    -0.00033212    0.00106362    0.02053770
     atom    6 type  2   force =     0.00019158   -0.00047979   -0.02095950
     atom    7 type  1   force =     0.00000000    0.00000000    0.00000000
     atom    8 type  2   force =    -0.00046810    0.00020245    0.02121514
     atom    9 type  2   force =     0.00077325    0.00065810   -0.02075287
     atom   10 type  1   force =     0.00000000    0.00000000    0.00000000
     atom   11 type  2   force =    -0.00022306   -0.00022179    0.02085927
     atom   12 type  2   force =     0.00078303    0.00108470   -0.02081678
     atom   13 type  1   force =     0.00000000    0.00000000    0.00000000
     atom   14 type  2   force =     0.00004151    0.00012639    0.02108374
     atom   15 type  2   force =    -0.00003127    0.00044999   -0.02072858
     atom   16 type  1   force =     0.00000000    0.00000000    0.00000000
     atom   17 type  2   force =     0.00030955    0.00120420    0.02083505
     atom   18 type  2   force =    -0.00009935   -0.00042468   -0.02093600
     atom   19 type  1   force =     0.00000000    0.00000000    0.00000000
     atom   20 type  2   force =     0.00010836    0.00042545   -0.02111280
     atom   21 type  1   force =     0.00000000    0.00000000    0.00000000
     atom   22 type  2   force =     0.00009767   -0.00025867    0.02102617
     atom   23 type  2   force =    -0.00079742    0.00125437   -0.02080562
     atom   24 type  1   force =     0.00000000    0.00000000    0.00000000
     atom   25 type  2   force =    -0.00004372    0.00054260    0.02098871
     atom   26 type  2   force =    -0.00020570    0.00030772   -0.02094460
     atom   27 type  1   force =     0.00000000    0.00000000    0.00000000
     atom   28 type  2   force =     0.00001082    0.00084290    0.02147592
     atom   29 type  2   force =    -0.00012113    0.00015881   -0.02080952
     atom   30 type  1   force =     0.00000000    0.00000000    0.00000000
     atom   31 type  2   force =    -0.00009773    0.00189637   -0.00987722
     atom   32 type  2   force =    -0.00080513    0.00077629   -0.02141156
     atom   33 type  1   force =     0.00000000    0.00000000    0.00000000
     atom   34 type  2   force =     0.00005345    0.00030390    0.02153732
     atom   35 type  2   force =     0.00006996    0.00095847   -0.02085438
     atom   36 type  3   force =     0.00076779   -0.00057491    0.02444512
     The Hubbard contrib.    to forces
     atom    1 type  1   force =     0.00000000    0.00000000    0.00000000
     atom    2 type  2   force =     0.00000000    0.00000000    0.00000000
     atom    3 type  2   force =     0.00000000    0.00000000    0.00000000
     atom    4 type  1   force =     0.00000000    0.00000000    0.00000000
     atom    5 type  2   force =     0.00000000    0.00000000    0.00000000
     atom    6 type  2   force =     0.00000000    0.00000000    0.00000000
     atom    7 type  1   force =     0.00000000    0.00000000    0.00000000
     atom    8 type  2   force =     0.00000000    0.00000000    0.00000000
     atom    9 type  2   force =     0.00000000    0.00000000    0.00000000
     atom   10 type  1   force =     0.00000000    0.00000000    0.00000000
     atom   11 type  2   force =     0.00000000    0.00000000    0.00000000
     atom   12 type  2   force =     0.00000000    0.00000000    0.00000000
     atom   13 type  1   force =     0.00000000    0.00000000    0.00000000
     atom   14 type  2   force =     0.00000000    0.00000000    0.00000000
     atom   15 type  2   force =     0.00000000    0.00000000    0.00000000
     atom   16 type  1   force =     0.00000000    0.00000000    0.00000000
     atom   17 type  2   force =     0.00000000    0.00000000    0.00000000
     atom   18 type  2   force =     0.00000000    0.00000000    0.00000000
     atom   19 type  1   force =     0.00000000    0.00000000    0.00000000
     atom   20 type  2   force =     0.00000000    0.00000000    0.00000000
     atom   21 type  1   force =     0.00000000    0.00000000    0.00000000
     atom   22 type  2   force =     0.00000000    0.00000000    0.00000000
     atom   23 type  2   force =     0.00000000    0.00000000    0.00000000
     atom   24 type  1   force =     0.00000000    0.00000000    0.00000000
     atom   25 type  2   force =     0.00000000    0.00000000    0.00000000
     atom   26 type  2   force =     0.00000000    0.00000000    0.00000000
     atom   27 type  1   force =     0.00000000    0.00000000    0.00000000
     atom   28 type  2   force =     0.00000000    0.00000000    0.00000000
     atom   29 type  2   force =     0.00000000    0.00000000    0.00000000
     atom   30 type  1   force =     0.00000000    0.00000000    0.00000000
     atom   31 type  2   force =     0.00000000    0.00000000    0.00000000
     atom   32 type  2   force =     0.00000000    0.00000000    0.00000000
     atom   33 type  1   force =     0.00000000    0.00000000    0.00000000
     atom   34 type  2   force =     0.00000000    0.00000000    0.00000000
     atom   35 type  2   force =     0.00000000    0.00000000    0.00000000
     atom   36 type  3   force =     0.00000000    0.00000000    0.00000000
     The SCF correction term to forces
     atom    1 type  1   force =    -0.00000474   -0.00000504    0.00000141
     atom    2 type  2   force =    -0.00000753   -0.00000078   -0.00001002
     atom    3 type  2   force =    -0.00000433    0.00000497    0.00000586
     atom    4 type  1   force =    -0.00001065   -0.00000579   -0.00002418
     atom    5 type  2   force =    -0.00000644   -0.00000158   -0.00001254
     atom    6 type  2   force =    -0.00000288    0.00000249    0.00000523
     atom    7 type  1   force =    -0.00002152   -0.00000111   -0.00001094
     atom    8 type  2   force =    -0.00001452    0.00000208   -0.00001756
     atom    9 type  2   force =    -0.00000442   -0.00000553    0.00000428
     atom   10 type  1   force =    -0.00001549    0.00000323    0.00000841
     atom   11 type  2   force =    -0.00000198    0.00000264   -0.00001064
     atom   12 type  2   force =    -0.00000690   -0.00000235    0.00000633
     atom   13 type  1   force =     0.00000853    0.00000455   -0.00000766
     atom   14 type  2   force =     0.00000171    0.00000179   -0.00000841
     atom   15 type  2   force =    -0.00000161    0.00000356    0.00000574
     atom   16 type  1   force =    -0.00000192   -0.00000234   -0.00001513
     atom   17 type  2   force =     0.00000443   -0.00000443   -0.00001606
     atom   18 type  2   force =    -0.00000237    0.00000353    0.00000379
     atom   19 type  1   force =     0.00002736    0.00000139   -0.00003206
     atom   20 type  2   force =    -0.00000418    0.00000196    0.00000510
     atom   21 type  1   force =     0.00000357   -0.00000035   -0.00000259
     atom   22 type  2   force =     0.00000997    0.00000419   -0.00001660
     atom   23 type  2   force =     0.00000503   -0.00000716    0.00000096
     atom   24 type  1   force =     0.00000365    0.00000471   -0.00001071
     atom   25 type  2   force =     0.00000235    0.00000242   -0.00000812
     atom   26 type  2   force =     0.00000435    0.00000771    0.00000116
     atom   27 type  1   force =     0.00001394   -0.00001667   -0.00003826
     atom   28 type  2   force =     0.00000076   -0.00000841   -0.00002091
     atom   29 type  2   force =     0.00000449    0.00000320    0.00000156
     atom   30 type  1   force =    -0.00001756    0.00000483   -0.00002468
     atom   31 type  2   force =     0.00001418   -0.00000742   -0.00002076
     atom   32 type  2   force =     0.00001158   -0.00000942   -0.00000794
     atom   33 type  1   force =     0.00001107    0.00000596   -0.00000722
     atom   34 type  2   force =    -0.00000843    0.00001205   -0.00001053
     atom   35 type  2   force =     0.00000173   -0.00000142    0.00000376
     atom   36 type  3   force =     0.00003434   -0.00002570   -0.00002450

     Total force =     0.006210     Total SCF correction =     0.000118
     Energy error            =      7.3E-05 Ry
     Gradient error          =      2.6E-03 Ry/Bohr

     bfgs converged in  18 scf cycles and  16 bfgs steps
     (criteria: energy <  1.0E-04 Ry, force <  1.0E-02 Ry/Bohr)

     End of BFGS Geometry Optimization

     Final energy             =   -2246.4506949067 Ry

     File ./MoS2-V-O.bfgs deleted, as requested
Begin final coordinates

ATOMIC_POSITIONS (angstrom)
Mo            6.5607575905        1.7498196706        2.7716563111
S             8.1319539345        0.8478895773        4.3796320184
S             8.1406431734        0.8336716516        1.1915034736
Mo            8.1262898466        4.4909242540        2.7161106039
S             6.5219409848        3.6661152159        4.3119524335
S             6.5602138457        3.5508493627        1.1174910899
Mo            6.5238679188        7.1813659662        2.6642140265
S             8.0687181942        6.3080137373        4.3028649043
S             8.1393795659        6.3131724504        1.1105766523
Mo            8.1473179541        9.9313326856        2.7833411987
S             6.5238132601        8.9436813924        4.3325773564
S             6.5999386046        9.0342174439        1.1328432182
Mo            3.4347866495        1.7540732965        2.7704762440
S             4.9942987505        0.8042903387        4.3585906459
S             4.9973872446        0.8356762505        1.1808478742
Mo            5.0020815954        4.5442453900        2.6568850318
S             3.4684611662        3.6749797126        4.3112698862
S             3.4601384994        3.5445587509        1.1063389967
Mo            3.5061656174        7.1954455247        2.6379019332
S             5.0188295680        6.3051096781        1.0219569827
Mo            4.9990728511        9.8996823583        2.7353544654
S             3.4838275884        8.9185713469        4.3390924844
S             3.4037114313        9.0447922772        1.1191449825
Mo            0.2648483728        1.7421299927        2.7787376813
S             1.8607096007        0.8467842153        4.3791261252
S             1.8504896913        0.8339140276        1.1922586723
Mo            1.8715204725        4.4626202422        2.6909121371
S             0.2784117385        3.6124582785        4.3216356710
S             0.2557202932        3.5394957751        1.1389770578
Mo            0.2463988083        7.2253859767        2.7383915818
S             1.9182934979        6.3118280982        4.1976640142
S             1.8416715413        6.3220126666        1.1198221784
Mo            1.8626903770        9.9257964782        2.7862003277
S             0.2744844100        9.0206600082        4.3835972930
S             0.2773363577        9.0654246356        1.1794369531
O             1.9576782379        6.2715687948        5.6953790301
End final coordinates



     Writing all to output data dir ./MoS2-V-O.save/
 
     init_run     :      4.59s CPU      4.90s WALL (       1 calls)
     electrons    :   1516.28s CPU   1669.58s WALL (      18 calls)
     update_pot   :     51.80s CPU     54.13s WALL (      17 calls)
     forces       :     49.17s CPU     53.00s WALL (      18 calls)

     Called by init_run:
     wfcinit      :      0.50s CPU      0.53s WALL (       1 calls)
     potinit      :      2.34s CPU      2.50s WALL (       1 calls)
     hinit0       :      0.45s CPU      0.47s WALL (       1 calls)

     Called by electrons:
     c_bands      :    227.14s CPU    231.37s WALL (     161 calls)
     sum_band     :     97.36s CPU    108.72s WALL (     161 calls)
     v_of_rho     :    146.50s CPU    167.97s WALL (     168 calls)
     newd         :     50.37s CPU     59.55s WALL (     168 calls)
     PAW_pot      :      6.67s CPU      6.69s WALL (     185 calls)
     mix_rho      :   1006.66s CPU   1113.15s WALL (     161 calls)

     Called by c_bands:
     init_us_2    :      3.85s CPU      3.99s WALL (     340 calls)
     init_us_2:cp :      3.84s CPU      3.99s WALL (     340 calls)
     regterg      :    215.52s CPU    219.58s WALL (     161 calls)

     Called by *egterg:
     rdiaghg      :     13.82s CPU     13.92s WALL (     760 calls)
     h_psi        :    141.32s CPU    142.55s WALL (     789 calls)
     s_psi        :     12.99s CPU     13.03s WALL (     789 calls)
     g_psi        :      0.72s CPU      0.72s WALL (     627 calls)

     Called by h_psi:
     h_psi:calbec :     14.28s CPU     14.36s WALL (     789 calls)
     vloc_psi     :    112.46s CPU    113.52s WALL (     789 calls)
     add_vuspsi   :     12.77s CPU     12.83s WALL (     789 calls)

     General routines
     calbec       :     21.19s CPU     21.30s WALL (    1039 calls)
     fft          :    100.96s CPU    116.67s WALL (   11302 calls)
     ffts         :    450.39s CPU    553.09s WALL (  245661 calls)
     fftw         :     72.63s CPU     73.22s WALL (   97428 calls)
     interpolate  :      2.10s CPU      2.41s WALL (     168 calls)
 
     Parallel routines
 
     PWSCF        :  27m 9.48s CPU  29m51.56s WALL

 
   This run was terminated on:  18:21:44   1Nov2023            

=------------------------------------------------------------------------------=
   JOB DONE.
=------------------------------------------------------------------------------=
