
     Program PWSCF v.7.2 starts on  2Nov2023 at 10:38:22 

     This program is part of the open-source Quantum ESPRESSO suite
     for quantum simulation of materials; please cite
         "P. Giannozzi et al., J. Phys.:Condens. Matter 21 395502 (2009);
         "P. Giannozzi et al., J. Phys.:Condens. Matter 29 465901 (2017);
         "P. Giannozzi et al., J. Chem. Phys. 152 154105 (2020);
          URL http://www.quantum-espresso.org", 
     in publications or presentations arising from this work. More details at
     http://www.quantum-espresso.org/quote

     Parallel version (MPI & OpenMP), running on     384 processor cores
     Number of MPI processes:                48
     Threads/MPI process:                     8

     MPI processes distributed on     3 nodes
     93399 MiB available memory on the printing compute node when the environment starts
 
     Waiting for input...
     Reading input from standard input
Warning: card &CELL ignored
Warning: card CELL_DYNAMICS = 'BFGS', ignored
Warning: card CELL_DOFREE = '2DXY' ignored
Warning: card / ignored

     Current dimensions of program PWSCF are:
     Max number of different atomic species (ntypx) = 10
     Max number of k-points (npk) =  40000
     Max angular momentum in pseudopotentials (lmaxx) =  4
     file O.pbe-n-kjpaw_psl.0.1.UPF: wavefunction(s)  2P renormalized

     IMPORTANT: XC functional enforced from input :
     Exchange-correlation= RVV10
                           (   1   4  13   4  26   0   0)
     Any further DFT definition will be discarded
     Please, verify this is what you really want


     gamma-point specific algorithms are used
     signal trapping enabled: kill the code with -SIGUSR1 to stop cleanly the simulation 
 
     R & G space division:  proc/nbgrp/npool/nimage =      48
     Subspace diagonalization in iterative solution of the eigenvalue problem:
     one sub-group per band group will be used
     scalapack distributed-memory algorithm (size of sub-group:  2*  2 procs)

 
     Parallelization info
     --------------------
     sticks:   dense  smooth     PW     G-vecs:    dense   smooth      PW
     Min         396     194     47               101632    35090    4376
     Max         398     196     50               101674    35128    4410
     Sum       19091    9389   2349              4879585  1685513  210763
 
     Using Slab Decomposition
 


     bravais-lattice index     =            0
     lattice parameter (alat)  =      17.8707  a.u.
     unit-cell volume          =   17436.2743 (a.u.)^3
     number of atoms/cell      =           36
     number of atomic types    =            3
     number of electrons       =       312.00
     number of Kohn-Sham states=          187
     kinetic-energy cutoff     =      80.0000  Ry
     charge density cutoff     =     650.0000  Ry
     scf convergence threshold =      1.0E-06
     mixing beta               =       0.7000
     number of iterations used =            8  local-TF  mixing
     energy convergence thresh.=      1.0E-04
     force convergence thresh. =      1.0E-02
     Exchange-correlation= RVV10
                           (   1   4  13   4  26   0   0)
     nstep                     =          200


     celldm(1)=  17.870686  celldm(2)=   0.000000  celldm(3)=   0.000000
     celldm(4)=   0.000000  celldm(5)=   0.000000  celldm(6)=   0.000000

     crystal axes: (cart. coord. in units of alat)
               a(1) = (   1.000000   0.000000   0.000000 )  
               a(2) = (   0.000000   1.155671   0.000000 )  
               a(3) = (   0.000000   0.000000   2.643601 )  

     reciprocal axes: (cart. coord. in units 2 pi/alat)
               b(1) = (  1.000000  0.000000  0.000000 )  
               b(2) = (  0.000000  0.865298  0.000000 )  
               b(3) = (  0.000000  0.000000  0.378272 )  


     PseudoPot. # 1 for Mo read from file:
     ../pseudo/Mo_ONCV_PBE-1.0.oncvpsp.upf
     MD5 check sum: 1b5d28e075c9ccadda658a603575cd1f
     Pseudo is Norm-conserving, Zval = 14.0
     Generated using ONCVPSP code by D. R. Hamann
     Using radial grid of 1526 points,  6 beta functions with: 
                l(1) =   0
                l(2) =   0
                l(3) =   1
                l(4) =   1
                l(5) =   2
                l(6) =   2

     PseudoPot. # 2 for S  read from file:
     ../pseudo/s_pbe_v1.4.uspp.F.UPF
     MD5 check sum: 88d86576ff6df21479756cfb9bdac1df
     Pseudo is Ultrasoft + core correction, Zval =  6.0
     Generated by new atomic code, or converted to UPF format
     Using radial grid of  907 points,  6 beta functions with: 
                l(1) =   0
                l(2) =   0
                l(3) =   1
                l(4) =   1
                l(5) =   2
                l(6) =   2
     Q(r) pseudized with  8 coefficients,  rinner =    1.300   1.300   1.300
                                                       1.300   1.300

     PseudoPot. # 3 for O  read from file:
     ../pseudo/O.pbe-n-kjpaw_psl.0.1.UPF
     MD5 check sum: 0234752ac141de4415c5fc33072bef88
     Pseudo is Projector augmented-wave + core cor, Zval =  6.0
     Generated using "atomic" code by A. Dal Corso  v.5.0.99 svn rev. 10869
     Shape of augmentation charge: BESSEL
     Using radial grid of 1095 points,  4 beta functions with: 
                l(1) =   0
                l(2) =   0
                l(3) =   1
                l(4) =   1
     Q(r) pseudized with 0 coefficients 


     atomic species   valence    mass     pseudopotential
        Mo            14.00    95.94000     Mo( 1.00)
        S              6.00    32.06500     S ( 1.00)
        O              6.00    15.99940     O ( 1.00)

     No symmetry found



   Cartesian axes

     site n.     atom                  positions (alat units)
         1           Mo  tau(   1) = (   0.6952221   0.1890506   0.2985846  )
         2           S   tau(   2) = (   0.8646417   0.0856217   0.4689279  )
         3           S   tau(   3) = (   0.8663890   0.0857843   0.1351291  )
         4           Mo  tau(   4) = (   0.8560186   0.4753274   0.2873942  )
         5           S   tau(   5) = (   0.6873294   0.3936244   0.4596353  )
         6           S   tau(   6) = (   0.6929804   0.3713468   0.1185692  )
         7           Mo  tau(   7) = (   0.6862796   0.7633098   0.2825370  )
         8           S   tau(   8) = (   0.8545980   0.6708292   0.4486168  )
         9           S   tau(   9) = (   0.8545123   0.6666874   0.1146125  )
        10           Mo  tau(  10) = (   0.8629403   1.0471007   0.3006803  )
        11           S   tau(  11) = (   0.6868280   0.9456650   0.4634891  )
        12           S   tau(  12) = (   0.6998113   0.9568511   0.1205389  )
        13           Mo  tau(  13) = (   0.3618216   0.1847309   0.2935964  )
        14           S   tau(  14) = (   0.5260962   0.0863870   0.4600448  )
        15           S   tau(  15) = (   0.5348379   0.0894875   0.1297123  )
        16           Mo  tau(  16) = (   0.5265817   0.4772436   0.2784130  )
        17           S   tau(  17) = (   0.3624753   0.3882513   0.4525556  )
        18           S   tau(  18) = (   0.3635411   0.3752055   0.1119148  )
        19           Mo  tau(  19) = (   0.3652268   0.7630864   0.2781795  )
        20           S   tau(  20) = (   0.5269494   0.6690381   0.1096838  )
        21           Mo  tau(  21) = (   0.5300192   1.0470394   0.2900995  )
        22           S   tau(  22) = (   0.3670346   0.9457522   0.4574073  )
        23           S   tau(  23) = (   0.3604225   0.9585725   0.1159032  )
        24           Mo  tau(  24) = (   0.0313099   0.1847895   0.3013130  )
        25           S   tau(  25) = (   0.1956761   0.0838230   0.4650863  )
        26           S   tau(  26) = (   0.1967693   0.0903508   0.1278874  )
        27           Mo  tau(  27) = (   0.1967578   0.4753919   0.2813011  )
        28           S   tau(  28) = (   0.0287851   0.3864324   0.4586755  )
        29           S   tau(  29) = (   0.0244514   0.3729871   0.1239344  )
        30           Mo  tau(  30) = (   0.0286728   0.7631204   0.2856894  )
        31           S   tau(  31) = (   0.2011512   0.6675435   0.4465001  )
        32           S   tau(  32) = (   0.1969214   0.6672839   0.1104564  )
        33           Mo  tau(  33) = (   0.1950294   1.0511147   0.2932237  )
        34           S   tau(  34) = (   0.0312912   0.9612169   0.4667423  )
        35           S   tau(  35) = (   0.0292670   0.9563028   0.1216485  )
        36           O   tau(  36) = (   0.0000000   0.0000000   0.5650415  )

     number of k points=     1  Gaussian smearing, width (Ry)=  0.0100
                       cart. coord. in units 2pi/alat
        k(    1) = (   0.0000000   0.0000000   0.0000000), wk =   2.0000000

     Dense  grid:  2439793 G-vectors     FFT dimensions: ( 150, 180, 384)

     Smooth grid:   842757 G-vectors     FFT dimensions: ( 108, 120, 270)

     Estimated max dynamical RAM per process >     269.22 MB

     Estimated total dynamical RAM >      12.62 GB

     Initial potential from superposition of free atoms

     starting charge     311.9873, renormalised to     312.0000

     negative rho (up, down):  2.752E-04 0.000E+00


---------------------------------------------------------------------------------
Carrying out rVV10 run using the following parameters:
Nqs =      20    Nr_points =    1024   r_max =   100.000
b_value =  6.30000    beta =  0.00901
     q_mesh =  0.00010000  0.00030000  0.00058939  0.00100810
               0.00161396  0.00249058  0.00375900  0.00559430
               0.00824984  0.01209221  0.01765183  0.02569619
               0.03733578  0.05417739  0.07854596  0.11380545
               0.16482331  0.23864234  0.34545298  0.50000000

Gradients computed in Reciprocal space

---------------------------------------------------------------------------------


     Starting wfcs are  216 randomized atomic wfcs
     Checking if some PAW data can be deallocated... 

     total cpu time spent up to now is       64.3 secs

     Self-consistent Calculation

     iteration #  1     ecut=    80.00 Ry     beta= 0.70
     Davidson diagonalization with overlap
     ethr =  1.00E-02,  avg # of iterations =  2.0

     Threshold (ethr) on eigenvalues was too large:
     Diagonalizing with lowered threshold

     Davidson diagonalization with overlap
     ethr =  4.37E-04,  avg # of iterations =  3.0

     negative rho (up, down):  3.543E-08 0.000E+00

     total cpu time spent up to now is      831.1 secs

     total energy              =   -2246.17754341 Ry
     estimated scf accuracy    <       1.62465610 Ry

     iteration #  2     ecut=    80.00 Ry     beta= 0.70
     Davidson diagonalization with overlap
     ethr =  5.21E-04,  avg # of iterations =  4.0

     total cpu time spent up to now is      973.6 secs

     total energy              =   -2246.17060730 Ry
     estimated scf accuracy    <       0.66371512 Ry

     iteration #  3     ecut=    80.00 Ry     beta= 0.70
     Davidson diagonalization with overlap
     ethr =  2.13E-04,  avg # of iterations =  5.0

     total cpu time spent up to now is     1051.8 secs

     total energy              =   -2246.15724251 Ry
     estimated scf accuracy    <       0.21211156 Ry

     iteration #  4     ecut=    80.00 Ry     beta= 0.70
     Davidson diagonalization with overlap
     c_bands:  1 eigenvalues not converged
     ethr =  6.80E-05,  avg # of iterations = 20.0

     total cpu time spent up to now is     1128.0 secs

     total energy              =   -2246.19657784 Ry
     estimated scf accuracy    <       0.03206146 Ry

     iteration #  5     ecut=    80.00 Ry     beta= 0.70
     Davidson diagonalization with overlap
     ethr =  1.03E-05,  avg # of iterations =  9.0

     total cpu time spent up to now is     1193.1 secs

     total energy              =   -2246.19763324 Ry
     estimated scf accuracy    <       0.01786490 Ry

     iteration #  6     ecut=    80.00 Ry     beta= 0.70
     Davidson diagonalization with overlap
     ethr =  5.73E-06,  avg # of iterations =  2.0

     total cpu time spent up to now is     1252.9 secs

     total energy              =   -2246.19663813 Ry
     estimated scf accuracy    <       0.01212455 Ry

     iteration #  7     ecut=    80.00 Ry     beta= 0.70
     Davidson diagonalization with overlap
     ethr =  3.89E-06,  avg # of iterations =  2.0

     total cpu time spent up to now is     1315.1 secs

     total energy              =   -2246.19561697 Ry
     estimated scf accuracy    <       0.00707185 Ry

     iteration #  8     ecut=    80.00 Ry     beta= 0.70
     Davidson diagonalization with overlap
     ethr =  2.27E-06,  avg # of iterations = 14.0

     negative rho (up, down):  3.438E-03 0.000E+00

     total cpu time spent up to now is     1572.3 secs

     total energy              =   -2246.19478289 Ry
     estimated scf accuracy    <       0.00393246 Ry

     iteration #  9     ecut=    80.00 Ry     beta= 0.70
     Davidson diagonalization with overlap
     ethr =  1.26E-06,  avg # of iterations =  2.0

     negative rho (up, down):  2.183E-02 0.000E+00

     total cpu time spent up to now is     1899.7 secs

     total energy              =   -2246.19456840 Ry
     estimated scf accuracy    <       0.00219699 Ry

     iteration # 10     ecut=    80.00 Ry     beta= 0.70
     Davidson diagonalization with overlap
     ethr =  7.04E-07,  avg # of iterations =  2.0

     negative rho (up, down):  2.506E-02 0.000E+00

     total cpu time spent up to now is     2182.0 secs

     total energy              =   -2246.19459520 Ry
     estimated scf accuracy    <       0.00099958 Ry

     iteration # 11     ecut=    80.00 Ry     beta= 0.70
     Davidson diagonalization with overlap
     ethr =  3.20E-07,  avg # of iterations =  2.0

     negative rho (up, down):  1.669E-02 0.000E+00

     total cpu time spent up to now is     2490.6 secs

     total energy              =   -2246.19459923 Ry
     estimated scf accuracy    <       0.00020314 Ry

     iteration # 12     ecut=    80.00 Ry     beta= 0.70
     Davidson diagonalization with overlap
     ethr =  6.51E-08,  avg # of iterations =  5.0

     negative rho (up, down):  5.083E-03 0.000E+00

     total cpu time spent up to now is     2830.2 secs

     total energy              =   -2246.19462258 Ry
     estimated scf accuracy    <       0.00004215 Ry

     iteration # 13     ecut=    80.00 Ry     beta= 0.70
     Davidson diagonalization with overlap
     ethr =  1.35E-08,  avg # of iterations =  5.0

     negative rho (up, down):  1.043E-03 0.000E+00

     total cpu time spent up to now is     3251.3 secs

     total energy              =   -2246.19464712 Ry
     estimated scf accuracy    <       0.00000710 Ry

     iteration # 14     ecut=    80.00 Ry     beta= 0.70
     Davidson diagonalization with overlap
     ethr =  2.28E-09,  avg # of iterations =  4.0

     negative rho (up, down):  4.611E-04 0.000E+00

     total cpu time spent up to now is     3832.2 secs

     total energy              =   -2246.19464907 Ry
     estimated scf accuracy    <       0.00000177 Ry

     iteration # 15     ecut=    80.00 Ry     beta= 0.70
     Davidson diagonalization with overlap
     ethr =  5.67E-10,  avg # of iterations =  4.0

     negative rho (up, down):  2.127E-04 0.000E+00

     total cpu time spent up to now is     3878.1 secs

     End of self-consistent calculation

          k = 0.0000 0.0000 0.0000 (105382 PWs)   bands (ev):

   -62.9905 -62.9504 -62.9468 -62.9330 -62.8867 -62.8770 -62.8648 -62.8531
   -62.8346 -62.8248 -62.7751 -62.7254 -37.3153 -37.2701 -37.2317 -37.2228
   -37.1930 -37.1790 -37.1679 -37.1457 -37.1295 -37.1276 -37.1246 -37.1101
   -37.1039 -37.0967 -37.0623 -37.0556 -37.0489 -37.0440 -37.0317 -37.0255
   -37.0221 -37.0090 -37.0072 -36.9980 -36.9884 -36.9717 -36.9559 -36.9478
   -36.9221 -36.9042 -36.8863 -36.8768 -36.8552 -36.8320 -36.8037 -36.7659
   -20.8140 -15.9735 -15.3295 -15.1926 -15.0907 -14.9096 -14.8484 -14.7964
   -14.5563 -14.5333 -14.4827 -14.4482 -14.4205 -14.3558 -14.2882 -14.2319
   -14.1954 -14.1642 -14.1093 -14.0690 -13.9186 -13.8980 -13.8761 -13.8541
    -8.1909  -7.7839  -7.6180  -7.4901  -7.3833  -7.3505  -7.3075  -7.2485
    -7.2164  -7.1465  -6.8878  -6.8699  -6.8208  -6.7202  -6.6859  -6.6164
    -6.5438  -6.4488  -6.4314  -6.3369  -6.1743  -6.0697  -5.9677  -5.9298
    -5.9080  -5.8458  -5.8051  -5.7395  -5.7290  -5.7034  -5.6355  -5.6196
    -5.5641  -5.5038  -5.4380  -5.3835  -5.3331  -5.1708  -5.0977  -5.0594
    -5.0310  -4.9879  -4.9005  -4.7268  -4.6829  -4.5811  -4.4404  -4.4275
    -4.3529  -4.2994  -4.1965  -4.1528  -3.9682  -3.9433  -3.8797  -3.8446
    -3.8064  -3.7719  -3.6993  -3.6572  -3.6122  -3.5957  -3.5214  -3.4947
    -3.4599  -3.4344  -3.2963  -3.2402  -3.0341  -2.9889  -2.9079  -2.8623
    -2.8482  -2.8100  -2.7770  -2.7425  -2.6995  -2.6454  -2.3989  -2.3201
    -2.0560  -1.9709  -1.9400  -1.8326  -1.4282  -0.8390  -0.7709  -0.2300
    -0.1968  -0.1253  -0.0758   0.0596   0.0849   0.1406   0.1537   0.2126
     0.2382   0.3022   0.3633   0.4660   0.4872   0.5028   0.5389   0.5607
     0.6421   0.6905   0.6950   0.7320   0.7847   0.8222   0.8659   0.9080
     0.9685   0.9934   1.2130

     the Fermi energy is    -1.6295 ev

!    total energy              =   -2246.19465136 Ry
     estimated scf accuracy    <       0.00000067 Ry
     smearing contrib. (-TS)   =      -0.00128018 Ry
     internal energy E=F+TS    =   -2246.19337118 Ry

     The total energy is F=E-TS. E is the sum of the following terms:
     one-electron contribution =  -18465.96330757 Ry
     hartree contribution      =    9221.28665454 Ry
     xc contribution           =    -392.03342793 Ry
     ewald contribution        =    7400.38686154 Ry
     one-center paw contrib.   =      -9.87015176 Ry

     convergence has been achieved in  15 iterations

     negative rho (up, down):  2.127E-04 0.000E+00

     Forces acting on atoms (cartesian axes, Ry/au):

     atom    1 type  1   force =    -0.00097431    0.01017366   -0.00613914
     atom    2 type  2   force =     0.08620582   -0.05614095    0.04488942
     atom    3 type  2   force =    -0.01314121    0.00931584   -0.00343612
     atom    4 type  1   force =     0.00452502   -0.00514852   -0.00324481
     atom    5 type  2   force =    -0.00296710   -0.00196522   -0.00520892
     atom    6 type  2   force =     0.00089947    0.00487274   -0.00119884
     atom    7 type  1   force =     0.00376176   -0.01330353   -0.00805374
     atom    8 type  2   force =     0.00093840   -0.00607073    0.01956544
     atom    9 type  2   force =     0.01081719    0.00665120    0.00954413
     atom   10 type  1   force =    -0.02618238   -0.00920718   -0.06133925
     atom   11 type  2   force =     0.00392805   -0.00197648   -0.00572314
     atom   12 type  2   force =    -0.00428697    0.00064369    0.00537737
     atom   13 type  1   force =     0.01319711    0.00474170   -0.01684816
     atom   14 type  2   force =    -0.00058461    0.00038539    0.01006408
     atom   15 type  2   force =    -0.01072918    0.00120931   -0.01115035
     atom   16 type  1   force =    -0.00385185    0.01357506    0.00456611
     atom   17 type  2   force =     0.00683065   -0.00019499    0.00311134
     atom   18 type  2   force =    -0.00116261   -0.00468422    0.01117775
     atom   19 type  1   force =     0.00505848   -0.01117415   -0.00334513
     atom   20 type  2   force =     0.00300886   -0.00377688    0.00164728
     atom   21 type  1   force =    -0.00263068    0.00164344    0.00034845
     atom   22 type  2   force =    -0.00203285   -0.00209920   -0.00254330
     atom   23 type  2   force =     0.00316472    0.00049767    0.00654464
     atom   24 type  1   force =    -0.00495228    0.01374693   -0.04653396
     atom   25 type  2   force =     0.04811133    0.03268463   -0.02114063
     atom   26 type  2   force =    -0.01068228   -0.00084968   -0.00189054
     atom   27 type  1   force =    -0.00284402   -0.00083016    0.00945044
     atom   28 type  2   force =     0.00178796   -0.00049674   -0.00296551
     atom   29 type  2   force =     0.00495473    0.00313681   -0.00257247
     atom   30 type  1   force =     0.00250412   -0.00817054   -0.01937172
     atom   31 type  2   force =    -0.00042219    0.00410085    0.01641413
     atom   32 type  2   force =    -0.00973066    0.00750205    0.00726210
     atom   33 type  1   force =     0.01278077   -0.00210791   -0.01153122
     atom   34 type  2   force =     0.00373299   -0.03123820   -0.01284591
     atom   35 type  2   force =    -0.00782788    0.00736726    0.01655511
     atom   36 type  3   force =    -0.11120436    0.03718705    0.08056509
     The non-local contrib.  to forces
     atom    1 type  1   force =    -0.01034230    0.00608807   -0.01597178
     atom    2 type  2   force =     0.35224131   -0.18691815    0.08580904
     atom    3 type  2   force =    -0.01517834   -0.00140957    0.27131541
     atom    4 type  1   force =     0.00217956    0.01086839    0.00547145
     atom    5 type  2   force =     0.00458824   -0.03116813   -0.25023235
     atom    6 type  2   force =    -0.00471050    0.00611238    0.26752116
     atom    7 type  1   force =    -0.01770367    0.00466742   -0.01927881
     atom    8 type  2   force =     0.00236953   -0.00729219   -0.25202033
     atom    9 type  2   force =     0.00219611   -0.00949769    0.27844382
     atom   10 type  1   force =     0.00524477   -0.00230954    0.01581783
     atom   11 type  2   force =     0.01560346    0.00667516   -0.26162933
     atom   12 type  2   force =    -0.01250764   -0.01793551    0.26454633
     atom   13 type  1   force =    -0.02043532    0.01647208    0.00185584
     atom   14 type  2   force =     0.00265920   -0.01159485   -0.25992518
     atom   15 type  2   force =    -0.01056696   -0.00431612    0.26110269
     atom   16 type  1   force =    -0.00384700    0.03387971   -0.02955860
     atom   17 type  2   force =     0.00110763   -0.02801696   -0.24965545
     atom   18 type  2   force =    -0.00342695    0.00018074    0.27031758
     atom   19 type  1   force =     0.01271362    0.00186817   -0.01269099
     atom   20 type  2   force =     0.00006479   -0.02110377    0.26677723
     atom   21 type  1   force =     0.00045489    0.02645269    0.00736942
     atom   22 type  2   force =    -0.00314784    0.00274492   -0.25987683
     atom   23 type  2   force =     0.00891827   -0.01460557    0.26809339
     atom   24 type  1   force =     0.00846425    0.01688660    0.00569755
     atom   25 type  2   force =    -0.01506146   -0.00634583   -0.25950026
     atom   26 type  2   force =    -0.00360844   -0.01309746    0.25868086
     atom   27 type  1   force =    -0.00126140    0.00569578    0.01274771
     atom   28 type  2   force =    -0.00499025   -0.02821337   -0.27483681
     atom   29 type  2   force =     0.00648919    0.00157222    0.26449018
     atom   30 type  1   force =     0.00505143    0.03877376    0.00791980
     atom   31 type  2   force =    -0.00885395    0.00284255   -0.25129863
     atom   32 type  2   force =    -0.00687527   -0.01263631    0.27600266
     atom   33 type  1   force =    -0.00022183    0.00178889    0.01273305
     atom   34 type  2   force =    -0.00431363    0.11420717   -0.18620945
     atom   35 type  2   force =    -0.00254762   -0.01027437    0.26886535
     atom   36 type  3   force =    -0.78341834    0.42244273   -0.72395792
     The ionic contribution  to forces
     atom    1 type  1   force =    -0.77105649    1.20007867    3.77365971
     atom    2 type  2   force =    -5.20399766    3.31971782   35.92258362
     atom    3 type  2   force =    -0.38535383    0.18074749  -37.22703152
     atom    4 type  1   force =    -0.19326171    1.16683980   -0.55271958
     atom    5 type  2   force =    -1.26676621    1.94354172   38.50078282
     atom    6 type  2   force =     0.25046819   -0.34299158  -38.59295055
     atom    7 type  1   force =    -3.03780697   -3.42975117    1.37876288
     atom    8 type  2   force =    -1.16700804   -0.33580049   37.11274973
     atom    9 type  2   force =     0.28374930   -0.13443791  -38.55737638
     atom   10 type  1   force =    -3.08098621   -1.98329734    1.06688114
     atom   11 type  2   force =    -1.41720497   -2.33294559   38.69246887
     atom   12 type  2   force =     0.27184597    0.51476058  -38.57930515
     atom   13 type  1   force =     1.32310911    1.72944812    1.20486875
     atom   14 type  2   force =    -0.10282816    0.19946785   38.17721678
     atom   15 type  2   force =     0.11122343    0.01100634  -37.47429530
     atom   16 type  1   force =    -0.07392284    4.22884730   -0.46510160
     atom   17 type  2   force =     1.05037623    1.88057566   37.69056949
     atom   18 type  2   force =    -0.08908616   -0.51027619  -39.10543805
     atom   19 type  1   force =     3.04595329   -3.00181663   -0.46974648
     atom   20 type  2   force =     0.21773823   -0.25742631  -38.95252338
     atom   21 type  1   force =    -0.18266639   -0.33419438   -0.33894374
     atom   22 type  2   force =     1.04435914   -2.24814466   38.05746698
     atom   23 type  2   force =     0.04288660    0.51578551  -38.95753871
     atom   24 type  1   force =    -0.12376945    3.76360014    1.51987997
     atom   25 type  2   force =     3.83648704    1.69501951   37.49506008
     atom   26 type  2   force =    -0.04087104    0.20588047  -38.33166022
     atom   27 type  1   force =     0.35205383    0.91835927   -3.42898289
     atom   28 type  2   force =     0.13411194    2.04261105   37.77991822
     atom   29 type  2   force =    -0.24824023   -0.18225068  -37.95637529
     atom   30 type  1   force =    -0.24231727   -2.11743495   -1.68041713
     atom   31 type  2   force =     1.43410487   -0.35855919   37.06682378
     atom   32 type  2   force =    -0.41356880   -0.09573879  -39.17374708
     atom   33 type  1   force =     2.76594462   -2.02383896   -1.51829965
     atom   34 type  2   force =     0.87107653   -5.42694323   37.24291705
     atom   35 type  2   force =    -0.26123683    0.18009640  -38.81595516
     atom   36 type  3   force =     1.26646094   -0.58053562   47.49579800
     The local contribution  to forces
     atom    1 type  1   force =     0.78035819   -1.19608102   -3.76463786
     atom    2 type  2   force =     4.95826555   -3.19982153  -35.96492819
     atom    3 type  2   force =     0.38671269   -0.17001966   36.97290408
     atom    4 type  1   force =     0.19577029   -1.18285023    0.54301965
     atom    5 type  2   force =     1.25984873   -1.91630071  -38.27633256
     atom    6 type  2   force =    -0.24534105    0.34256868   38.34489917
     atom    7 type  1   force =     3.05964267    3.41216317   -1.36862271
     atom    8 type  2   force =     1.16573187    0.33644582  -36.86184977
     atom    9 type  2   force =    -0.27525370    0.15007877   38.30909446
     atom   10 type  1   force =     3.04963741    1.97626922   -1.14469763
     atom   11 type  2   force =     1.40634657    2.32504155  -38.45764552
     atom   12 type  2   force =    -0.26481352   -0.49766374   38.34069890
     atom   13 type  1   force =    -1.28948862   -1.74126868   -1.22450219
     atom   14 type  2   force =     0.09999536   -0.18765841  -37.92806637
     atom   15 type  2   force =    -0.11195568   -0.00582668   37.22222715
     atom   16 type  1   force =     0.07393320   -4.24953700    0.49806325
     atom   17 type  2   force =    -1.04471503   -1.85430800  -37.45840671
     atom   18 type  2   force =     0.09135508    0.50615817   38.86676472
     atom   19 type  1   force =    -3.05397709    2.98910892    0.47791697
     atom   20 type  2   force =    -0.21491669    0.27392453   38.70806466
     atom   21 type  1   force =     0.17961507    0.30941150    0.33101773
     atom   22 type  2   force =    -1.04330114    2.24383026  -37.82108484
     atom   23 type  2   force =    -0.04800568   -0.50196200   38.71649376
     atom   24 type  1   force =     0.11042927   -3.76685582   -1.57278104
     atom   25 type  2   force =    -3.77367670   -1.65587750  -37.27799862
     atom   26 type  2   force =     0.03391174   -0.19433035   38.09139939
     atom   27 type  1   force =    -0.35382720   -0.92491453    3.42462856
     atom   28 type  2   force =    -0.12773357   -2.01700938  -37.52932402
     atom   29 type  2   force =     0.24728852    0.18447192   37.70951931
     atom   30 type  1   force =     0.23974047    2.07068954    1.65216581
     atom   31 type  2   force =    -1.42631977    0.35993646  -36.81990576
     atom   32 type  2   force =     0.41065333    0.11519976   38.92569265
     atom   33 type  1   force =    -2.75304878    2.01989509    1.49324507
     atom   34 type  2   force =    -0.86342182    5.28746278  -37.08665985
     atom   35 type  2   force =     0.25604470   -0.16342476   38.58430098
     atom   36 type  3   force =    -0.60316740    0.20022253  -46.69870833
     The core correction contribution to forces
     atom    1 type  1   force =     0.00000000    0.00000000    0.00000000
     atom    2 type  2   force =    -0.02023077    0.01080545    0.00136875
     atom    3 type  2   force =     0.00071161   -0.00005221   -0.02100760
     atom    4 type  1   force =     0.00000000    0.00000000    0.00000000
     atom    5 type  2   force =    -0.00058683    0.00187576    0.02024509
     atom    6 type  2   force =     0.00042469   -0.00078828   -0.02108699
     atom    7 type  1   force =     0.00000000    0.00000000    0.00000000
     atom    8 type  2   force =    -0.00005053    0.00068989    0.02032039
     atom    9 type  2   force =     0.00018277    0.00057827   -0.02105375
     atom   10 type  1   force =     0.00000000    0.00000000    0.00000000
     atom   11 type  2   force =    -0.00070151   -0.00062927    0.02074896
     atom   12 type  2   force =     0.00120091    0.00143993   -0.02091886
     atom   13 type  1   force =     0.00000000    0.00000000    0.00000000
     atom   14 type  2   force =    -0.00039291    0.00010069    0.02053928
     atom   15 type  2   force =     0.00053841    0.00031817   -0.02055906
     atom   16 type  1   force =     0.00000000    0.00000000    0.00000000
     atom   17 type  2   force =     0.00002015    0.00146161    0.02025414
     atom   18 type  2   force =     0.00001288   -0.00072942   -0.02087524
     atom   19 type  1   force =     0.00000000    0.00000000    0.00000000
     atom   20 type  2   force =     0.00012389    0.00084981   -0.02123524
     atom   21 type  1   force =     0.00000000    0.00000000    0.00000000
     atom   22 type  2   force =    -0.00004016   -0.00041431    0.02061943
     atom   23 type  2   force =    -0.00067554    0.00126722   -0.02088686
     atom   24 type  1   force =     0.00000000    0.00000000    0.00000000
     atom   25 type  2   force =     0.00023298   -0.00018387    0.02106794
     atom   26 type  2   force =    -0.00011415    0.00065931   -0.02065112
     atom   27 type  1   force =     0.00000000    0.00000000    0.00000000
     atom   28 type  2   force =     0.00039493    0.00200041    0.02098570
     atom   29 type  2   force =    -0.00054985   -0.00062270   -0.02061113
     atom   30 type  1   force =     0.00000000    0.00000000    0.00000000
     atom   31 type  2   force =     0.00052110   -0.00003133    0.02042121
     atom   32 type  2   force =     0.00000288    0.00073047   -0.02111798
     atom   33 type  1   force =     0.00000000    0.00000000    0.00000000
     atom   34 type  2   force =     0.00037026   -0.00587192    0.01688310
     atom   35 type  2   force =    -0.00007281    0.00091420   -0.02099133
     atom   36 type  3   force =     0.00889565   -0.00492586    0.00728445
     The Hubbard contrib.    to forces
     atom    1 type  1   force =     0.00000000    0.00000000    0.00000000
     atom    2 type  2   force =     0.00000000    0.00000000    0.00000000
     atom    3 type  2   force =     0.00000000    0.00000000    0.00000000
     atom    4 type  1   force =     0.00000000    0.00000000    0.00000000
     atom    5 type  2   force =     0.00000000    0.00000000    0.00000000
     atom    6 type  2   force =     0.00000000    0.00000000    0.00000000
     atom    7 type  1   force =     0.00000000    0.00000000    0.00000000
     atom    8 type  2   force =     0.00000000    0.00000000    0.00000000
     atom    9 type  2   force =     0.00000000    0.00000000    0.00000000
     atom   10 type  1   force =     0.00000000    0.00000000    0.00000000
     atom   11 type  2   force =     0.00000000    0.00000000    0.00000000
     atom   12 type  2   force =     0.00000000    0.00000000    0.00000000
     atom   13 type  1   force =     0.00000000    0.00000000    0.00000000
     atom   14 type  2   force =     0.00000000    0.00000000    0.00000000
     atom   15 type  2   force =     0.00000000    0.00000000    0.00000000
     atom   16 type  1   force =     0.00000000    0.00000000    0.00000000
     atom   17 type  2   force =     0.00000000    0.00000000    0.00000000
     atom   18 type  2   force =     0.00000000    0.00000000    0.00000000
     atom   19 type  1   force =     0.00000000    0.00000000    0.00000000
     atom   20 type  2   force =     0.00000000    0.00000000    0.00000000
     atom   21 type  1   force =     0.00000000    0.00000000    0.00000000
     atom   22 type  2   force =     0.00000000    0.00000000    0.00000000
     atom   23 type  2   force =     0.00000000    0.00000000    0.00000000
     atom   24 type  1   force =     0.00000000    0.00000000    0.00000000
     atom   25 type  2   force =     0.00000000    0.00000000    0.00000000
     atom   26 type  2   force =     0.00000000    0.00000000    0.00000000
     atom   27 type  1   force =     0.00000000    0.00000000    0.00000000
     atom   28 type  2   force =     0.00000000    0.00000000    0.00000000
     atom   29 type  2   force =     0.00000000    0.00000000    0.00000000
     atom   30 type  1   force =     0.00000000    0.00000000    0.00000000
     atom   31 type  2   force =     0.00000000    0.00000000    0.00000000
     atom   32 type  2   force =     0.00000000    0.00000000    0.00000000
     atom   33 type  1   force =     0.00000000    0.00000000    0.00000000
     atom   34 type  2   force =     0.00000000    0.00000000    0.00000000
     atom   35 type  2   force =     0.00000000    0.00000000    0.00000000
     atom   36 type  3   force =     0.00000000    0.00000000    0.00000000
     The SCF correction term to forces
     atom    1 type  1   force =     0.00006528    0.00008796    0.00079335
     atom    2 type  2   force =    -0.00007361    0.00007548    0.00003876
     atom    3 type  2   force =    -0.00003435    0.00004980    0.00036606
     atom    4 type  1   force =    -0.00016414   -0.00000646    0.00096622
     atom    5 type  2   force =    -0.00005205    0.00008616    0.00031064
     atom    6 type  2   force =     0.00005712   -0.00002844    0.00040093
     atom    7 type  1   force =    -0.00037128   -0.00038294    0.00106745
     atom    8 type  2   force =    -0.00010544   -0.00011375    0.00034798
     atom    9 type  2   force =    -0.00005831   -0.00007021    0.00041854
     atom   10 type  1   force =    -0.00007937    0.00013050    0.00064198
     atom   11 type  2   force =    -0.00011651   -0.00011831    0.00031644
     atom   12 type  2   force =    -0.00001370    0.00004244    0.00033871
     atom   13 type  1   force =     0.00001093    0.00009020    0.00091200
     atom   14 type  2   force =    -0.00001912    0.00007013    0.00028214
     atom   15 type  2   force =     0.00003061    0.00002761    0.00035675
     atom   16 type  1   force =    -0.00001623    0.00038507    0.00114561
     atom   17 type  2   force =     0.00004065    0.00009272    0.00033243
     atom   18 type  2   force =    -0.00001848   -0.00001750    0.00039130
     atom   19 type  1   force =     0.00036764   -0.00033460    0.00115793
     atom   20 type  2   force =    -0.00000238   -0.00002111    0.00054658
     atom   21 type  1   force =    -0.00003527   -0.00002636    0.00088760
     atom   22 type  2   force =     0.00009615   -0.00011540    0.00031452
     atom   23 type  2   force =     0.00004006    0.00001254    0.00036562
     atom   24 type  1   force =    -0.00007737    0.00011603    0.00065212
     atom   25 type  2   force =     0.00012846    0.00007234    0.00021280
     atom   26 type  2   force =    -0.00000139    0.00003836    0.00032311
     atom   27 type  1   force =     0.00018975    0.00002933    0.00103962
     atom   28 type  2   force =     0.00000390    0.00011457    0.00027396
     atom   29 type  2   force =    -0.00003391   -0.00003394    0.00038703
     atom   30 type  1   force =     0.00002848   -0.00019887    0.00094237
     atom   31 type  2   force =     0.00012454   -0.00008762    0.00035610
     atom   32 type  2   force =     0.00005618   -0.00005307    0.00041441
     atom   33 type  1   force =     0.00010574    0.00004709    0.00077287
     atom   34 type  2   force =     0.00002063   -0.00009299    0.00020580
     atom   35 type  2   force =    -0.00001635    0.00005580    0.00031784
     atom   36 type  3   force =     0.00002377   -0.00001672    0.00013146

     Total force =     0.222962     Total SCF correction =     0.003768

     BFGS Geometry Optimization
     Energy error            =      0.0E+00 Ry
     Gradient error          =      1.1E-01 Ry/Bohr

     number of scf cycles    =   1
     number of bfgs steps    =   0

     energy             new  =   -2246.1946513602 Ry

     new trust radius        =       0.1422674263 bohr
     new conv_thr            =       0.0000010000 Ry


ATOMIC_POSITIONS (angstrom)
Mo            6.5740328262        1.7931899011        2.8203943364
S             8.2223274941        0.7799955132        4.4582928098
S             8.1862790577        0.8161714724        1.2760651078
Mo            8.0975571051        4.4923324670        2.7161013123
S             6.4983391347        3.7213715405        4.3439042071
S             6.5538257763        3.5143161006        1.1206458276
Mo            6.4919723357        7.2113973568        2.6676226293
S             8.0822243083        6.3406585007        4.2528151497
S             8.0866418558        6.3082219803        1.0889135344
Mo            8.1467639297        9.8973081829        2.8110024288
S             6.4972462306        8.9418809079        4.3800769763
S             6.6156786313        9.0490518382        1.1427528845
Mo            3.4286432737        1.7494650493        2.7675554997
S             4.9748561269        0.8171451505        4.3558587745
S             5.0521561191        0.8469020505        1.2207579511
Mo            4.9777183696        4.5203616136        2.6353008287
S             3.4314562854        3.6714965012        4.2813560276
S             3.4373053523        3.5457499159        1.0642666902
Mo            3.4565385700        7.2104114312        2.6289066966
S             4.9848264129        6.3249336480        1.0381254348
Mo            5.0108718254        9.9024697198        2.7435853529
S             3.4698823785        8.9426404189        4.3242454544
S             3.4101038644        9.0652533381        1.0995315725
Mo            0.2934698538        1.7547840930        2.8248199952
S             1.8759216345        0.8099899702        4.3870222989
S             1.8551472174        0.8539762864        1.2084004213
Mo            1.8591863185        4.4952274577        2.6651983380
S             0.2731599948        3.6541359613        4.3360148216
S             0.2338531386        3.5289091544        1.1706565933
Mo            0.2724772743        7.2123224330        2.6914453556
S             1.9020148336        6.3149689128        4.2311301073
S             1.8570889699        6.3143137268        1.0484022194
Mo            1.8511099544        9.9390236954        2.7668441937
S             0.2978883114        9.0734672832        4.4070717020
S             0.2726290619        9.0474242990        1.1591613685
O            -0.0588468150        0.0196785386        5.3860949700



     Writing config-only to output data dir ./MoS2-V-O.save/
     NEW-OLD atomic charge density approx. for the potential

     negative rho (up, down):  1.635E-04 0.000E+00

     total cpu time spent up to now is     3945.8 secs

     Self-consistent Calculation

     iteration #  1     ecut=    80.00 Ry     beta= 0.70
     Davidson diagonalization with overlap
     ethr =  1.00E-06,  avg # of iterations = 11.0

     negative rho (up, down):  1.796E-04 0.000E+00

     total cpu time spent up to now is     4809.7 secs

     total energy              =   -2246.23705079 Ry
     estimated scf accuracy    <       0.01908058 Ry

     iteration #  2     ecut=    80.00 Ry     beta= 0.70
     Davidson diagonalization with overlap
     ethr =  6.12E-06,  avg # of iterations =  5.0

     negative rho (up, down):  2.621E-04 0.000E+00

     total cpu time spent up to now is     5498.6 secs

     total energy              =   -2246.24008454 Ry
     estimated scf accuracy    <       0.00714323 Ry

     iteration #  3     ecut=    80.00 Ry     beta= 0.70
     Davidson diagonalization with overlap
     ethr =  2.29E-06,  avg # of iterations =  3.0

     negative rho (up, down):  3.207E-04 0.000E+00

     total cpu time spent up to now is     6458.2 secs

     total energy              =   -2246.24081109 Ry
     estimated scf accuracy    <       0.00039704 Ry

     iteration #  4     ecut=    80.00 Ry     beta= 0.70
     Davidson diagonalization with overlap
     ethr =  1.27E-07,  avg # of iterations =  5.0

     negative rho (up, down):  3.403E-04 0.000E+00

     total cpu time spent up to now is     7361.5 secs

     total energy              =   -2246.24086669 Ry
     estimated scf accuracy    <       0.00006748 Ry

     iteration #  5     ecut=    80.00 Ry     beta= 0.70
     Davidson diagonalization with overlap
     ethr =  2.16E-08,  avg # of iterations =  4.0

     negative rho (up, down):  3.570E-04 0.000E+00

     total cpu time spent up to now is     8348.0 secs

     total energy              =   -2246.24087352 Ry
     estimated scf accuracy    <       0.00001392 Ry

     iteration #  6     ecut=    80.00 Ry     beta= 0.70
     Davidson diagonalization with overlap
     ethr =  4.46E-09,  avg # of iterations =  5.0

     negative rho (up, down):  3.560E-04 0.000E+00

     total cpu time spent up to now is     9555.7 secs

     total energy              =   -2246.24087686 Ry
     estimated scf accuracy    <       0.00000193 Ry

     iteration #  7     ecut=    80.00 Ry     beta= 0.70
     Davidson diagonalization with overlap
     ethr =  6.18E-10,  avg # of iterations =  2.0

     negative rho (up, down):  2.100E-04 0.000E+00

     total cpu time spent up to now is     9562.3 secs

     End of self-consistent calculation

          k = 0.0000 0.0000 0.0000 (105382 PWs)   bands (ev):

   -63.0402 -62.9561 -62.9523 -62.9310 -62.8902 -62.8687 -62.8650 -62.8574
   -62.8382 -62.8291 -62.8132 -62.7138 -37.3372 -37.2970 -37.2550 -37.2339
   -37.1977 -37.1832 -37.1792 -37.1577 -37.1400 -37.1358 -37.1269 -37.1161
   -37.1030 -37.0969 -37.0641 -37.0550 -37.0505 -37.0472 -37.0396 -37.0296
   -37.0237 -37.0152 -37.0103 -37.0042 -36.9928 -36.9842 -36.9662 -36.9548
   -36.9414 -36.8987 -36.8965 -36.8764 -36.8667 -36.8449 -36.8106 -36.7618
   -21.1926 -15.9853 -15.2883 -15.1807 -15.0708 -14.9242 -14.8077 -14.7379
   -14.5579 -14.5290 -14.4905 -14.4468 -14.4295 -14.3700 -14.2884 -14.2339
   -14.2009 -14.1770 -14.1048 -14.0393 -13.9355 -13.8959 -13.8784 -13.7909
    -8.1721  -7.7873  -7.6120  -7.4813  -7.4064  -7.3574  -7.3234  -7.2616
    -7.2229  -7.1267  -6.8856  -6.8794  -6.8309  -6.7301  -6.6953  -6.6216
    -6.5478  -6.4600  -6.4384  -6.3343  -6.1367  -6.0771  -5.9602  -5.9226
    -5.9034  -5.8438  -5.8091  -5.7546  -5.7384  -5.7150  -5.6643  -5.6259
    -5.5667  -5.5069  -5.4291  -5.3656  -5.3339  -5.1660  -5.0827  -5.0663
    -5.0298  -5.0000  -4.9095  -4.7270  -4.7091  -4.5929  -4.4415  -4.4101
    -4.3516  -4.2998  -4.2126  -4.1552  -3.9969  -3.9610  -3.8731  -3.8476
    -3.8167  -3.7692  -3.7023  -3.6564  -3.5998  -3.5957  -3.5428  -3.5035
    -3.4597  -3.4412  -3.2804  -3.2504  -3.0431  -2.9963  -2.9194  -2.8615
    -2.8483  -2.8147  -2.7935  -2.7381  -2.7130  -2.6559  -2.4285  -2.3332
    -2.0914  -2.0558  -1.9837  -1.8480  -1.3143  -0.8340  -0.7745  -0.2277
    -0.1923  -0.1344  -0.0793   0.0587   0.0863   0.1538   0.1572   0.2178
     0.2391   0.2919   0.3639   0.4628   0.4871   0.5075   0.5318   0.5590
     0.6406   0.6739   0.6962   0.7127   0.7988   0.8111   0.8742   0.9086
     0.9529   0.9876   1.2151

     the Fermi energy is    -1.5811 ev

!    total energy              =   -2246.24087727 Ry
     estimated scf accuracy    <       0.00000053 Ry
     smearing contrib. (-TS)   =      -0.00024197 Ry
     internal energy E=F+TS    =   -2246.24063530 Ry

     The total energy is F=E-TS. E is the sum of the following terms:
     one-electron contribution =  -18458.51607215 Ry
     hartree contribution      =    9217.47146615 Ry
     xc contribution           =    -392.05642453 Ry
     ewald contribution        =    7396.72706503 Ry
     one-center paw contrib.   =      -9.86666981 Ry

     convergence has been achieved in   7 iterations

     negative rho (up, down):  2.100E-04 0.000E+00

     Forces acting on atoms (cartesian axes, Ry/au):

     atom    1 type  1   force =     0.00057884    0.00105242    0.00712436
     atom    2 type  2   force =     0.08178930   -0.05527958    0.01976628
     atom    3 type  2   force =    -0.01508295    0.01026887   -0.00976489
     atom    4 type  1   force =     0.00369642   -0.00284809    0.00152241
     atom    5 type  2   force =    -0.00230555   -0.00087134   -0.00524569
     atom    6 type  2   force =    -0.00185419    0.00487560   -0.00160521
     atom    7 type  1   force =     0.00214700   -0.00946142    0.00001959
     atom    8 type  2   force =     0.00246332   -0.00561792    0.01234374
     atom    9 type  2   force =     0.00926619    0.00428201    0.00504043
     atom   10 type  1   force =    -0.00842843   -0.00311101   -0.02569532
     atom   11 type  2   force =     0.00459142   -0.00252826   -0.00982499
     atom   12 type  2   force =    -0.01005302   -0.00302194   -0.00394217
     atom   13 type  1   force =     0.00792711    0.00423132   -0.00674808
     atom   14 type  2   force =     0.00269214    0.00221201    0.00319200
     atom   15 type  2   force =    -0.00543618    0.00076440   -0.01076197
     atom   16 type  1   force =    -0.00021871    0.00991715    0.00375864
     atom   17 type  2   force =     0.00566570    0.00012362    0.00250107
     atom   18 type  2   force =    -0.00093749   -0.00155312    0.00803491
     atom   19 type  1   force =     0.00362662   -0.00920199    0.00047724
     atom   20 type  2   force =     0.00231871   -0.00370067   -0.00244251
     atom   21 type  1   force =    -0.00178352    0.00158538    0.00303371
     atom   22 type  2   force =    -0.00222936   -0.00217087   -0.00383302
     atom   23 type  2   force =     0.00321290   -0.00086436    0.00296704
     atom   24 type  1   force =     0.00056154    0.00600636   -0.02274012
     atom   25 type  2   force =     0.03114045    0.02561190   -0.02246877
     atom   26 type  2   force =    -0.00617041   -0.00137497   -0.00777909
     atom   27 type  1   force =    -0.00110940    0.00064789    0.00714565
     atom   28 type  2   force =     0.00022998   -0.00276050   -0.00436829
     atom   29 type  2   force =     0.00441610    0.00709387   -0.00756364
     atom   30 type  1   force =    -0.00139334   -0.00244951   -0.00268207
     atom   31 type  2   force =     0.00004042    0.00229997    0.01163830
     atom   32 type  2   force =    -0.00536289    0.00479221    0.00466520
     atom   33 type  1   force =     0.00628955    0.00066721   -0.00077936
     atom   34 type  2   force =     0.00061563   -0.03914414   -0.02967596
     atom   35 type  2   force =    -0.00408227    0.00558038    0.00547088
     atom   36 type  3   force =    -0.10682163    0.05394713    0.07921968
     The non-local contrib.  to forces
     atom    1 type  1   force =    -0.01447383    0.00728153   -0.02260143
     atom    2 type  2   force =     0.34640758   -0.19273612    0.12410381
     atom    3 type  2   force =    -0.01525474   -0.00270289    0.26861510
     atom    4 type  1   force =     0.00328790    0.01162047    0.00440448
     atom    5 type  2   force =     0.00558122   -0.02991706   -0.24936531
     atom    6 type  2   force =    -0.00701306    0.00565507    0.26830074
     atom    7 type  1   force =    -0.01496187    0.00594973   -0.02216303
     atom    8 type  2   force =     0.00295529   -0.00699637   -0.25822038
     atom    9 type  2   force =     0.00031602   -0.01159354    0.27555425
     atom   10 type  1   force =     0.00237360    0.00147614    0.01827780
     atom   11 type  2   force =     0.01341912    0.00542337   -0.26330351
     atom   12 type  2   force =    -0.01727130   -0.02092549    0.25883937
     atom   13 type  1   force =    -0.01455039    0.01990055    0.00011694
     atom   14 type  2   force =     0.00536422   -0.01038921   -0.26333886
     atom   15 type  2   force =    -0.00612873   -0.00319651    0.26153198
     atom   16 type  1   force =    -0.00525509    0.03659797   -0.03086249
     atom   17 type  2   force =     0.00067069   -0.02739957   -0.25054106
     atom   18 type  2   force =    -0.00351924    0.00127545    0.26975857
     atom   19 type  1   force =     0.01190442    0.00400638   -0.01470470
     atom   20 type  2   force =    -0.00028100   -0.02043758    0.26388741
     atom   21 type  1   force =    -0.00044577    0.02602377    0.00525824
     atom   22 type  2   force =    -0.00155012    0.00221282   -0.26118008
     atom   23 type  2   force =     0.00885698   -0.01594291    0.26695932
     atom   24 type  1   force =    -0.00013536    0.01685977    0.00842466
     atom   25 type  2   force =     0.00399163    0.00089695   -0.26560785
     atom   26 type  2   force =     0.00033318   -0.01140779    0.25658605
     atom   27 type  1   force =    -0.00281083    0.00616346    0.01173444
     atom   28 type  2   force =    -0.00534924   -0.02806905   -0.27546428
     atom   29 type  2   force =     0.00494974    0.00417254    0.26107057
     atom   30 type  1   force =     0.00755464    0.03823721    0.00803593
     atom   31 type  2   force =    -0.00813570    0.00149145   -0.25595743
     atom   32 type  2   force =    -0.00125686   -0.01381154    0.27381817
     atom   33 type  1   force =     0.00043455    0.00026702    0.00893712
     atom   34 type  2   force =    -0.00666430    0.06559260   -0.22781377
     atom   35 type  2   force =    -0.00182436   -0.01167886    0.26445171
     atom   36 type  3   force =    -1.04008607    0.62661257   -0.90507809
     The ionic contribution  to forces
     atom    1 type  1   force =    -0.55635626    0.90961278    4.12986312
     atom    2 type  2   force =    -5.57439995    3.57683416   35.36406227
     atom    3 type  2   force =    -0.41053957    0.20182571  -37.17140987
     atom    4 type  1   force =    -0.25545432    1.16852765   -0.43430645
     atom    5 type  2   force =    -1.21896232    1.87535468   38.50508298
     atom    6 type  2   force =     0.20565635   -0.32005145  -38.57417766
     atom    7 type  1   force =    -3.00490565   -3.29535742    1.41970699
     atom    8 type  2   force =    -1.13598205   -0.27357970   37.23750878
     atom    9 type  2   force =     0.24662123   -0.17819422  -38.53160039
     atom   10 type  1   force =    -2.60850676   -1.62142034    0.16825175
     atom   11 type  2   force =    -1.34233971   -2.28772133   38.65179511
     atom   12 type  2   force =     0.11412818    0.44013532  -38.60697896
     atom   13 type  1   force =     1.24987720    1.62392875    0.92793325
     atom   14 type  2   force =    -0.02940894    0.18858094   38.23629194
     atom   15 type  2   force =     0.16832100   -0.02195634  -37.50021177
     atom   16 type  1   force =    -0.02215229    4.09894501   -0.22881138
     atom   17 type  2   force =     1.02774403    1.81442207   37.74877281
     atom   18 type  2   force =    -0.08957290   -0.44205908  -39.04783598
     atom   19 type  1   force =     2.95562868   -2.82933087   -0.39594382
     atom   20 type  2   force =     0.19565131   -0.24426573  -39.00772447
     atom   21 type  1   force =    -0.17879975   -0.28040438   -0.04891752
     atom   22 type  2   force =     0.98055630   -2.21089224   38.07863046
     atom   23 type  2   force =     0.04470348    0.47789262  -38.90480609
     atom   24 type  1   force =    -0.17153144    3.21467340    0.91138832
     atom   25 type  2   force =     3.34957291    1.46102529   37.42323474
     atom   26 type  2   force =     0.00196905    0.14097011  -38.27525667
     atom   27 type  1   force =     0.41293775    0.94197062   -3.02052386
     atom   28 type  2   force =     0.10717954    1.89339733   37.81827819
     atom   29 type  2   force =    -0.22643748   -0.08254294  -38.02744367
     atom   30 type  1   force =    -0.22165548   -1.94380382   -1.84786475
     atom   31 type  2   force =     1.40240938   -0.28664172   37.18363782
     atom   32 type  2   force =    -0.33924030   -0.12970630  -39.15132324
     atom   33 type  1   force =     2.37562868   -1.83157346   -1.21961444
     atom   34 type  2   force =     0.83176792   -4.95338513   37.12583792
     atom   35 type  2   force =    -0.13439980    0.19653948  -38.68151353
     atom   36 type  3   force =     1.85029199   -0.99174948   47.74598805
     The local contribution  to forces
     atom    1 type  1   force =     0.57157838   -0.91596072   -4.09920682
     atom    2 type  2   force =     5.33017669   -3.45085903  -35.46659294
     atom    3 type  2   force =     0.41002852   -0.18897027   36.91422439
     atom    4 type  1   force =     0.25568296   -1.18270387    0.43215555
     atom    5 type  2   force =     1.21176145   -1.84809894  -38.28089379
     atom    6 type  2   force =    -0.20104140    0.32012569   38.32553900
     atom    7 type  1   force =     3.02211638    3.27990601   -1.39675756
     atom    8 type  2   force =     1.13550455    0.27428556  -36.98712125
     atom    9 type  2   force =    -0.23797591    0.19339873   38.28214535
     atom   10 type  1   force =     2.59764293    1.61692040   -0.21110901
     atom   11 type  2   force =     1.33413662    2.28033332  -38.41875439
     atom   12 type  2   force =    -0.10824241   -0.42378647   38.36506481
     atom   13 type  1   force =    -1.22732537   -1.63955611   -0.93414034
     atom   14 type  2   force =     0.02737891   -0.17608883  -37.99014201
     atom   15 type  2   force =    -0.16799913    0.02565314   37.24863953
     atom   16 type  1   force =     0.02730794   -4.12551295    0.26398034
     atom   17 type  2   force =    -1.02280279   -1.78822506  -37.51569141
     atom   18 type  2   force =     0.09220306    0.44004805   38.80711419
     atom   19 type  1   force =    -2.96386202    2.81615348    0.41171469
     atom   20 type  2   force =    -0.19316674    0.26019434   38.76257882
     atom   21 type  1   force =     0.17758388    0.25574273    0.04740146
     atom   22 type  2   force =    -0.98107990    2.20687475  -37.84163682
     atom   23 type  2   force =    -0.04965996   -0.46418849   38.66173955
     atom   24 type  1   force =     0.17200170   -3.22574383   -0.94137491
     atom   25 type  2   force =    -3.32183053   -1.43582683  -37.20107266
     atom   26 type  2   force =    -0.00822169   -0.13157505   38.03158695
     atom   27 type  1   force =    -0.41118971   -0.94726377    3.01661171
     atom   28 type  2   force =    -0.10203717   -1.87003317  -37.56780004
     atom   29 type  2   force =     0.22633036    0.08621236   37.77944431
     atom   30 type  1   force =     0.21261860    1.90299953    1.83792822
     atom   31 type  2   force =    -1.39472192    0.28737249  -36.93627150
     atom   32 type  2   force =     0.33538396    0.14757986   38.90327235
     atom   33 type  1   force =    -2.36990650    1.83191758    1.21064081
     atom   34 type  2   force =    -0.82494320    4.85179642  -36.94617517
     atom   35 type  2   force =     0.13218017   -0.18029391   38.44346287
     atom   36 type  3   force =    -0.92901004    0.42632490  -46.77023482
     The core correction contribution to forces
     atom    1 type  1   force =     0.00000000    0.00000000    0.00000000
     atom    2 type  2   force =    -0.02028444    0.01136832   -0.00138036
     atom    3 type  2   force =     0.00066873    0.00005244   -0.02096295
     atom    4 type  1   force =     0.00000000    0.00000000    0.00000000
     atom    5 type  2   force =    -0.00062653    0.00184216    0.02021944
     atom    6 type  2   force =     0.00049908   -0.00070689   -0.02113218
     atom    7 type  1   force =     0.00000000    0.00000000    0.00000000
     atom    8 type  2   force =    -0.00002501    0.00073024    0.02053802
     atom    9 type  2   force =     0.00024934    0.00063802   -0.02099767
     atom   10 type  1   force =     0.00000000    0.00000000    0.00000000
     atom   11 type  2   force =    -0.00050799   -0.00056958    0.02080551
     atom   12 type  2   force =     0.00124861    0.00147779   -0.02078034
     atom   13 type  1   force =     0.00000000    0.00000000    0.00000000
     atom   14 type  2   force =    -0.00052145    0.00004081    0.02067744
     atom   15 type  2   force =     0.00039477    0.00019825   -0.02060343
     atom   16 type  1   force =     0.00000000    0.00000000    0.00000000
     atom   17 type  2   force =     0.00003215    0.00139277    0.02027966
     atom   18 type  2   force =    -0.00000290   -0.00068653   -0.02089664
     atom   19 type  1   force =     0.00000000    0.00000000    0.00000000
     atom   20 type  2   force =     0.00013272    0.00083440   -0.02117288
     atom   21 type  1   force =     0.00000000    0.00000000    0.00000000
     atom   22 type  2   force =    -0.00014109   -0.00043031    0.02068231
     atom   23 type  2   force =    -0.00063924    0.00128140   -0.02087447
     atom   24 type  1   force =     0.00000000    0.00000000    0.00000000
     atom   25 type  2   force =    -0.00081122   -0.00052519    0.02137393
     atom   26 type  2   force =    -0.00025071    0.00054260   -0.02056078
     atom   27 type  1   force =     0.00000000    0.00000000    0.00000000
     atom   28 type  2   force =     0.00039602    0.00189551    0.02104746
     atom   29 type  2   force =    -0.00044133   -0.00060708   -0.02055047
     atom   30 type  1   force =     0.00000000    0.00000000    0.00000000
     atom   31 type  2   force =     0.00044143    0.00011534    0.02058775
     atom   32 type  2   force =    -0.00022277    0.00073538   -0.02107068
     atom   33 type  1   force =     0.00000000    0.00000000    0.00000000
     atom   34 type  2   force =     0.00031768   -0.00307267    0.01899650
     atom   35 type  2   force =    -0.00000225    0.00096770   -0.02084323
     atom   36 type  3   force =     0.01167951   -0.00718524    0.00936707
     The Hubbard contrib.    to forces
     atom    1 type  1   force =     0.00000000    0.00000000    0.00000000
     atom    2 type  2   force =     0.00000000    0.00000000    0.00000000
     atom    3 type  2   force =     0.00000000    0.00000000    0.00000000
     atom    4 type  1   force =     0.00000000    0.00000000    0.00000000
     atom    5 type  2   force =     0.00000000    0.00000000    0.00000000
     atom    6 type  2   force =     0.00000000    0.00000000    0.00000000
     atom    7 type  1   force =     0.00000000    0.00000000    0.00000000
     atom    8 type  2   force =     0.00000000    0.00000000    0.00000000
     atom    9 type  2   force =     0.00000000    0.00000000    0.00000000
     atom   10 type  1   force =     0.00000000    0.00000000    0.00000000
     atom   11 type  2   force =     0.00000000    0.00000000    0.00000000
     atom   12 type  2   force =     0.00000000    0.00000000    0.00000000
     atom   13 type  1   force =     0.00000000    0.00000000    0.00000000
     atom   14 type  2   force =     0.00000000    0.00000000    0.00000000
     atom   15 type  2   force =     0.00000000    0.00000000    0.00000000
     atom   16 type  1   force =     0.00000000    0.00000000    0.00000000
     atom   17 type  2   force =     0.00000000    0.00000000    0.00000000
     atom   18 type  2   force =     0.00000000    0.00000000    0.00000000
     atom   19 type  1   force =     0.00000000    0.00000000    0.00000000
     atom   20 type  2   force =     0.00000000    0.00000000    0.00000000
     atom   21 type  1   force =     0.00000000    0.00000000    0.00000000
     atom   22 type  2   force =     0.00000000    0.00000000    0.00000000
     atom   23 type  2   force =     0.00000000    0.00000000    0.00000000
     atom   24 type  1   force =     0.00000000    0.00000000    0.00000000
     atom   25 type  2   force =     0.00000000    0.00000000    0.00000000
     atom   26 type  2   force =     0.00000000    0.00000000    0.00000000
     atom   27 type  1   force =     0.00000000    0.00000000    0.00000000
     atom   28 type  2   force =     0.00000000    0.00000000    0.00000000
     atom   29 type  2   force =     0.00000000    0.00000000    0.00000000
     atom   30 type  1   force =     0.00000000    0.00000000    0.00000000
     atom   31 type  2   force =     0.00000000    0.00000000    0.00000000
     atom   32 type  2   force =     0.00000000    0.00000000    0.00000000
     atom   33 type  1   force =     0.00000000    0.00000000    0.00000000
     atom   34 type  2   force =     0.00000000    0.00000000    0.00000000
     atom   35 type  2   force =     0.00000000    0.00000000    0.00000000
     atom   36 type  3   force =     0.00000000    0.00000000    0.00000000
     The SCF correction term to forces
     atom    1 type  1   force =    -0.00017207    0.00011882   -0.00091805
     atom    2 type  2   force =    -0.00011321    0.00011307   -0.00041405
     atom    3 type  2   force =     0.00001149    0.00006386   -0.00021910
     atom    4 type  1   force =     0.00017726   -0.00029235   -0.00071872
     atom    5 type  2   force =    -0.00006199   -0.00005218   -0.00027656
     atom    6 type  2   force =     0.00004221   -0.00014683   -0.00012266
     atom    7 type  1   force =    -0.00010449    0.00004026   -0.00075436
     atom    8 type  2   force =     0.00000791   -0.00005766   -0.00034897
     atom    9 type  2   force =     0.00005289    0.00003300   -0.00004866
     atom   10 type  1   force =     0.00005917   -0.00008722   -0.00110341
     atom   11 type  2   force =    -0.00011925    0.00000594   -0.00035527
     atom   12 type  2   force =     0.00008129    0.00007690   -0.00007459
     atom   13 type  1   force =    -0.00007695   -0.00004188   -0.00064548
     atom   14 type  2   force =    -0.00012323    0.00006828   -0.00028406
     atom   15 type  2   force =    -0.00002671    0.00006585   -0.00010584
     atom   16 type  1   force =    -0.00012190   -0.00011289   -0.00053537
     atom   17 type  2   force =     0.00001898   -0.00006660   -0.00030647
     atom   18 type  2   force =    -0.00004813   -0.00013102   -0.00009277
     atom   19 type  1   force =    -0.00004708   -0.00003100   -0.00057647
     atom   20 type  2   force =    -0.00002022   -0.00002610    0.00000107
     atom   21 type  1   force =    -0.00012451    0.00022325   -0.00069602
     atom   22 type  2   force =    -0.00001717    0.00006410   -0.00031644
     atom   23 type  2   force =    -0.00005098    0.00009301   -0.00003882
     atom   24 type  1   force =     0.00022401    0.00021701   -0.00116573
     atom   25 type  2   force =     0.00021504    0.00004166   -0.00038448
     atom   26 type  2   force =    -0.00000287    0.00009516   -0.00012219
     atom   27 type  1   force =    -0.00004923   -0.00022243   -0.00066418
     atom   28 type  2   force =     0.00003820    0.00004887   -0.00041717
     atom   29 type  2   force =     0.00001218   -0.00014102   -0.00007192
     atom   30 type  1   force =     0.00008627    0.00011757   -0.00076902
     atom   31 type  2   force =     0.00004461   -0.00003760   -0.00034588
     atom   32 type  2   force =    -0.00002955   -0.00000519   -0.00001895
     atom   33 type  1   force =     0.00013020    0.00005606   -0.00073040
     atom   34 type  2   force =     0.00013489   -0.00007536   -0.00050900
     atom   35 type  2   force =    -0.00003865    0.00004596   -0.00007448
     atom   36 type  3   force =     0.00030036   -0.00005562   -0.00081009

     Total force =     0.197871     Total SCF correction =     0.003268
     Energy error            =      4.6E-02 Ry
     Gradient error          =      1.1E-01 Ry/Bohr

     number of scf cycles    =   2
     number of bfgs steps    =   1

     energy             old  =   -2246.1946513602 Ry
     energy             new  =   -2246.2408772679 Ry

     CASE: energy            _new < energy            _old


     WARNING: bfgs curvature condition failed, Theta= 0.957
     new trust radius        =       0.1564941690 bohr
     new conv_thr            =       0.0000001068 Ry


ATOMIC_POSITIONS (angstrom)
Mo            6.5740472201        1.7956865366        2.8217819306
S             8.2706626228        0.7477660785        4.4749492864
S             8.1779355007        0.8219282918        1.2717122966
Mo            8.0998716732        4.4902053653        2.7159980633
S             6.4968655492        3.7206401004        4.3408703431
S             6.5533202157        3.5171423991        1.1197991659
Mo            6.4935511358        7.2051169736        2.6659642773
S             8.0833371680        6.3373075612        4.2614656700
S             8.0923351985        6.3111946961        1.0927674378
Mo            8.1382052580        9.8942436108        2.7887323841
S             6.4997711546        8.9405291325        4.3752287495
S             6.6110423812        9.0480578257        1.1423946523
Mo            3.4343293713        1.7520239399        2.7615540594
S             4.9757393464        0.8180499023        4.3591307786
S             5.0479095154        0.8474372671        1.2144377994
Mo            4.9768401598        4.5268681332        2.6376471013
S             3.4349822084        3.6715022814        4.2829323717
S             3.4367152340        3.5442018421        1.0695753548
Mo            3.4589374320        7.2046682056        2.6283928688
S             4.9863135428        6.3227722266        1.0375551010
Mo            5.0096625259        9.9034009357        2.7447889476
S             3.4686304299        8.9413965638        4.3222897929
S             3.4119567521        9.0650338712        1.1019917847
Mo            0.2926550770        1.7598674902        2.8067141991
S             1.8974868584        0.8263026050        4.3742695128
S             1.8506364571        0.8532877142        1.2051079368
Mo            1.8581843346        4.4952974201        2.6698180843
S             0.2736155555        3.6530036017        4.3337721931
S             0.2365250086        3.5322038127        1.1673034353
Mo            0.2724754750        7.2097189889        2.6864385616
S             1.9019425937        6.3166748991        4.2388657636
S             1.8530762138        6.3176527112        1.0516442033
Mo            1.8560991588        9.9388366013        2.7641686400
S             0.2988899803        9.0524064688        4.3933462376
S             0.2694874882        9.0510293797        1.1646258254
O            -0.1216887848        0.0474909770        5.4323050615



     Writing config-only to output data dir ./MoS2-V-O.save/
     NEW-OLD atomic charge density approx. for the potential

     negative rho (up, down):  1.587E-04 0.000E+00

     total cpu time spent up to now is     9618.7 secs

     Self-consistent Calculation

     iteration #  1     ecut=    80.00 Ry     beta= 0.70
     Davidson diagonalization with overlap
     ethr =  1.00E-06,  avg # of iterations = 10.0

     negative rho (up, down):  1.316E-04 0.000E+00

     total cpu time spent up to now is    10184.6 secs

     total energy              =   -2246.27660503 Ry
     estimated scf accuracy    <       0.01447222 Ry

     iteration #  2     ecut=    80.00 Ry     beta= 0.70
     Davidson diagonalization with overlap
     ethr =  4.64E-06,  avg # of iterations =  5.0

     negative rho (up, down):  1.606E-04 0.000E+00

     total cpu time spent up to now is    10784.1 secs

     total energy              =   -2246.27954518 Ry
     estimated scf accuracy    <       0.00652248 Ry

     iteration #  3     ecut=    80.00 Ry     beta= 0.70
     Davidson diagonalization with overlap
     ethr =  2.09E-06,  avg # of iterations =  4.0

     negative rho (up, down):  1.646E-04 0.000E+00

     total cpu time spent up to now is    11237.9 secs

     total energy              =   -2246.28008935 Ry
     estimated scf accuracy    <       0.00038026 Ry

     iteration #  4     ecut=    80.00 Ry     beta= 0.70
     Davidson diagonalization with overlap
     ethr =  1.22E-07,  avg # of iterations =  5.0

     negative rho (up, down):  1.757E-04 0.000E+00

     total cpu time spent up to now is    11703.1 secs

     total energy              =   -2246.28013862 Ry
     estimated scf accuracy    <       0.00004516 Ry

     iteration #  5     ecut=    80.00 Ry     beta= 0.70
     Davidson diagonalization with overlap
     ethr =  1.45E-08,  avg # of iterations =  3.0

     negative rho (up, down):  1.919E-04 0.000E+00

     total cpu time spent up to now is    12231.6 secs

     total energy              =   -2246.28014361 Ry
     estimated scf accuracy    <       0.00000712 Ry

     iteration #  6     ecut=    80.00 Ry     beta= 0.70
     Davidson diagonalization with overlap
     ethr =  2.28E-09,  avg # of iterations =  5.0

     negative rho (up, down):  1.997E-04 0.000E+00

     total cpu time spent up to now is    13148.1 secs

     total energy              =   -2246.28014578 Ry
     estimated scf accuracy    <       0.00000152 Ry

     iteration #  7     ecut=    80.00 Ry     beta= 0.70
     Davidson diagonalization with overlap
     ethr =  4.88E-10,  avg # of iterations =  2.0

     negative rho (up, down):  2.116E-04 0.000E+00

     total cpu time spent up to now is    13787.5 secs

     total energy              =   -2246.28014584 Ry
     estimated scf accuracy    <       0.00000034 Ry

     iteration #  8     ecut=    80.00 Ry     beta= 0.70
     Davidson diagonalization with overlap
     ethr =  1.10E-10,  avg # of iterations =  3.0

     negative rho (up, down):  2.079E-04 0.000E+00

     total cpu time spent up to now is    13817.6 secs

     End of self-consistent calculation

          k = 0.0000 0.0000 0.0000 (105382 PWs)   bands (ev):

   -63.0550 -62.9599 -62.9562 -62.9333 -62.8960 -62.8796 -62.8722 -62.8660
   -62.8465 -62.8347 -62.7926 -62.7330 -37.3438 -37.3047 -37.2616 -37.2392
   -37.2037 -37.1912 -37.1819 -37.1635 -37.1471 -37.1399 -37.1293 -37.1217
   -37.1055 -37.0978 -37.0724 -37.0636 -37.0572 -37.0513 -37.0413 -37.0371
   -37.0324 -37.0199 -37.0107 -37.0082 -36.9990 -36.9739 -36.9709 -36.9653
   -36.9384 -36.9121 -36.9092 -36.8818 -36.8699 -36.8540 -36.8250 -36.7742
   -21.8007 -15.9959 -15.2793 -15.1774 -15.0553 -14.9307 -14.8144 -14.6306
   -14.5518 -14.5272 -14.4964 -14.4521 -14.4295 -14.3809 -14.2733 -14.2405
   -14.2045 -14.1862 -14.1092 -14.0172 -13.9460 -13.9104 -13.8771 -13.6762
    -8.1647  -7.8091  -7.6303  -7.4902  -7.4439  -7.3614  -7.3366  -7.2732
    -7.2268  -7.1276  -6.8933  -6.8825  -6.8500  -6.7453  -6.7132  -6.6246
    -6.5522  -6.4807  -6.4430  -6.3375  -6.1263  -6.0913  -5.9628  -5.9167
    -5.8944  -5.8432  -5.8086  -5.7657  -5.7472  -5.7232  -5.6872  -5.6345
    -5.5723  -5.5138  -5.4253  -5.3654  -5.3271  -5.1696  -5.0890  -5.0746
    -5.0197  -5.0116  -4.9171  -4.7366  -4.7222  -4.6064  -4.4672  -4.3938
    -4.3512  -4.3049  -4.2366  -4.1440  -4.0218  -3.9899  -3.8787  -3.8513
    -3.8242  -3.7720  -3.7011  -3.6523  -3.6025  -3.5789  -3.5598  -3.5147
    -3.4618  -3.4398  -3.2753  -3.2524  -3.0545  -3.0057  -2.9441  -2.8695
    -2.8386  -2.8241  -2.8048  -2.7409  -2.7213  -2.6642  -2.4664  -2.3523
    -2.2084  -2.0701  -2.0094  -1.8813  -1.2041  -0.8340  -0.7697  -0.2306
    -0.1941  -0.1422  -0.0881   0.0602   0.0981   0.1531   0.1654   0.2162
     0.2425   0.2874   0.3622   0.4579   0.4787   0.5107   0.5229   0.5610
     0.6317   0.6598   0.6926   0.7076   0.7967   0.8147   0.8760   0.9082
     0.9427   0.9892   1.2158

     the Fermi energy is    -1.5426 ev

!    total energy              =   -2246.28014596 Ry
     estimated scf accuracy    <       0.00000004 Ry
     smearing contrib. (-TS)   =      -0.00002312 Ry
     internal energy E=F+TS    =   -2246.28012284 Ry

     The total energy is F=E-TS. E is the sum of the following terms:
     one-electron contribution =  -18451.47833117 Ry
     hartree contribution      =    9213.89438447 Ry
     xc contribution           =    -392.10162966 Ry
     ewald contribution        =    7393.26789342 Ry
     one-center paw contrib.   =      -9.86243989 Ry

     convergence has been achieved in   8 iterations

     negative rho (up, down):  2.079E-04 0.000E+00

     Forces acting on atoms (cartesian axes, Ry/au):

     atom    1 type  1   force =     0.00146615   -0.00627449    0.01399144
     atom    2 type  2   force =     0.05313378   -0.03696662   -0.01734931
     atom    3 type  2   force =    -0.01525842    0.01031146   -0.01125304
     atom    4 type  1   force =     0.00302609    0.00002223    0.00326579
     atom    5 type  2   force =    -0.00158970   -0.00019160   -0.00416409
     atom    6 type  2   force =    -0.00302247    0.00479548   -0.00031708
     atom    7 type  1   force =     0.00111635   -0.00595710    0.00370331
     atom    8 type  2   force =     0.00295801   -0.00524601    0.00718668
     atom    9 type  2   force =     0.00762233    0.00205483    0.00244474
     atom   10 type  1   force =     0.00356426    0.00083761   -0.00383077
     atom   11 type  2   force =     0.00502698   -0.00257677   -0.01121444
     atom   12 type  2   force =    -0.01360248   -0.00574020   -0.00882592
     atom   13 type  1   force =     0.00432498    0.00373818   -0.00251818
     atom   14 type  2   force =     0.00509520    0.00284336   -0.00000959
     atom   15 type  2   force =    -0.00122076    0.00024316   -0.00837244
     atom   16 type  1   force =     0.00181180    0.00643159    0.00240352
     atom   17 type  2   force =     0.00467085    0.00073919    0.00229730
     atom   18 type  2   force =    -0.00066038    0.00112474    0.00592169
     atom   19 type  1   force =     0.00214439   -0.00656209    0.00207883
     atom   20 type  2   force =     0.00193360   -0.00334841   -0.00441141
     atom   21 type  1   force =    -0.00170747    0.00215184    0.00283555
     atom   22 type  2   force =    -0.00198097   -0.00197536   -0.00357722
     atom   23 type  2   force =     0.00260065   -0.00181233    0.00170684
     atom   24 type  1   force =     0.00533233   -0.00086439   -0.00764794
     atom   25 type  2   force =     0.01678491    0.01821375   -0.01772827
     atom   26 type  2   force =    -0.00221156   -0.00178748   -0.01090347
     atom   27 type  1   force =     0.00017125    0.00160294    0.00458752
     atom   28 type  2   force =    -0.00073273   -0.00443817   -0.00450592
     atom   29 type  2   force =     0.00336230    0.00970263   -0.00994221
     atom   30 type  1   force =    -0.00316576    0.00147270    0.00738457
     atom   31 type  2   force =     0.00058418   -0.00000157    0.00790901
     atom   32 type  2   force =    -0.00227427    0.00279251    0.00331402
     atom   33 type  1   force =     0.00255627    0.00143227    0.00260723
     atom   34 type  2   force =    -0.00002799   -0.04148048   -0.03542521
     atom   35 type  2   force =    -0.00069610    0.00398018   -0.00213099
     atom   36 type  3   force =    -0.08113562    0.05073242    0.09048948
     The non-local contrib.  to forces
     atom    1 type  1   force =    -0.01388310    0.00733183   -0.02478034
     atom    2 type  2   force =     0.30791183   -0.17441648    0.14591980
     atom    3 type  2   force =    -0.01364172   -0.00449085    0.26778598
     atom    4 type  1   force =     0.00427767    0.01113251    0.00364138
     atom    5 type  2   force =     0.00678967   -0.02902443   -0.24811745
     atom    6 type  2   force =    -0.00814384    0.00541790    0.26919192
     atom    7 type  1   force =    -0.01381306    0.00571693   -0.02450892
     atom    8 type  2   force =     0.00311796   -0.00668326   -0.26205488
     atom    9 type  2   force =    -0.00127124   -0.01315723    0.27363144
     atom   10 type  1   force =    -0.00004229    0.00736457    0.02226301
     atom   11 type  2   force =     0.01200383    0.00468412   -0.26354386
     atom   12 type  2   force =    -0.02057104   -0.02304114    0.25530445
     atom   13 type  1   force =    -0.01007304    0.02270476   -0.00086061
     atom   14 type  2   force =     0.00776556   -0.00994712   -0.26528997
     atom   15 type  2   force =    -0.00297686   -0.00268630    0.26233159
     atom   16 type  1   force =    -0.00570912    0.03826568   -0.03157946
     atom   17 type  2   force =     0.00015592   -0.02651542   -0.25134306
     atom   18 type  2   force =    -0.00343738    0.00217653    0.26929588
     atom   19 type  1   force =     0.01226437    0.00477438   -0.01672534
     atom   20 type  2   force =    -0.00056285   -0.01948642    0.26188654
     atom   21 type  1   force =    -0.00068373    0.02618166    0.00404315
     atom   22 type  2   force =    -0.00063657    0.00201435   -0.26173008
     atom   23 type  2   force =     0.00830282   -0.01693427    0.26671457
     atom   24 type  1   force =    -0.00903691    0.01490751    0.01287279
     atom   25 type  2   force =     0.01275530    0.00221072   -0.26901745
     atom   26 type  2   force =     0.00408464   -0.00976552    0.25604647
     atom   27 type  1   force =    -0.00420793    0.00612791    0.01090994
     atom   28 type  2   force =    -0.00539767   -0.02795626   -0.27543420
     atom   29 type  2   force =     0.00360737    0.00636930    0.25881874
     atom   30 type  1   force =     0.00888359    0.03552276    0.00775327
     atom   31 type  2   force =    -0.00778719   -0.00003102   -0.25932918
     atom   32 type  2   force =     0.00288767   -0.01430334    0.27228546
     atom   33 type  1   force =     0.00012356    0.00068065    0.00637209
     atom   34 type  2   force =    -0.00305601    0.02290057   -0.25813883
     atom   35 type  2   force =    -0.00062934   -0.01326071    0.26186143
     atom   36 type  3   force =    -1.22855183    0.79344741   -1.10416207
     The ionic contribution  to forces
     atom    1 type  1   force =    -0.36571371    0.70275968    4.54643516
     atom    2 type  2   force =    -5.94871677    3.85650361   34.58966592
     atom    3 type  2   force =    -0.42719483    0.21269943  -37.14464040
     atom    4 type  1   force =    -0.30768823    1.12791387   -0.34431981
     atom    5 type  2   force =    -1.17945687    1.81685350   38.49227828
     atom    6 type  2   force =     0.18045387   -0.32755973  -38.54427542
     atom    7 type  1   force =    -2.98380149   -3.16243106    1.47282980
     atom    8 type  2   force =    -1.12494077   -0.23472503   37.34457209
     atom    9 type  2   force =     0.21594421   -0.20763600  -38.51228779
     atom   10 type  1   force =    -2.32811558   -1.33189476   -0.52364720
     atom   11 type  2   force =    -1.29667228   -2.24502796   38.58554418
     atom   12 type  2   force =     0.01291318    0.39145595  -38.62938366
     atom   13 type  1   force =     1.21980158    1.53298178    0.68623037
     atom   14 type  2   force =     0.01443043    0.16702743   38.27605000
     atom   15 type  2   force =     0.22056597   -0.04103525  -37.52959944
     atom   16 type  1   force =     0.01722967    3.96611439   -0.05869901
     atom   17 type  2   force =     1.01115379    1.76571828   37.79092529
     atom   18 type  2   force =    -0.08639782   -0.39343853  -38.99440451
     atom   19 type  1   force =     2.88296830   -2.66245641   -0.33920203
     atom   20 type  2   force =     0.18163441   -0.22313426  -39.06881662
     atom   21 type  1   force =    -0.16715660   -0.23669623    0.18578415
     atom   22 type  2   force =     0.93006770   -2.17297872   38.08581202
     atom   23 type  2   force =     0.03643959    0.45002034  -38.85179192
     atom   24 type  1   force =    -0.24672898    2.82161102    0.38285931
     atom   25 type  2   force =     2.95248571    1.24237086   37.35962106
     atom   26 type  2   force =     0.03810613    0.08502799  -38.25559689
     atom   27 type  1   force =     0.45110562    0.95108117   -2.70002665
     atom   28 type  2   force =     0.08612901    1.77623703   37.82675095
     atom   29 type  2   force =    -0.21821552   -0.01940134  -38.09747823
     atom   30 type  1   force =    -0.17900042   -1.85208724   -1.94523379
     atom   31 type  2   force =     1.38740796   -0.23622076   37.28083927
     atom   32 type  2   force =    -0.29099207   -0.14350210  -39.12714440
     atom   33 type  1   force =     2.10788016   -1.67438481   -0.92801240
     atom   34 type  2   force =     0.81270816   -4.47069374   37.04046292
     atom   35 type  2   force =    -0.03529549    0.20810141  -38.59034901
     atom   36 type  3   force =     2.42666200   -1.43917379   48.23824840
     The local contribution  to forces
     atom    1 type  1   force =     0.38113940   -0.71641240   -4.50772436
     atom    2 type  2   force =     5.71217171   -3.72949939  -34.74993079
     atom    3 type  2   force =     0.42502864   -0.19807199   36.88654090
     atom    4 type  1   force =     0.30643300   -1.13904025    0.34388423
     atom    5 type  2   force =     1.17177811   -1.78985406  -38.26851941
     atom    6 type  2   force =    -0.17584702    0.32761323   38.29588418
     atom    7 type  1   force =     2.99872747    3.15079939   -1.44467949
     atom    8 type  2   force =     1.12478127    0.23545155  -37.09597510
     atom    9 type  2   force =    -0.20737193    0.22218262   38.26200889
     atom   10 type  1   force =     2.33175265    1.32538911    0.49756794
     atom   11 type  2   force =     1.29012127    2.23829505  -38.35401683
     atom   12 type  2   force =    -0.00722563   -0.37566084   38.38587842
     atom   13 type  1   force =    -1.20541536   -1.55196955   -0.68795991
     atom   14 type  2   force =    -0.01641473   -0.15426751  -38.03152695
     atom   15 type  2   force =    -0.21908249    0.04380578   37.27947231
     atom   16 type  1   force =    -0.00966385   -3.99790791    0.09259768
     atom   17 type  2   force =    -1.00671012   -1.73976622  -37.55756773
     atom   18 type  2   force =     0.08918779    0.39306366   38.75187270
     atom   19 type  1   force =    -2.89305897    2.65115146    0.35793285
     atom   20 type  2   force =    -0.17927698    0.23849092   38.82360853
     atom   21 type  1   force =     0.16619711    0.21260641   -0.18708692
     atom   22 type  2   force =    -0.93123698    2.16943032  -37.84835205
     atom   23 type  2   force =    -0.04153470   -0.43620716   38.60759123
     atom   24 type  1   force =     0.26102671   -2.83743227   -0.40340396
     atom   25 type  2   force =    -2.94731292   -1.22584425  -37.12976321
     atom   26 type  2   force =    -0.04406841   -0.07749659   38.00907566
     atom   27 type  1   force =    -0.44676989   -0.95558991    2.69363524
     atom   28 type  2   force =    -0.08185421   -1.75456060  -37.57687448
     atom   29 type  2   force =     0.21831513    0.02333212   37.84916158
     atom   30 type  1   force =     0.16692758    1.81811762    1.94486108
     atom   31 type  2   force =    -1.37943754    0.23602968  -37.03428240
     atom   32 type  2   force =     0.28623625    0.15988327   38.87914223
     atom   33 type  1   force =    -2.10553673    1.67510166    0.92423952
     atom   34 type  2   force =    -0.80976199    4.40711418  -36.83822003
     atom   35 type  2   force =     0.03518416   -0.19186310   38.34701853
     atom   36 type  3   force =    -1.29284588    0.70533286  -47.05487747
     The core correction contribution to forces
     atom    1 type  1   force =     0.00000000    0.00000000    0.00000000
     atom    2 type  2   force =    -0.01814726    0.01038394   -0.00291541
     atom    3 type  2   force =     0.00055089    0.00017258   -0.02096661
     atom    4 type  1   force =     0.00000000    0.00000000    0.00000000
     atom    5 type  2   force =    -0.00067681    0.00181285    0.02017943
     atom    6 type  2   force =     0.00053051   -0.00069030   -0.02115221
     atom    7 type  1   force =     0.00000000    0.00000000    0.00000000
     atom    8 type  2   force =    -0.00000695    0.00073844    0.02067127
     atom    9 type  2   force =     0.00029649    0.00067539   -0.02096653
     atom   10 type  1   force =     0.00000000    0.00000000    0.00000000
     atom   11 type  2   force =    -0.00038155   -0.00052652    0.02080955
     atom   12 type  2   force =     0.00128650    0.00150605   -0.02067186
     atom   13 type  1   force =     0.00000000    0.00000000    0.00000000
     atom   14 type  2   force =    -0.00063718    0.00001233    0.02076575
     atom   15 type  2   force =     0.00031353    0.00013601   -0.02063884
     atom   16 type  1   force =     0.00000000    0.00000000    0.00000000
     atom   17 type  2   force =     0.00005400    0.00132187    0.02030372
     atom   18 type  2   force =    -0.00002032   -0.00065955   -0.02091050
     atom   19 type  1   force =     0.00000000    0.00000000    0.00000000
     atom   20 type  2   force =     0.00014629    0.00080849   -0.02113173
     atom   21 type  1   force =     0.00000000    0.00000000    0.00000000
     atom   22 type  2   force =    -0.00019691   -0.00045281    0.02071685
     atom   23 type  2   force =    -0.00059361    0.00129531   -0.02088001
     atom   24 type  1   force =     0.00000000    0.00000000    0.00000000
     atom   25 type  2   force =    -0.00123248   -0.00055058    0.02152368
     atom   26 type  2   force =    -0.00038855    0.00043848   -0.02051945
     atom   27 type  1   force =     0.00000000    0.00000000    0.00000000
     atom   28 type  2   force =     0.00038321    0.00181396    0.02107600
     atom   29 type  2   force =    -0.00035378   -0.00062337   -0.02049762
     atom   30 type  1   force =     0.00000000    0.00000000    0.00000000
     atom   31 type  2   force =     0.00039773    0.00024009    0.02071208
     atom   32 type  2   force =    -0.00039199    0.00072400   -0.02103771
     atom   33 type  1   force =     0.00000000    0.00000000    0.00000000
     atom   34 type  2   force =     0.00005547   -0.00075883    0.02060644
     atom   35 type  2   force =     0.00002118    0.00103037   -0.02074405
     atom   36 type  3   force =     0.01355632   -0.00890054    0.01146342
     The Hubbard contrib.    to forces
     atom    1 type  1   force =     0.00000000    0.00000000    0.00000000
     atom    2 type  2   force =     0.00000000    0.00000000    0.00000000
     atom    3 type  2   force =     0.00000000    0.00000000    0.00000000
     atom    4 type  1   force =     0.00000000    0.00000000    0.00000000
     atom    5 type  2   force =     0.00000000    0.00000000    0.00000000
     atom    6 type  2   force =     0.00000000    0.00000000    0.00000000
     atom    7 type  1   force =     0.00000000    0.00000000    0.00000000
     atom    8 type  2   force =     0.00000000    0.00000000    0.00000000
     atom    9 type  2   force =     0.00000000    0.00000000    0.00000000
     atom   10 type  1   force =     0.00000000    0.00000000    0.00000000
     atom   11 type  2   force =     0.00000000    0.00000000    0.00000000
     atom   12 type  2   force =     0.00000000    0.00000000    0.00000000
     atom   13 type  1   force =     0.00000000    0.00000000    0.00000000
     atom   14 type  2   force =     0.00000000    0.00000000    0.00000000
     atom   15 type  2   force =     0.00000000    0.00000000    0.00000000
     atom   16 type  1   force =     0.00000000    0.00000000    0.00000000
     atom   17 type  2   force =     0.00000000    0.00000000    0.00000000
     atom   18 type  2   force =     0.00000000    0.00000000    0.00000000
     atom   19 type  1   force =     0.00000000    0.00000000    0.00000000
     atom   20 type  2   force =     0.00000000    0.00000000    0.00000000
     atom   21 type  1   force =     0.00000000    0.00000000    0.00000000
     atom   22 type  2   force =     0.00000000    0.00000000    0.00000000
     atom   23 type  2   force =     0.00000000    0.00000000    0.00000000
     atom   24 type  1   force =     0.00000000    0.00000000    0.00000000
     atom   25 type  2   force =     0.00000000    0.00000000    0.00000000
     atom   26 type  2   force =     0.00000000    0.00000000    0.00000000
     atom   27 type  1   force =     0.00000000    0.00000000    0.00000000
     atom   28 type  2   force =     0.00000000    0.00000000    0.00000000
     atom   29 type  2   force =     0.00000000    0.00000000    0.00000000
     atom   30 type  1   force =     0.00000000    0.00000000    0.00000000
     atom   31 type  2   force =     0.00000000    0.00000000    0.00000000
     atom   32 type  2   force =     0.00000000    0.00000000    0.00000000
     atom   33 type  1   force =     0.00000000    0.00000000    0.00000000
     atom   34 type  2   force =     0.00000000    0.00000000    0.00000000
     atom   35 type  2   force =     0.00000000    0.00000000    0.00000000
     atom   36 type  3   force =     0.00000000    0.00000000    0.00000000
     The SCF correction term to forces
     atom    1 type  1   force =    -0.00007713    0.00004631    0.00006411
     atom    2 type  2   force =    -0.00008642    0.00006161   -0.00008569
     atom    3 type  2   force =    -0.00000209    0.00000220    0.00003022
     atom    4 type  1   force =     0.00000295    0.00001601    0.00006312
     atom    5 type  2   force =    -0.00002450    0.00002045    0.00001819
     atom    6 type  2   force =    -0.00001667    0.00001429    0.00003758
     atom    7 type  1   force =     0.00000273   -0.00004245    0.00006506
     atom    8 type  2   force =     0.00000580   -0.00002778   -0.00002357
     atom    9 type  2   force =     0.00002410   -0.00001004    0.00006185
     atom   10 type  1   force =    -0.00003121   -0.00002140   -0.00001138
     atom   11 type  2   force =    -0.00004498   -0.00000153   -0.00000434
     atom   12 type  2   force =    -0.00000618   -0.00000031    0.00004987
     atom   13 type  1   force =     0.00001111    0.00002110    0.00007510
     atom   14 type  2   force =    -0.00004958    0.00001815   -0.00000527
     atom   15 type  2   force =    -0.00004160    0.00002283    0.00006507
     atom   16 type  1   force =    -0.00004559   -0.00004065    0.00008744
     atom   17 type  2   force =     0.00001656   -0.00001939   -0.00001778
     atom   18 type  2   force =     0.00000666   -0.00001746    0.00007126
     atom   19 type  1   force =    -0.00003001   -0.00003160    0.00007648
     atom   20 type  2   force =    -0.00000797   -0.00002722    0.00004499
     atom   21 type  1   force =    -0.00006494    0.00005991    0.00009830
     atom   22 type  2   force =     0.00002110    0.00001142   -0.00002083
     atom   23 type  2   force =    -0.00001413    0.00001338    0.00007609
     atom   24 type  1   force =     0.00007083    0.00004926    0.00002705
     atom   25 type  2   force =     0.00008860    0.00002692   -0.00008921
     atom   26 type  2   force =     0.00005393    0.00000809    0.00009387
     atom   27 type  1   force =     0.00004277   -0.00001631    0.00007211
     atom   28 type  2   force =     0.00000624    0.00002763   -0.00002106
     atom   29 type  2   force =     0.00000841    0.00002583    0.00005645
     atom   30 type  1   force =     0.00002280   -0.00008052    0.00000714
     atom   31 type  2   force =     0.00000253   -0.00001965   -0.00002763
     atom   32 type  2   force =    -0.00001482   -0.00000940    0.00007158
     atom   33 type  1   force =     0.00008859    0.00003468    0.00001116
     atom   34 type  2   force =     0.00002568   -0.00004274   -0.00013257
     atom   35 type  2   force =     0.00002270   -0.00002788    0.00008525
     atom   36 type  3   force =     0.00004307    0.00002640   -0.00017966

     Total force =     0.168138     Total SCF correction =     0.000511
     Energy error            =      3.9E-02 Ry
     Gradient error          =      9.0E-02 Ry/Bohr

     number of scf cycles    =   3
     number of bfgs steps    =   2

     energy             old  =   -2246.2408772679 Ry
     energy             new  =   -2246.2801459577 Ry

     CASE: energy            _new < energy            _old

     new trust radius        =       0.2347412535 bohr
     new conv_thr            =       0.0000000905 Ry


ATOMIC_POSITIONS (angstrom)
Mo            6.5745343895        1.7954908284        2.8274777164
S             8.3287436906        0.7086942520        4.4782362765
S             8.1645855940        0.8311240185        1.2643133818
Mo            8.1032102558        4.4885641914        2.7165666947
S             6.4949295386        3.7198283990        4.3367527608
S             6.5519687958        3.5216339045        1.1193846745
Mo            6.4955333082        7.1970792396        2.6650543764
S             8.0853187581        6.3321300585        4.2725033970
S             8.1005006916        6.3146561286        1.0976077668
Mo            8.1310376514        9.8914609617        2.7645994735
S             6.5040723110        8.9383765909        4.3668724217
S             6.6016793861        9.0449241319        1.1393437919
Mo            3.4414891840        1.7558475153        2.7538303639
S             4.9785131325        0.8197616228        4.3628526949
S             5.0434951952        0.8479777847        1.2059080121
Mo            4.9764806066        4.5352639760        2.6405528349
S             3.4400765472        3.6719117325        4.2853886524
S             3.4359373088        3.5432714383        1.0769557814
Mo            3.4619027595        7.1970796420        2.6282984643
S             4.9885069415        6.3195339296        1.0356740410
Mo            5.0076826399        9.9053039092        2.7463095578
S             3.4668107391        8.9395398295        4.3194555965
S             3.4145028399        9.0641543240        1.1054332579
Mo            0.2941312325        1.7640129834        2.7857405620
S             1.9238421809        0.8480786547        4.3572188238
S             1.8456971091        0.8519436442        1.1982190013
Mo            1.8572938875        4.4959293982        2.6756905261
S             0.2738321102        3.6502346959        4.3302111161
S             0.2401389348        3.5389326928        1.1607489463
Mo            0.2716276974        7.2076985031        2.6837416640
S             1.9021611298        6.3179869760        4.2491833845
S             1.8483410020        6.3218986863        1.0561786121
Mo            1.8621711748        9.9387875434        2.7611366588
S             0.3003705840        9.0176865806        4.3689500370
S             0.2664276469        9.0558894153        1.1692149926
O            -0.2051999427        0.0882582280        5.5147335580



     Writing config-only to output data dir ./MoS2-V-O.save/
     NEW-OLD atomic charge density approx. for the potential

     negative rho (up, down):  1.823E-04 0.000E+00

     total cpu time spent up to now is    13827.6 secs

     Self-consistent Calculation

     iteration #  1     ecut=    80.00 Ry     beta= 0.70
     Davidson diagonalization with overlap
     ethr =  1.00E-06,  avg # of iterations = 11.0

     negative rho (up, down):  1.682E-04 0.000E+00

     total cpu time spent up to now is    14258.4 secs

     total energy              =   -2246.31313689 Ry
     estimated scf accuracy    <       0.02258364 Ry

     iteration #  2     ecut=    80.00 Ry     beta= 0.70
     Davidson diagonalization with overlap
     ethr =  7.24E-06,  avg # of iterations =  5.0

     negative rho (up, down):  2.367E-04 0.000E+00

     total cpu time spent up to now is    14902.1 secs

     total energy              =   -2246.31974841 Ry
     estimated scf accuracy    <       0.01475866 Ry

     iteration #  3     ecut=    80.00 Ry     beta= 0.70
     Davidson diagonalization with overlap
     ethr =  4.73E-06,  avg # of iterations =  3.0

     negative rho (up, down):  3.304E-04 0.000E+00

     total cpu time spent up to now is    15537.7 secs

     total energy              =   -2246.32031785 Ry
     estimated scf accuracy    <       0.00151887 Ry

     iteration #  4     ecut=    80.00 Ry     beta= 0.70
     Davidson diagonalization with overlap
     ethr =  4.87E-07,  avg # of iterations =  5.0

     negative rho (up, down):  3.875E-04 0.000E+00

     total cpu time spent up to now is    16389.4 secs

     total energy              =   -2246.32054619 Ry
     estimated scf accuracy    <       0.00014263 Ry

     iteration #  5     ecut=    80.00 Ry     beta= 0.70
     Davidson diagonalization with overlap
     ethr =  4.57E-08,  avg # of iterations =  2.0

     negative rho (up, down):  4.142E-04 0.000E+00

     total cpu time spent up to now is    17052.6 secs

     total energy              =   -2246.32055024 Ry
     estimated scf accuracy    <       0.00004075 Ry

     iteration #  6     ecut=    80.00 Ry     beta= 0.70
     Davidson diagonalization with overlap
     ethr =  1.31E-08,  avg # of iterations =  4.0

     negative rho (up, down):  4.200E-04 0.000E+00

     total cpu time spent up to now is    17945.4 secs

     total energy              =   -2246.32055439 Ry
     estimated scf accuracy    <       0.00000453 Ry

     iteration #  7     ecut=    80.00 Ry     beta= 0.70
     Davidson diagonalization with overlap
     ethr =  1.45E-09,  avg # of iterations =  5.0
srun: Job step aborted: Waiting up to 32 seconds for job step to finish.
slurmstepd: error: *** STEP 650814.0 ON cpu118 CANCELLED AT 2023-11-02T15:41:40 ***
