
     Program PWSCF v.7.2 starts on  1Nov2023 at 19:23:16 

     This program is part of the open-source Quantum ESPRESSO suite
     for quantum simulation of materials; please cite
         "P. Giannozzi et al., J. Phys.:Condens. Matter 21 395502 (2009);
         "P. Giannozzi et al., J. Phys.:Condens. Matter 29 465901 (2017);
         "P. Giannozzi et al., J. Chem. Phys. 152 154105 (2020);
          URL http://www.quantum-espresso.org", 
     in publications or presentations arising from this work. More details at
     http://www.quantum-espresso.org/quote

     Parallel version (MPI & OpenMP), running on      48 processor cores
     Number of MPI processes:                48
     Threads/MPI process:                     1

     MPI processes distributed on     1 nodes
     75871 MiB available memory on the printing compute node when the environment starts
 
     Waiting for input...
     Reading input from standard input
Warning: card &CELL ignored
Warning: card CELL_DYNAMICS = 'BFGS', ignored
Warning: card CELL_DOFREE = '2DXY' ignored
Warning: card / ignored

     Current dimensions of program PWSCF are:
     Max number of different atomic species (ntypx) = 10
     Max number of k-points (npk) =  40000
     Max angular momentum in pseudopotentials (lmaxx) =  4
     file O.pbe-n-kjpaw_psl.0.1.UPF: wavefunction(s)  2P renormalized

     IMPORTANT: XC functional enforced from input :
     Exchange-correlation= RVV10
                           (   1   4  13   4  26   0   0)
     Any further DFT definition will be discarded
     Please, verify this is what you really want


     gamma-point specific algorithms are used
     signal trapping enabled: kill the code with -SIGUSR1 to stop cleanly the simulation 
 
     R & G space division:  proc/nbgrp/npool/nimage =      48
     Subspace diagonalization in iterative solution of the eigenvalue problem:
     one sub-group per band group will be used
     scalapack distributed-memory algorithm (size of sub-group:  2*  2 procs)

 
     Parallelization info
     --------------------
     sticks:   dense  smooth     PW     G-vecs:    dense   smooth      PW
     Min         396     194     47               101632    35090    4376
     Max         398     196     50               101674    35128    4410
     Sum       19091    9389   2349              4879585  1685513  210763
 
     Using Slab Decomposition
 


     bravais-lattice index     =            0
     lattice parameter (alat)  =      17.8707  a.u.
     unit-cell volume          =   17436.2743 (a.u.)^3
     number of atoms/cell      =           36
     number of atomic types    =            3
     number of electrons       =       312.00
     number of Kohn-Sham states=          187
     kinetic-energy cutoff     =      80.0000  Ry
     charge density cutoff     =     650.0000  Ry
     scf convergence threshold =      1.0E-06
     mixing beta               =       0.7000
     number of iterations used =            8  local-TF  mixing
     energy convergence thresh.=      1.0E-04
     force convergence thresh. =      1.0E-02
     Exchange-correlation= RVV10
                           (   1   4  13   4  26   0   0)
     nstep                     =          200


     celldm(1)=  17.870686  celldm(2)=   0.000000  celldm(3)=   0.000000
     celldm(4)=   0.000000  celldm(5)=   0.000000  celldm(6)=   0.000000

     crystal axes: (cart. coord. in units of alat)
               a(1) = (   1.000000   0.000000   0.000000 )  
               a(2) = (   0.000000   1.155671   0.000000 )  
               a(3) = (   0.000000   0.000000   2.643601 )  

     reciprocal axes: (cart. coord. in units 2 pi/alat)
               b(1) = (  1.000000  0.000000  0.000000 )  
               b(2) = (  0.000000  0.865298  0.000000 )  
               b(3) = (  0.000000  0.000000  0.378272 )  


     PseudoPot. # 1 for Mo read from file:
     ../pseudo/Mo_ONCV_PBE-1.0.oncvpsp.upf
     MD5 check sum: 1b5d28e075c9ccadda658a603575cd1f
     Pseudo is Norm-conserving, Zval = 14.0
     Generated using ONCVPSP code by D. R. Hamann
     Using radial grid of 1526 points,  6 beta functions with: 
                l(1) =   0
                l(2) =   0
                l(3) =   1
                l(4) =   1
                l(5) =   2
                l(6) =   2

     PseudoPot. # 2 for S  read from file:
     ../pseudo/s_pbe_v1.4.uspp.F.UPF
     MD5 check sum: 88d86576ff6df21479756cfb9bdac1df
     Pseudo is Ultrasoft + core correction, Zval =  6.0
     Generated by new atomic code, or converted to UPF format
     Using radial grid of  907 points,  6 beta functions with: 
                l(1) =   0
                l(2) =   0
                l(3) =   1
                l(4) =   1
                l(5) =   2
                l(6) =   2
     Q(r) pseudized with  8 coefficients,  rinner =    1.300   1.300   1.300
                                                       1.300   1.300

     PseudoPot. # 3 for O  read from file:
     ../pseudo/O.pbe-n-kjpaw_psl.0.1.UPF
     MD5 check sum: 0234752ac141de4415c5fc33072bef88
     Pseudo is Projector augmented-wave + core cor, Zval =  6.0
     Generated using "atomic" code by A. Dal Corso  v.5.0.99 svn rev. 10869
     Shape of augmentation charge: BESSEL
     Using radial grid of 1095 points,  4 beta functions with: 
                l(1) =   0
                l(2) =   0
                l(3) =   1
                l(4) =   1
     Q(r) pseudized with 0 coefficients 


     atomic species   valence    mass     pseudopotential
        Mo            14.00    95.94000     Mo( 1.00)
        S              6.00    32.06500     S ( 1.00)
        O              6.00    15.99940     O ( 1.00)

     No symmetry found



   Cartesian axes

     site n.     atom                  positions (alat units)
         1           Mo  tau(   1) = (   0.6952221   0.1890506   0.2985846  )
         2           S   tau(   2) = (   0.8646417   0.0856217   0.4689279  )
         3           S   tau(   3) = (   0.8663890   0.0857843   0.1351291  )
         4           Mo  tau(   4) = (   0.8560186   0.4753274   0.2873942  )
         5           S   tau(   5) = (   0.6873294   0.3936244   0.4596353  )
         6           S   tau(   6) = (   0.6929804   0.3713468   0.1185692  )
         7           Mo  tau(   7) = (   0.6862796   0.7633098   0.2825370  )
         8           S   tau(   8) = (   0.8545980   0.6708292   0.4486168  )
         9           S   tau(   9) = (   0.8545123   0.6666874   0.1146125  )
        10           Mo  tau(  10) = (   0.8629403   1.0471007   0.3006803  )
        11           S   tau(  11) = (   0.6868280   0.9456650   0.4634891  )
        12           S   tau(  12) = (   0.6998113   0.9568511   0.1205389  )
        13           Mo  tau(  13) = (   0.3618216   0.1847309   0.2935964  )
        14           S   tau(  14) = (   0.5260962   0.0863870   0.4600448  )
        15           S   tau(  15) = (   0.5348379   0.0894875   0.1297123  )
        16           Mo  tau(  16) = (   0.5265817   0.4772436   0.2784130  )
        17           S   tau(  17) = (   0.3624753   0.3882513   0.4525556  )
        18           S   tau(  18) = (   0.3635411   0.3752055   0.1119148  )
        19           Mo  tau(  19) = (   0.3652268   0.7630864   0.2781795  )
        20           S   tau(  20) = (   0.5269494   0.6690381   0.1096838  )
        21           Mo  tau(  21) = (   0.5300192   1.0470394   0.2900995  )
        22           S   tau(  22) = (   0.3670346   0.9457522   0.4574073  )
        23           S   tau(  23) = (   0.3604225   0.9585725   0.1159032  )
        24           Mo  tau(  24) = (   0.0313099   0.1847895   0.3013130  )
        25           S   tau(  25) = (   0.1956761   0.0838230   0.4650863  )
        26           S   tau(  26) = (   0.1967693   0.0903508   0.1278874  )
        27           Mo  tau(  27) = (   0.1967578   0.4753919   0.2813011  )
        28           S   tau(  28) = (   0.0287851   0.3864324   0.4586755  )
        29           S   tau(  29) = (   0.0244514   0.3729871   0.1239344  )
        30           Mo  tau(  30) = (   0.0286728   0.7631204   0.2856894  )
        31           S   tau(  31) = (   0.2011512   0.6675435   0.4465001  )
        32           S   tau(  32) = (   0.1969214   0.6672839   0.1104564  )
        33           Mo  tau(  33) = (   0.1950294   1.0511147   0.2932237  )
        34           S   tau(  34) = (   0.0312912   0.9612169   0.4667423  )
        35           S   tau(  35) = (   0.0292670   0.9563028   0.1216485  )
        36           O   tau(  36) = (   0.5555556   0.7704471   0.5656742  )

     number of k points=     1  Gaussian smearing, width (Ry)=  0.0100
                       cart. coord. in units 2pi/alat
        k(    1) = (   0.0000000   0.0000000   0.0000000), wk =   2.0000000

     Dense  grid:  2439793 G-vectors     FFT dimensions: ( 150, 180, 384)

     Smooth grid:   842757 G-vectors     FFT dimensions: ( 108, 120, 270)

     Estimated max dynamical RAM per process >     269.22 MB

     Estimated total dynamical RAM >      12.62 GB

     Initial potential from superposition of free atoms

     starting charge     311.9873, renormalised to     312.0000

     negative rho (up, down):  2.745E-04 0.000E+00


---------------------------------------------------------------------------------
Carrying out rVV10 run using the following parameters:
Nqs =      20    Nr_points =    1024   r_max =   100.000
b_value =  6.30000    beta =  0.00901
     q_mesh =  0.00010000  0.00030000  0.00058939  0.00100810
               0.00161396  0.00249058  0.00375900  0.00559430
               0.00824984  0.01209221  0.01765183  0.02569619
               0.03733578  0.05417739  0.07854596  0.11380545
               0.16482331  0.23864234  0.34545298  0.50000000

Gradients computed in Reciprocal space

---------------------------------------------------------------------------------


     Starting wfcs are  216 randomized atomic wfcs
     Checking if some PAW data can be deallocated... 

     total cpu time spent up to now is        5.3 secs

     Self-consistent Calculation

     iteration #  1     ecut=    80.00 Ry     beta= 0.70
     Davidson diagonalization with overlap
     ethr =  1.00E-02,  avg # of iterations =  2.0

     Threshold (ethr) on eigenvalues was too large:
     Diagonalizing with lowered threshold

     Davidson diagonalization with overlap
     ethr =  6.70E-04,  avg # of iterations =  2.0

     negative rho (up, down):  5.151E-05 0.000E+00

     total cpu time spent up to now is       21.0 secs

     total energy              =   -2245.99284311 Ry
     estimated scf accuracy    <       2.26735206 Ry

     iteration #  2     ecut=    80.00 Ry     beta= 0.70
     Davidson diagonalization with overlap
     ethr =  7.27E-04,  avg # of iterations =  2.0

     negative rho (up, down):  3.083E-06 0.000E+00

     total cpu time spent up to now is       29.8 secs

     total energy              =   -2245.81888722 Ry
     estimated scf accuracy    <      10.04742824 Ry

     iteration #  3     ecut=    80.00 Ry     beta= 0.70
     Davidson diagonalization with overlap
     ethr =  7.27E-04,  avg # of iterations =  2.0

     total cpu time spent up to now is       34.0 secs

     total energy              =   -2246.15704861 Ry
     estimated scf accuracy    <       0.63763522 Ry

     iteration #  4     ecut=    80.00 Ry     beta= 0.70
     Davidson diagonalization with overlap
     ethr =  2.04E-04,  avg # of iterations =  2.0

     total cpu time spent up to now is       38.0 secs

     total energy              =   -2246.21836886 Ry
     estimated scf accuracy    <       0.07677093 Ry

     iteration #  5     ecut=    80.00 Ry     beta= 0.70
     Davidson diagonalization with overlap
     ethr =  2.46E-05,  avg # of iterations = 18.0

     total cpu time spent up to now is       42.6 secs

     total energy              =   -2246.22466961 Ry
     estimated scf accuracy    <       0.02500469 Ry

     iteration #  6     ecut=    80.00 Ry     beta= 0.70
     Davidson diagonalization with overlap
     ethr =  8.01E-06,  avg # of iterations =  2.0

     total cpu time spent up to now is       46.6 secs

     total energy              =   -2246.22367648 Ry
     estimated scf accuracy    <       0.01582339 Ry

     iteration #  7     ecut=    80.00 Ry     beta= 0.70
     Davidson diagonalization with overlap
     ethr =  5.07E-06,  avg # of iterations =  2.0

     total cpu time spent up to now is       50.3 secs

     total energy              =   -2246.22295820 Ry
     estimated scf accuracy    <       0.00902866 Ry

     iteration #  8     ecut=    80.00 Ry     beta= 0.70
     Davidson diagonalization with overlap
     ethr =  2.89E-06,  avg # of iterations =  9.0

     negative rho (up, down):  6.055E-05 0.000E+00

     total cpu time spent up to now is       56.5 secs

     total energy              =   -2246.22181942 Ry
     estimated scf accuracy    <       0.00841323 Ry

     iteration #  9     ecut=    80.00 Ry     beta= 0.70
     Davidson diagonalization with overlap
     ethr =  2.70E-06,  avg # of iterations =  2.0

     negative rho (up, down):  8.652E-03 0.000E+00

     total cpu time spent up to now is       62.9 secs

     total energy              =   -2246.22130636 Ry
     estimated scf accuracy    <       0.00333179 Ry

     iteration # 10     ecut=    80.00 Ry     beta= 0.70
     Davidson diagonalization with overlap
     ethr =  1.07E-06,  avg # of iterations =  2.0

     negative rho (up, down):  9.881E-03 0.000E+00

     total cpu time spent up to now is       69.8 secs

     total energy              =   -2246.22104209 Ry
     estimated scf accuracy    <       0.00212850 Ry

     iteration # 11     ecut=    80.00 Ry     beta= 0.70
     Davidson diagonalization with overlap
     ethr =  6.82E-07,  avg # of iterations =  1.0

     negative rho (up, down):  1.751E-02 0.000E+00

     total cpu time spent up to now is       77.0 secs

     total energy              =   -2246.22115006 Ry
     estimated scf accuracy    <       0.00083038 Ry

     iteration # 12     ecut=    80.00 Ry     beta= 0.70
     Davidson diagonalization with overlap
     ethr =  2.66E-07,  avg # of iterations =  2.0

     negative rho (up, down):  1.131E-02 0.000E+00

     total cpu time spent up to now is       84.5 secs

     total energy              =   -2246.22110624 Ry
     estimated scf accuracy    <       0.00041363 Ry

     iteration # 13     ecut=    80.00 Ry     beta= 0.70
     Davidson diagonalization with overlap
     ethr =  1.33E-07,  avg # of iterations =  2.0

     negative rho (up, down):  3.416E-03 0.000E+00

     total cpu time spent up to now is       92.2 secs

     total energy              =   -2246.22114584 Ry
     estimated scf accuracy    <       0.00006369 Ry

     iteration # 14     ecut=    80.00 Ry     beta= 0.70
     Davidson diagonalization with overlap
     ethr =  2.04E-08,  avg # of iterations =  6.0

     negative rho (up, down):  2.229E-03 0.000E+00

     total cpu time spent up to now is      100.8 secs

     total energy              =   -2246.22117937 Ry
     estimated scf accuracy    <       0.00003697 Ry

     iteration # 15     ecut=    80.00 Ry     beta= 0.70
     Davidson diagonalization with overlap
     ethr =  1.18E-08,  avg # of iterations =  2.0

     negative rho (up, down):  1.243E-03 0.000E+00

     total cpu time spent up to now is      111.5 secs

     total energy              =   -2246.22119735 Ry
     estimated scf accuracy    <       0.00001479 Ry

     iteration # 16     ecut=    80.00 Ry     beta= 0.70
     Davidson diagonalization with overlap
     ethr =  4.74E-09,  avg # of iterations =  2.0

     negative rho (up, down):  6.713E-04 0.000E+00

     total cpu time spent up to now is      119.4 secs

     total energy              =   -2246.22120308 Ry
     estimated scf accuracy    <       0.00000452 Ry

     iteration # 17     ecut=    80.00 Ry     beta= 0.70
     Davidson diagonalization with overlap
     ethr =  1.45E-09,  avg # of iterations =  3.0

     negative rho (up, down):  3.355E-04 0.000E+00

     total cpu time spent up to now is      127.2 secs

     total energy              =   -2246.22120337 Ry
     estimated scf accuracy    <       0.00000247 Ry

     iteration # 18     ecut=    80.00 Ry     beta= 0.70
     Davidson diagonalization with overlap
     ethr =  7.92E-10,  avg # of iterations =  2.0

     negative rho (up, down):  1.548E-04 0.000E+00

     total cpu time spent up to now is      130.6 secs

     End of self-consistent calculation

          k = 0.0000 0.0000 0.0000 (105382 PWs)   bands (ev):

   -63.0697 -63.0535 -63.0468 -63.0380 -63.0343 -63.0189 -63.0109 -63.0000
   -62.9955 -62.9883 -62.9248 -62.9081 -37.4223 -37.3648 -37.3418 -37.3269
   -37.3000 -37.2823 -37.2743 -37.2596 -37.2400 -37.2332 -37.2298 -37.2264
   -37.2106 -37.2086 -37.2034 -37.1994 -37.1955 -37.1940 -37.1851 -37.1813
   -37.1732 -37.1715 -37.1670 -37.1287 -37.1201 -37.1097 -37.0913 -37.0802
   -37.0789 -37.0486 -37.0423 -37.0351 -36.9927 -36.9872 -36.9785 -36.9084
   -17.3834 -16.1007 -15.3236 -15.2854 -15.1246 -15.0596 -14.9114 -14.6532
   -14.6218 -14.5965 -14.5440 -14.5347 -14.4973 -14.4891 -14.4004 -14.2837
   -14.2832 -14.2540 -14.2459 -14.1491 -14.0306 -14.0166 -13.9905 -13.9377
    -7.8049  -7.6401  -7.4514  -7.4360  -7.4127  -7.3627  -7.3467  -7.2812
    -6.9886  -6.9676  -6.9142  -6.8866  -6.8245  -6.6735  -6.6332  -6.5902
    -6.5538  -6.4491  -6.4196  -6.1427  -6.0789  -6.0516  -6.0054  -5.9772
    -5.9214  -5.8930  -5.8707  -5.8251  -5.8114  -5.7696  -5.6855  -5.6752
    -5.6135  -5.5640  -5.5380  -5.3246  -5.3112  -5.2127  -5.1804  -5.1646
    -5.0834  -5.0627  -4.9869  -4.8475  -4.6863  -4.4928  -4.4601  -4.4382
    -4.3965  -4.3032  -4.2551  -4.1648  -4.0192  -3.9836  -3.9189  -3.8796
    -3.8365  -3.7994  -3.7356  -3.6936  -3.6593  -3.6359  -3.6251  -3.5865
    -3.5507  -3.5200  -3.3466  -3.2570  -3.2158  -3.0549  -3.0128  -2.9864
    -2.9439  -2.8791  -2.8312  -2.8143  -2.7944  -2.7774  -2.6969  -2.3987
    -2.1897  -2.1801  -1.8449  -1.6634  -1.5577  -0.9283  -0.7571  -0.3477
    -0.2993  -0.2648  -0.1948  -0.1315  -0.0117   0.0082   0.0691   0.1201
     0.1453   0.2113   0.2406   0.2939   0.3768   0.3828   0.4146   0.4368
     0.5007   0.5820   0.5865   0.6143   0.6310   0.7037   0.7128   0.7595
     0.8443   0.8767   0.9883

     the Fermi energy is    -1.6096 ev

!    total energy              =   -2246.22120320 Ry
     estimated scf accuracy    <       0.00000026 Ry
     smearing contrib. (-TS)   =      -0.00998682 Ry
     internal energy E=F+TS    =   -2246.21121638 Ry

     The total energy is F=E-TS. E is the sum of the following terms:
     one-electron contribution =  -18430.38768343 Ry
     hartree contribution      =    9202.76802666 Ry
     xc contribution           =    -391.70471990 Ry
     ewald contribution        =    7382.98976345 Ry
     one-center paw contrib.   =      -9.87660316 Ry

     convergence has been achieved in  18 iterations

     negative rho (up, down):  1.548E-04 0.000E+00

     Forces acting on atoms (cartesian axes, Ry/au):

     atom    1 type  1   force =     0.01383915   -0.02324915    0.00612572
     atom    2 type  2   force =    -0.01642555    0.01634694   -0.00127147
     atom    3 type  2   force =    -0.01117007    0.00777599   -0.00028323
     atom    4 type  1   force =     0.00410862    0.00332996   -0.00096997
     atom    5 type  2   force =    -0.00332941   -0.00688909   -0.00630807
     atom    6 type  2   force =     0.00086023    0.00977680    0.00035875
     atom    7 type  1   force =     0.01067431   -0.00345052    0.04345930
     atom    8 type  2   force =     0.00470118    0.00368507    0.01113293
     atom    9 type  2   force =     0.01163287    0.00516627    0.01089249
     atom   10 type  1   force =    -0.00799110    0.01296124   -0.03885384
     atom   11 type  2   force =    -0.00884539   -0.01167299    0.00552814
     atom   12 type  2   force =    -0.00187045    0.00153627    0.00438310
     atom   13 type  1   force =     0.00374537    0.00603537   -0.00552852
     atom   14 type  2   force =     0.00730086    0.00082877    0.01256153
     atom   15 type  2   force =    -0.01151555    0.00479774   -0.01242489
     atom   16 type  1   force =    -0.00135362   -0.00218840    0.00097210
     atom   17 type  2   force =     0.00808887   -0.00068907    0.00121234
     atom   18 type  2   force =    -0.00264764   -0.00723864    0.01377145
     atom   19 type  1   force =    -0.00184489   -0.00559027    0.02798724
     atom   20 type  2   force =     0.00222434   -0.00645196    0.00210630
     atom   21 type  1   force =    -0.00396134    0.00432974    0.00852384
     atom   22 type  2   force =    -0.00893896    0.00217248   -0.00944918
     atom   23 type  2   force =    -0.00075313    0.00199400    0.00721686
     atom   24 type  1   force =    -0.00965768   -0.00110737   -0.02347857
     atom   25 type  2   force =     0.01777763    0.01792430    0.00556180
     atom   26 type  2   force =    -0.01112446   -0.00111422   -0.00141244
     atom   27 type  1   force =     0.00051310    0.00019209    0.00568387
     atom   28 type  2   force =     0.00075075   -0.00052122   -0.00377389
     atom   29 type  2   force =     0.00250552    0.00032283   -0.00190172
     atom   30 type  1   force =    -0.00319636    0.00022266    0.00582904
     atom   31 type  2   force =    -0.00000661    0.00657628    0.01135920
     atom   32 type  2   force =    -0.00784136    0.00803635    0.00824145
     atom   33 type  1   force =     0.01496863   -0.00419761   -0.01491986
     atom   34 type  2   force =     0.00379900   -0.04371120   -0.00990156
     atom   35 type  2   force =    -0.00855629    0.01092837    0.01195980
     atom   36 type  3   force =     0.01353943   -0.00686778   -0.07439004
     The non-local contrib.  to forces
     atom    1 type  1   force =     0.00091010    0.02905611   -0.01134683
     atom    2 type  2   force =    -0.00994223   -0.00023318   -0.27422044
     atom    3 type  2   force =    -0.01360060   -0.00286925    0.26740092
     atom    4 type  1   force =    -0.00126655    0.00422479    0.00344000
     atom    5 type  2   force =     0.00868517   -0.03322647   -0.26166920
     atom    6 type  2   force =    -0.00673345    0.01112351    0.26468516
     atom    7 type  1   force =    -0.01149353    0.00615650   -0.01711785
     atom    8 type  2   force =     0.01095197   -0.00959737   -0.26582366
     atom    9 type  2   force =     0.00818340   -0.00320083    0.27929808
     atom   10 type  1   force =    -0.00836322    0.00850037    0.00323794
     atom   11 type  2   force =    -0.07498579   -0.09601377   -0.23663870
     atom   12 type  2   force =    -0.01099140   -0.02316478    0.26597797
     atom   13 type  1   force =    -0.00171233    0.01548487   -0.00784738
     atom   14 type  2   force =     0.01167165   -0.01068063   -0.26757966
     atom   15 type  2   force =    -0.01374085   -0.00458824    0.26041824
     atom   16 type  1   force =     0.00029677    0.01334005   -0.03341676
     atom   17 type  2   force =     0.00118298   -0.02945043   -0.25652435
     atom   18 type  2   force =     0.00029271   -0.00419413    0.27608253
     atom   19 type  1   force =     0.00060981    0.00623448   -0.02022296
     atom   20 type  2   force =    -0.00129061   -0.02128428    0.26348386
     atom   21 type  1   force =     0.00527263    0.01453122    0.01709516
     atom   22 type  2   force =     0.01363949    0.00332191   -0.28065493
     atom   23 type  2   force =     0.00476853   -0.02103984    0.26997846
     atom   24 type  1   force =     0.00666281    0.00738235   -0.00877755
     atom   25 type  2   force =     0.01003034    0.00322465   -0.26353762
     atom   26 type  2   force =    -0.00254007   -0.01222275    0.26014664
     atom   27 type  1   force =    -0.00201146    0.00789926    0.00811598
     atom   28 type  2   force =    -0.00468220   -0.02259661   -0.27324954
     atom   29 type  2   force =     0.00688197    0.00586988    0.25929875
     atom   30 type  1   force =     0.00277316    0.01983218    0.00353408
     atom   31 type  2   force =    -0.01120163    0.00026556   -0.25731603
     atom   32 type  2   force =    -0.00248306   -0.00367329    0.27409916
     atom   33 type  1   force =     0.00539443    0.01315168    0.00879379
     atom   34 type  2   force =     0.00211611   -0.03952644   -0.27319608
     atom   35 type  2   force =    -0.00352676   -0.01270668    0.27022516
     atom   36 type  3   force =     0.12932739    0.15721954   -0.51253485
     The ionic contribution  to forces
     atom    1 type  1   force =     0.62266045    0.24676355    4.60929335
     atom    2 type  2   force =    -0.45390108    0.67340404   39.09090116
     atom    3 type  2   force =    -0.08907879    0.11239436  -36.59381989
     atom    4 type  1   force =     0.79766325   -0.34980577   -0.83958056
     atom    5 type  2   force =    -0.62874356    0.56710974   38.35085856
     atom    6 type  2   force =     0.41989229   -0.69416853  -38.65081395
     atom    7 type  1   force =    -0.62141342   -2.88929923   -2.57985107
     atom    8 type  2   force =     0.44020808   -0.53290606   36.62359925
     atom    9 type  2   force =     0.54226909   -0.14571494  -38.79981926
     atom   10 type  1   force =    -0.30148325    0.67051260    4.13229026
     atom   11 type  2   force =     1.40882382    1.09568294   37.46774932
     atom   12 type  2   force =     0.60779779    0.94480282  -38.78486201
     atom   13 type  1   force =     0.20262854    1.02427095    1.79610904
     atom   14 type  2   force =     0.01161131    0.50084951   38.23182088
     atom   15 type  2   force =     0.14702035    0.07236554  -37.39123664
     atom   16 type  1   force =    -0.19616255    2.14648248   -1.96738356
     atom   17 type  2   force =     0.43590581    0.76754326   37.57355829
     atom   18 type  2   force =    -0.24885144   -0.82054602  -39.16841271
     atom   19 type  1   force =     0.68065699   -2.52684201   -3.30769102
     atom   20 type  2   force =     0.18451453   -0.37554402  -39.60999562
     atom   21 type  1   force =    -0.14286290    2.09490749   -1.51498438
     atom   22 type  2   force =    -1.30602459    0.01007893   37.26382940
     atom   23 type  2   force =    -0.26951358    0.88679466  -39.14697997
     atom   24 type  1   force =    -0.50816969    1.15951287    4.97892992
     atom   25 type  2   force =     0.48867466    0.51408642   39.08361597
     atom   26 type  2   force =    -0.34789402    0.14702970  -37.82612272
     atom   27 type  1   force =    -0.50141328   -0.34406263   -3.60805894
     atom   28 type  2   force =     0.10177000    0.70033759   38.00052060
     atom   29 type  2   force =    -0.24788908   -0.54399626  -37.77060045
     atom   30 type  1   force =    -0.12629465   -0.92423189   -1.62057653
     atom   31 type  2   force =     0.29500245   -0.43907637   36.77605192
     atom   32 type  2   force =    -0.63244094   -0.09755638  -39.35770331
     atom   33 type  1   force =     0.20947149   -0.06084462    0.69962376
     atom   34 type  2   force =     0.35227130   -1.07274880   39.07522134
     atom   35 type  2   force =    -0.27258494    0.60596574  -38.43588010
     atom   36 type  3   force =    -1.05412044   -3.12355168   43.22039966
     The local contribution  to forces
     atom    1 type  1   force =    -0.60975553   -0.29888932   -4.59204174
     atom    2 type  2   force =     0.44720148   -0.65670294  -38.83901711
     atom    3 type  2   force =     0.09088895   -0.10171050   36.34664756
     atom    4 type  1   force =    -0.79218888    0.34873002    0.83479137
     atom    5 type  2   force =     0.61748971   -0.54285347  -38.11663436
     atom    6 type  2   force =    -0.41287623    0.69394955   38.40721602
     atom    7 type  1   force =     0.64330349    2.87928885    2.63973470
     atom    8 type  2   force =    -0.44541541    0.54529468  -36.36815350
     atom    9 type  2   force =    -0.53859620    0.15378920   38.55226730
     atom   10 type  1   force =     0.30207009   -0.66577029   -4.17483664
     atom   11 type  2   force =    -1.34569300   -1.01472648  -37.24577174
     atom   12 type  2   force =    -0.59980714   -0.92177540   38.54385592
     atom   13 type  1   force =    -0.19717296   -1.03358881   -1.79401156
     atom   14 type  2   force =    -0.01542738   -0.48930419  -37.97273327
     atom   15 type  2   force =    -0.14556571   -0.06323101   37.13868676
     atom   16 type  1   force =     0.19439344   -2.16188594    2.00127677
     atom   17 type  2   force =    -0.42909142   -0.74046778  -37.33668811
     atom   18 type  2   force =     0.24608853    0.81801394   38.92707950
     atom   19 type  1   force =    -0.68305204    2.51478337    3.35537636
     atom   20 type  2   force =    -0.18123128    0.38941813   39.36961052
     atom   21 type  1   force =     0.13337836   -2.10487821    1.50588076
     atom   22 type  2   force =     1.28347598   -0.00997855  -37.01502512
     atom   23 type  2   force =     0.26444021   -0.86534599   38.90490269
     atom   24 type  1   force =     0.49189813   -1.16782207   -4.99382101
     atom   25 type  2   force =    -0.48078848   -0.49896407  -38.83553426
     atom   26 type  2   force =     0.33950614   -0.13650988   37.58507435
     atom   27 type  1   force =     0.50397758    0.33624108    3.60529287
     atom   28 type  2   force =    -0.09660549   -0.67997917  -37.75211429
     atom   29 type  2   force =     0.24410763    0.53928444   37.52957776
     atom   30 type  1   force =     0.12051885    0.90445285    1.62245772
     atom   31 type  2   force =    -0.28469088    0.44521935  -36.52848265
     atom   32 type  2   force =     0.62723439    0.10894617   39.11268756
     atom   33 type  1   force =    -0.19982835    0.04360244   -0.72363462
     atom   34 type  2   force =    -0.35074398    1.06724438  -38.83320387
     atom   35 type  2   force =     0.26762958   -0.58347923   38.19839370
     atom   36 type  3   force =     0.93971906    2.96104777  -42.78817743
     The core correction contribution to forces
     atom    1 type  1   force =     0.00000000    0.00000000    0.00000000
     atom    2 type  2   force =     0.00025017   -0.00000729    0.02098035
     atom    3 type  2   force =     0.00062978    0.00001692   -0.02076580
     atom    4 type  1   force =     0.00000000    0.00000000    0.00000000
     atom    5 type  2   force =    -0.00076348    0.00197624    0.02098095
     atom    6 type  2   force =     0.00054610   -0.00111150   -0.02094987
     atom    7 type  1   force =     0.00000000    0.00000000    0.00000000
     atom    8 type  2   force =    -0.00088291    0.00078292    0.02139695
     atom    9 type  2   force =    -0.00016620    0.00022729   -0.02113671
     atom   10 type  1   force =     0.00000000    0.00000000    0.00000000
     atom   11 type  2   force =     0.00298520    0.00349668    0.02014696
     atom   12 type  2   force =     0.00107405    0.00171989   -0.02097274
     atom   13 type  1   force =     0.00000000    0.00000000    0.00000000
     atom   14 type  2   force =    -0.00059968    0.00004681    0.02092942
     atom   15 type  2   force =     0.00074059    0.00026755   -0.02053338
     atom   16 type  1   force =     0.00000000    0.00000000    0.00000000
     atom   17 type  2   force =     0.00006063    0.00160335    0.02070090
     atom   18 type  2   force =    -0.00016314   -0.00049283   -0.02115600
     atom   19 type  1   force =     0.00000000    0.00000000    0.00000000
     atom   20 type  2   force =     0.00020072    0.00086237   -0.02120111
     atom   21 type  1   force =     0.00000000    0.00000000    0.00000000
     atom   22 type  2   force =    -0.00013227   -0.00116539    0.02223987
     atom   23 type  2   force =    -0.00043996    0.00162017   -0.02095084
     atom   24 type  1   force =     0.00000000    0.00000000    0.00000000
     atom   25 type  2   force =    -0.00012693   -0.00037372    0.02090989
     atom   26 type  2   force =    -0.00017875    0.00060415   -0.02072931
     atom   27 type  1   force =     0.00000000    0.00000000    0.00000000
     atom   28 type  2   force =     0.00029121    0.00168556    0.02093954
     atom   29 type  2   force =    -0.00058292   -0.00083195   -0.02038460
     atom   30 type  1   force =     0.00000000    0.00000000    0.00000000
     atom   31 type  2   force =     0.00079635    0.00010090    0.02097320
     atom   32 type  2   force =    -0.00017578    0.00028011   -0.02107626
     atom   33 type  1   force =     0.00000000    0.00000000    0.00000000
     atom   34 type  2   force =     0.00025945    0.00131584    0.02121500
     atom   35 type  2   force =    -0.00002408    0.00112928   -0.02105084
     atom   36 type  3   force =    -0.00142133   -0.00154499    0.00576718
     The Hubbard contrib.    to forces
     atom    1 type  1   force =     0.00000000    0.00000000    0.00000000
     atom    2 type  2   force =     0.00000000    0.00000000    0.00000000
     atom    3 type  2   force =     0.00000000    0.00000000    0.00000000
     atom    4 type  1   force =     0.00000000    0.00000000    0.00000000
     atom    5 type  2   force =     0.00000000    0.00000000    0.00000000
     atom    6 type  2   force =     0.00000000    0.00000000    0.00000000
     atom    7 type  1   force =     0.00000000    0.00000000    0.00000000
     atom    8 type  2   force =     0.00000000    0.00000000    0.00000000
     atom    9 type  2   force =     0.00000000    0.00000000    0.00000000
     atom   10 type  1   force =     0.00000000    0.00000000    0.00000000
     atom   11 type  2   force =     0.00000000    0.00000000    0.00000000
     atom   12 type  2   force =     0.00000000    0.00000000    0.00000000
     atom   13 type  1   force =     0.00000000    0.00000000    0.00000000
     atom   14 type  2   force =     0.00000000    0.00000000    0.00000000
     atom   15 type  2   force =     0.00000000    0.00000000    0.00000000
     atom   16 type  1   force =     0.00000000    0.00000000    0.00000000
     atom   17 type  2   force =     0.00000000    0.00000000    0.00000000
     atom   18 type  2   force =     0.00000000    0.00000000    0.00000000
     atom   19 type  1   force =     0.00000000    0.00000000    0.00000000
     atom   20 type  2   force =     0.00000000    0.00000000    0.00000000
     atom   21 type  1   force =     0.00000000    0.00000000    0.00000000
     atom   22 type  2   force =     0.00000000    0.00000000    0.00000000
     atom   23 type  2   force =     0.00000000    0.00000000    0.00000000
     atom   24 type  1   force =     0.00000000    0.00000000    0.00000000
     atom   25 type  2   force =     0.00000000    0.00000000    0.00000000
     atom   26 type  2   force =     0.00000000    0.00000000    0.00000000
     atom   27 type  1   force =     0.00000000    0.00000000    0.00000000
     atom   28 type  2   force =     0.00000000    0.00000000    0.00000000
     atom   29 type  2   force =     0.00000000    0.00000000    0.00000000
     atom   30 type  1   force =     0.00000000    0.00000000    0.00000000
     atom   31 type  2   force =     0.00000000    0.00000000    0.00000000
     atom   32 type  2   force =     0.00000000    0.00000000    0.00000000
     atom   33 type  1   force =     0.00000000    0.00000000    0.00000000
     atom   34 type  2   force =     0.00000000    0.00000000    0.00000000
     atom   35 type  2   force =     0.00000000    0.00000000    0.00000000
     atom   36 type  3   force =     0.00000000    0.00000000    0.00000000
     The SCF correction term to forces
     atom    1 type  1   force =     0.00002347   -0.00017933    0.00018531
     atom    2 type  2   force =    -0.00003454   -0.00011353    0.00004894
     atom    3 type  2   force =    -0.00001007   -0.00005541    0.00021836
     atom    4 type  1   force =    -0.00009985    0.00018106    0.00034360
     atom    5 type  2   force =     0.00000209    0.00010502    0.00012036
     atom    6 type  2   force =     0.00003086   -0.00001609    0.00018577
     atom    7 type  1   force =     0.00027712    0.00040352    0.00065791
     atom    8 type  2   force =    -0.00016121    0.00011105    0.00007827
     atom    9 type  2   force =    -0.00005788    0.00006570    0.00024747
     atom   10 type  1   force =    -0.00021538   -0.00028130    0.00041899
     atom   11 type  2   force =     0.00002372   -0.00011220    0.00000668
     atom   12 type  2   force =     0.00005560   -0.00004611    0.00034835
     atom   13 type  1   force =     0.00000146   -0.00013149    0.00018575
     atom   14 type  2   force =     0.00004430   -0.00008258    0.00008854
     atom   15 type  2   force =     0.00002943   -0.00001595    0.00020450
     atom   16 type  1   force =     0.00011807   -0.00012484    0.00046004
     atom   17 type  2   force =     0.00003022    0.00008269    0.00012999
     atom   18 type  2   force =    -0.00001495   -0.00001944    0.00014251
     atom   19 type  1   force =    -0.00006031    0.00023403    0.00048924
     atom   20 type  2   force =     0.00003033    0.00009598    0.00017303
     atom   21 type  1   force =     0.00024992   -0.00023062    0.00049668
     atom   22 type  2   force =     0.00010177   -0.00008428    0.00012597
     atom   23 type  2   force =    -0.00000899   -0.00003486    0.00023089
     atom   24 type  1   force =    -0.00004958   -0.00018038    0.00015446
     atom   25 type  2   force =    -0.00001262   -0.00004884    0.00007219
     atom   26 type  2   force =    -0.00001841   -0.00001530    0.00018297
     atom   27 type  1   force =    -0.00004039    0.00011453    0.00029834
     atom   28 type  2   force =    -0.00002343    0.00003156    0.00009419
     atom   29 type  2   force =    -0.00001273   -0.00000314    0.00017120
     atom   30 type  1   force =    -0.00019437    0.00016966    0.00037816
     atom   31 type  2   force =     0.00008645    0.00006698    0.00009715
     atom   32 type  2   force =     0.00002337    0.00003989    0.00019868
     atom   33 type  1   force =    -0.00006960   -0.00010696    0.00026159
     atom   34 type  2   force =    -0.00010454    0.00000396    0.00002644
     atom   35 type  2   force =    -0.00005075    0.00001940    0.00023626
     atom   36 type  3   force =     0.00003410   -0.00003828    0.00011978

     Total force =     0.137163     Total SCF correction =     0.001860

     BFGS Geometry Optimization
     Energy error            =      0.0E+00 Ry
     Gradient error          =      7.4E-02 Ry/Bohr

     number of scf cycles    =   1
     number of bfgs steps    =   0

     energy             new  =   -2246.2212032000 Ry

     new trust radius        =       0.0759233883 bohr
     new conv_thr            =       0.0000010000 Ry


ATOMIC_POSITIONS (angstrom)
Mo            6.5818717702        1.7755033114        2.8268846229
S             8.1680173143        0.8183544538        4.4338655220
S             8.1873221371        0.8153566216        1.2777335498
Mo            8.0973367523        4.4968190809        2.7173051100
S             6.4981474095        3.7187659369        4.3433225635
S             6.5538050123        3.5169112145        1.1214700701
Mo            6.4956303005        7.2166113500        2.6948821535
S             8.0842154862        6.3458210478        4.2483528562
S             8.0870734947        6.3074361865        1.0896270571
Mo            8.1563903385        9.9090392035        2.8229011961
S             6.4904868169        8.9367497337        4.3860309000
S             6.6169573993        9.0495241698        1.1422267418
Mo            3.4236416263        1.7501496310        2.7735455950
S             4.9790289405        0.8173797768        4.3571803679
S             5.0517399897        0.8488009617        1.2200834898
Mo            4.9790403768        4.5120199534        2.6333989648
S             3.4321221083        3.6712350464        4.2803511209
S             3.4365195121        3.5443981752        1.0656392193
Mo            3.4528854653        7.2133662941        2.6454870693
S             4.9844112606        6.3235180581        1.0383683353
Mo            5.0101676713        9.9038912523        2.7479115807
S             3.4662278218        8.9449008944        4.3205910236
S             3.4080306272        9.0660451619        1.0998872949
Mo            0.2909798638        1.7469235353        2.8370203865
S             1.8598697281        0.8021791364        4.4011526180
S             1.8549132221        0.8538362969        1.2086534215
Mo            1.8609628324        4.4957684100        2.6632051527
S             0.2726111305        3.6541230065        4.3355870419
S             0.2325570732        3.5274200587        1.1710115353
Mo            0.2694607125        7.2167639184        2.7047810252
S             1.9022347504        6.3162788501        4.2284551517
S             1.8580887438        6.3145964656        1.0489204694
Mo            1.8522677191        9.9379178758        2.7650510011
S             0.2979232437        9.0668668543        4.4086297870
S             0.2722436045        9.0493087602        1.1567296309
O             5.2609203114        7.2822990597        5.3100791938



     Writing config-only to output data dir ./MoS2-V-O.save/
     NEW-OLD atomic charge density approx. for the potential

     negative rho (up, down):  1.763E-04 0.000E+00

     total cpu time spent up to now is      137.9 secs

     Self-consistent Calculation

     iteration #  1     ecut=    80.00 Ry     beta= 0.70
     Davidson diagonalization with overlap
     ethr =  1.00E-06,  avg # of iterations =  7.0

     negative rho (up, down):  1.017E-04 0.000E+00

     total cpu time spent up to now is      149.3 secs

     total energy              =   -2246.23733714 Ry
     estimated scf accuracy    <       0.00251453 Ry

     iteration #  2     ecut=    80.00 Ry     beta= 0.70
     Davidson diagonalization with overlap
     ethr =  8.06E-07,  avg # of iterations =  7.0

     negative rho (up, down):  8.822E-05 0.000E+00

     total cpu time spent up to now is      160.8 secs

     total energy              =   -2246.23712172 Ry
     estimated scf accuracy    <       0.02022951 Ry

     iteration #  3     ecut=    80.00 Ry     beta= 0.70
     Davidson diagonalization with overlap
     ethr =  8.06E-07,  avg # of iterations =  5.0

     negative rho (up, down):  3.751E-05 0.000E+00

     total cpu time spent up to now is      178.3 secs

     total energy              =   -2246.23780634 Ry
     estimated scf accuracy    <       0.00022338 Ry

     iteration #  4     ecut=    80.00 Ry     beta= 0.70
     Davidson diagonalization with overlap
     ethr =  7.16E-08,  avg # of iterations =  6.0

     negative rho (up, down):  2.773E-05 0.000E+00

     total cpu time spent up to now is      194.9 secs

     total energy              =   -2246.23783920 Ry
     estimated scf accuracy    <       0.00001474 Ry

     iteration #  5     ecut=    80.00 Ry     beta= 0.70
     Davidson diagonalization with overlap
     ethr =  4.72E-09,  avg # of iterations =  6.0

     negative rho (up, down):  2.511E-05 0.000E+00

     total cpu time spent up to now is      209.0 secs

     total energy              =   -2246.23784519 Ry
     estimated scf accuracy    <       0.00000472 Ry

     iteration #  6     ecut=    80.00 Ry     beta= 0.70
     Davidson diagonalization with overlap
     ethr =  1.51E-09,  avg # of iterations =  2.0

     negative rho (up, down):  2.483E-05 0.000E+00

     total cpu time spent up to now is      221.5 secs

     total energy              =   -2246.23784550 Ry
     estimated scf accuracy    <       0.00000263 Ry

     iteration #  7     ecut=    80.00 Ry     beta= 0.70
     Davidson diagonalization with overlap
     ethr =  8.44E-10,  avg # of iterations =  2.0

     negative rho (up, down):  2.871E-05 0.000E+00

     total cpu time spent up to now is      235.9 secs

     total energy              =   -2246.23784575 Ry
     estimated scf accuracy    <       0.00000307 Ry

     iteration #  8     ecut=    80.00 Ry     beta= 0.70
     Davidson diagonalization with overlap
     ethr =  8.44E-10,  avg # of iterations =  2.0

     negative rho (up, down):  1.543E-04 0.000E+00

     total cpu time spent up to now is      239.2 secs

     End of self-consistent calculation

          k = 0.0000 0.0000 0.0000 (105382 PWs)   bands (ev):

   -63.0679 -63.0511 -63.0438 -63.0384 -63.0273 -63.0191 -63.0054 -62.9924
   -62.9883 -62.9824 -62.9130 -62.9042 -37.4156 -37.3601 -37.3396 -37.3225
   -37.2924 -37.2786 -37.2693 -37.2575 -37.2373 -37.2295 -37.2239 -37.2213
   -37.2104 -37.2046 -37.1990 -37.1970 -37.1925 -37.1878 -37.1788 -37.1774
   -37.1683 -37.1681 -37.1626 -37.1203 -37.1125 -37.1029 -37.0841 -37.0753
   -37.0710 -37.0469 -37.0378 -37.0285 -36.9889 -36.9827 -36.9741 -36.9001
   -17.4715 -16.0957 -15.3152 -15.2854 -15.1202 -15.0454 -14.9103 -14.6440
   -14.6178 -14.5850 -14.5431 -14.5394 -14.4873 -14.4774 -14.3937 -14.2765
   -14.2747 -14.2578 -14.2439 -14.1468 -14.0257 -13.9998 -13.9904 -13.9416
    -7.7986  -7.6373  -7.4565  -7.4381  -7.3960  -7.3581  -7.3444  -7.2799
    -6.9832  -6.9621  -6.9163  -6.8822  -6.8073  -6.6729  -6.6442  -6.5810
    -6.5407  -6.4484  -6.4183  -6.1373  -6.0770  -6.0454  -6.0020  -5.9747
    -5.9220  -5.8963  -5.8607  -5.8141  -5.8086  -5.7680  -5.6844  -5.6694
    -5.6115  -5.5538  -5.5314  -5.3170  -5.3083  -5.2014  -5.1744  -5.1576
    -5.0865  -5.0648  -4.9864  -4.8474  -4.6867  -4.4796  -4.4478  -4.4353
    -4.3877  -4.3126  -4.2621  -4.1598  -4.0211  -3.9864  -3.9114  -3.8622
    -3.8319  -3.8065  -3.7238  -3.6914  -3.6633  -3.6396  -3.6213  -3.5820
    -3.5497  -3.5104  -3.3485  -3.2638  -3.2439  -3.0473  -3.0124  -2.9823
    -2.9420  -2.8777  -2.8479  -2.8138  -2.7940  -2.7828  -2.6922  -2.4014
    -2.1942  -2.1819  -1.8795  -1.6687  -1.5492  -0.9118  -0.7071  -0.3349
    -0.2966  -0.2461  -0.1878  -0.1137  -0.0122   0.0172   0.0713   0.1488
     0.1634   0.2251   0.2462   0.2963   0.3864   0.3999   0.4197   0.4447
     0.5047   0.5727   0.6032   0.6162   0.6410   0.7056   0.7180   0.7638
     0.8377   0.8754   0.9835

     the Fermi energy is    -1.6086 ev

!    total energy              =   -2246.23784573 Ry
     estimated scf accuracy    <       0.00000077 Ry
     smearing contrib. (-TS)   =      -0.00941343 Ry
     internal energy E=F+TS    =   -2246.22843231 Ry

     The total energy is F=E-TS. E is the sum of the following terms:
     one-electron contribution =  -18439.90763244 Ry
     hartree contribution      =    9207.62066493 Ry
     xc contribution           =    -391.71426510 Ry
     ewald contribution        =    7387.64929717 Ry
     one-center paw contrib.   =      -9.87649686 Ry

     convergence has been achieved in   8 iterations

     negative rho (up, down):  1.543E-04 0.000E+00

     Forces acting on atoms (cartesian axes, Ry/au):

     atom    1 type  1   force =     0.00381926   -0.01151592    0.00068364
     atom    2 type  2   force =    -0.01009605    0.00967148   -0.00387273
     atom    3 type  2   force =    -0.01027426    0.00750385   -0.00785641
     atom    4 type  1   force =     0.00368343    0.00300245    0.00107872
     atom    5 type  2   force =    -0.00135366   -0.00712692   -0.00584084
     atom    6 type  2   force =     0.00124609    0.00585639    0.00210974
     atom    7 type  1   force =     0.00446945   -0.00154935    0.02866737
     atom    8 type  2   force =     0.00733941    0.00008441    0.01336161
     atom    9 type  2   force =     0.00811743    0.00552225    0.01164581
     atom   10 type  1   force =    -0.00362155    0.00905944   -0.01637708
     atom   11 type  2   force =    -0.00600077   -0.00716887    0.00549816
     atom   12 type  2   force =    -0.00512375   -0.00210307    0.00566611
     atom   13 type  1   force =     0.00352004    0.00357976   -0.00180660
     atom   14 type  2   force =     0.00524775    0.00095692    0.00924706
     atom   15 type  2   force =    -0.00810241    0.00302685   -0.00887322
     atom   16 type  1   force =    -0.00049875   -0.00281966    0.00135980
     atom   17 type  2   force =     0.00658509   -0.00055653    0.00190588
     atom   18 type  2   force =    -0.00238428   -0.00513004    0.01024057
     atom   19 type  1   force =     0.00128044   -0.00447672    0.01847757
     atom   20 type  2   force =     0.00333677   -0.00279933    0.00952005
     atom   21 type  1   force =    -0.00220229    0.00365647    0.00534851
     atom   22 type  2   force =    -0.00843309    0.00466267   -0.00584163
     atom   23 type  2   force =     0.00200678   -0.00148168    0.00643738
     atom   24 type  1   force =    -0.00556720   -0.00081060   -0.00927951
     atom   25 type  2   force =     0.01181921    0.01371852   -0.00168397
     atom   26 type  2   force =    -0.00709825   -0.00070576   -0.00334893
     atom   27 type  1   force =     0.00075360    0.00094948    0.00574842
     atom   28 type  2   force =     0.00023598   -0.00174247   -0.00461607
     atom   29 type  2   force =     0.00219165    0.00225099   -0.00304338
     atom   30 type  1   force =    -0.00234726   -0.00117818    0.00541336
     atom   31 type  2   force =    -0.00193999    0.00312380    0.01175729
     atom   32 type  2   force =    -0.00504943    0.00720237    0.00977810
     atom   33 type  1   force =     0.00637659   -0.00130881   -0.00345284
     atom   34 type  2   force =     0.00036238   -0.03099861   -0.01558237
     atom   35 type  2   force =    -0.00559896    0.00859298    0.00664817
     atom   36 type  3   force =     0.01330060   -0.00894856   -0.07911774
     The non-local contrib.  to forces
     atom    1 type  1   force =     0.00301756    0.02494177   -0.01199762
     atom    2 type  2   force =    -0.00550507   -0.00386193   -0.27359044
     atom    3 type  2   force =    -0.01120849   -0.00479599    0.26081393
     atom    4 type  1   force =    -0.00114196    0.00556590    0.00375762
     atom    5 type  2   force =     0.01056587   -0.03372170   -0.26203598
     atom    6 type  2   force =    -0.00656542    0.00730077    0.26672404
     atom    7 type  1   force =    -0.00991341    0.00709644   -0.01475639
     atom    8 type  2   force =     0.01313473   -0.01224027   -0.26295208
     atom    9 type  2   force =     0.00700150   -0.00383287    0.27894701
     atom   10 type  1   force =    -0.01071668    0.01031465    0.00419871
     atom   11 type  2   force =    -0.08176091   -0.09679424   -0.23541031
     atom   12 type  2   force =    -0.01122661   -0.02433324    0.26782701
     atom   13 type  1   force =    -0.00068748    0.01669852   -0.00847384
     atom   14 type  2   force =     0.01013410   -0.01018197   -0.26900626
     atom   15 type  2   force =    -0.01105399   -0.00580914    0.26208524
     atom   16 type  1   force =    -0.00022199    0.01191817   -0.03276205
     atom   17 type  2   force =    -0.00020742   -0.02857988   -0.25594413
     atom   18 type  2   force =     0.00083463   -0.00269998    0.27399667
     atom   19 type  1   force =     0.00073597    0.00824629   -0.01883894
     atom   20 type  2   force =    -0.00080809   -0.01899231    0.26757668
     atom   21 type  1   force =     0.00549602    0.01322768    0.01720235
     atom   22 type  2   force =     0.01470653    0.00405869   -0.27790517
     atom   23 type  2   force =     0.00548111   -0.02313193    0.27007309
     atom   24 type  1   force =     0.00431687    0.00782113   -0.00851757
     atom   25 type  2   force =     0.00575760   -0.00000053   -0.26768955
     atom   26 type  2   force =     0.00023949   -0.01192631    0.25935850
     atom   27 type  1   force =    -0.00156625    0.00750555    0.00770283
     atom   28 type  2   force =    -0.00470952   -0.02273440   -0.27397238
     atom   29 type  2   force =     0.00626769    0.00601588    0.25895794
     atom   30 type  1   force =     0.00259970    0.02064272    0.00289524
     atom   31 type  2   force =    -0.01217238   -0.00219345   -0.25631213
     atom   32 type  2   force =    -0.00051446   -0.00456705    0.27485800
     atom   33 type  1   force =     0.00725594    0.01288304    0.00758512
     atom   34 type  2   force =     0.00016662   -0.03087573   -0.27797248
     atom   35 type  2   force =    -0.00192462   -0.01407229    0.26794941
     atom   36 type  3   force =     0.14375131    0.16136972   -0.55166873
     The ionic contribution  to forces
     atom    1 type  1   force =     0.36371233    0.53545717    4.68134659
     atom    2 type  2   force =    -0.24510286    0.52047135   39.15897395
     atom    3 type  2   force =    -0.08780349    0.16498488  -36.74004003
     atom    4 type  1   force =     0.71908179   -0.42599897   -0.91191681
     atom    5 type  2   force =    -0.60661109    0.53862530   38.27181679
     atom    6 type  2   force =     0.39338469   -0.70967494  -38.60651341
     atom    7 type  1   force =    -0.73787859   -2.92036139   -1.95534660
     atom    8 type  2   force =     0.53495744   -0.63025779   36.75749021
     atom    9 type  2   force =     0.42887708   -0.10665412  -38.78425937
     atom   10 type  1   force =    -0.08405474    0.57995649    3.47580796
     atom   11 type  2   force =     1.57172664    1.34388671   37.52056116
     atom   12 type  2   force =     0.46761699    0.75033707  -38.78290967
     atom   13 type  1   force =     0.16616685    0.92590305    1.70210515
     atom   14 type  2   force =    -0.05514833    0.53449921   38.30891462
     atom   15 type  2   force =     0.15729974    0.07765005  -37.46592935
     atom   16 type  1   force =    -0.11406372    2.10931219   -2.11415418
     atom   17 type  2   force =     0.40560258    0.73285566   37.59992185
     atom   18 type  2   force =    -0.24621813   -0.75346127  -39.14677898
     atom   19 type  1   force =     0.77490549   -2.59481826   -2.93993971
     atom   20 type  2   force =     0.21505516   -0.25694200  -39.55632023
     atom   21 type  1   force =    -0.12146070    2.08787931   -1.40117120
     atom   22 type  2   force =    -1.34889297    0.10828506   37.30048119
     atom   23 type  2   force =    -0.18643020    0.74965726  -39.15813812
     atom   24 type  1   force =    -0.28485542    1.03931484    4.63060484
     atom   25 type  2   force =     0.33684205    0.45124803   39.03929621
     atom   26 type  2   force =    -0.29305527    0.15355369  -37.81849770
     atom   27 type  1   force =    -0.50168564   -0.33762127   -3.49969394
     atom   28 type  2   force =     0.11035973    0.60602453   37.98253588
     atom   29 type  2   force =    -0.22747619   -0.46863029  -37.81823179
     atom   30 type  1   force =    -0.06662585   -0.89823249   -1.61089385
     atom   31 type  2   force =     0.24255407   -0.50743779   36.87150814
     atom   32 type  2   force =    -0.55354702   -0.08356099  -39.33249838
     atom   33 type  1   force =    -0.04643617    0.15033556    0.52133261
     atom   34 type  2   force =     0.27869828   -0.79503836   38.94817194
     atom   35 type  2   force =    -0.20880761    0.52112552  -38.39889988
     atom   36 type  3   force =    -1.15068693   -3.19267299   43.27126412
     The local contribution  to forces
     atom    1 type  1   force =    -0.36305479   -0.57167685   -4.66923591
     atom    2 type  2   force =     0.24033599   -0.50685157  -38.91065219
     atom    3 type  2   force =     0.08822780   -0.15281566   36.49197492
     atom    4 type  1   force =    -0.71441952    0.42328133    0.90871247
     atom    5 type  2   force =     0.59547134   -0.51404146  -38.03708747
     atom    6 type  2   force =    -0.38621169    0.70925470   38.36298242
     atom    7 type  1   force =     0.75217899    2.91136295    1.99786448
     atom    8 type  2   force =    -0.53976628    0.64165299  -36.50298926
     atom    9 type  2   force =    -0.42754973    0.11564247   38.53810915
     atom   10 type  1   force =     0.09130083   -0.58103444   -3.49709301
     atom   11 type  2   force =    -1.49927591   -1.25779806  -37.30024402
     atom   12 type  2   force =    -0.46247051   -0.72964537   38.54171502
     atom   13 type  1   force =    -0.16191994   -0.93888721   -1.69594561
     atom   14 type  2   force =     0.05082314   -0.52330001  -38.05207514
     atom   15 type  2   force =    -0.15501028   -0.06908565   37.21556831
     atom   16 type  1   force =     0.11373163   -2.12412242    2.14772933
     atom   17 type  2   force =    -0.39887587   -0.70640395  -37.36328513
     atom   18 type  2   force =     0.24330804    0.75158871   38.90428523
     atom   19 type  1   force =    -0.77435749    2.58178839    2.97652787
     atom   20 type  2   force =    -0.21117279    0.27209465   39.31966624
     atom   21 type  1   force =     0.11363151   -2.09716061    1.38847591
     atom   22 type  2   force =     1.32577779   -0.10639646  -37.05113157
     atom   23 type  2   force =     0.18333237   -0.72956532   38.91545850
     atom   24 type  1   force =     0.27504542   -1.04787657   -4.63181965
     atom   25 type  2   force =    -0.33074700   -0.43720862  -38.79468035
     atom   26 type  2   force =     0.28601462   -0.14291072   37.57649655
     atom   27 type  1   force =     0.50421407    0.33096331    3.49725797
     atom   28 type  2   force =    -0.10569093   -0.58669037  -37.73454495
     atom   29 type  2   force =     0.22393259    0.46561309   37.57665937
     atom   30 type  1   force =     0.06176765    0.87633781    1.61285082
     atom   31 type  2   force =    -0.23310746    0.51250428  -36.62486376
     atom   32 type  2   force =     0.54927549    0.09495146   39.08856347
     atom   33 type  1   force =     0.04553962   -0.16436827   -0.53295455
     atom   34 type  2   force =    -0.27869083    0.79384985  -38.70752598
     atom   35 type  2   force =     0.20521029   -0.49955215   38.15853810
     atom   36 type  3   force =     1.02178529    3.02385717  -42.80542950
     The core correction contribution to forces
     atom    1 type  1   force =     0.00000000    0.00000000    0.00000000
     atom    2 type  2   force =     0.00017335    0.00005551    0.02100178
     atom    3 type  2   force =     0.00050078    0.00017404   -0.02062193
     atom    4 type  1   force =     0.00000000    0.00000000    0.00000000
     atom    5 type  2   force =    -0.00084344    0.00197189    0.02095125
     atom    6 type  2   force =     0.00052792   -0.00098735   -0.02097246
     atom    7 type  1   force =     0.00000000    0.00000000    0.00000000
     atom    8 type  2   force =    -0.00089900    0.00082073    0.02131567
     atom    9 type  2   force =    -0.00021261    0.00030689   -0.02114334
     atom   10 type  1   force =     0.00000000    0.00000000    0.00000000
     atom   11 type  2   force =     0.00343492    0.00374036    0.02001639
     atom   12 type  2   force =     0.00094676    0.00160074   -0.02104726
     atom   13 type  1   force =     0.00000000    0.00000000    0.00000000
     atom   14 type  2   force =    -0.00057855    0.00006949    0.02097238
     atom   15 type  2   force =     0.00064319    0.00031938   -0.02058055
     atom   16 type  1   force =     0.00000000    0.00000000    0.00000000
     atom   17 type  2   force =     0.00011730    0.00154545    0.02068494
     atom   18 type  2   force =    -0.00020185   -0.00052968   -0.02112311
     atom   19 type  1   force =     0.00000000    0.00000000    0.00000000
     atom   20 type  2   force =     0.00022538    0.00087651   -0.02130479
     atom   21 type  1   force =     0.00000000    0.00000000    0.00000000
     atom   22 type  2   force =    -0.00019525   -0.00113906    0.02217463
     atom   23 type  2   force =    -0.00038581    0.00160235   -0.02097530
     atom   24 type  1   force =     0.00000000    0.00000000    0.00000000
     atom   25 type  2   force =    -0.00000731   -0.00023405    0.02099720
     atom   26 type  2   force =    -0.00026593    0.00060006   -0.02069323
     atom   27 type  1   force =     0.00000000    0.00000000    0.00000000
     atom   28 type  2   force =     0.00029063    0.00161113    0.02097102
     atom   29 type  2   force =    -0.00053402   -0.00077563   -0.02038700
     atom   30 type  1   force =     0.00000000    0.00000000    0.00000000
     atom   31 type  2   force =     0.00076948    0.00017556    0.02093013
     atom   32 type  2   force =    -0.00022081    0.00034336   -0.02110258
     atom   33 type  1   force =     0.00000000    0.00000000    0.00000000
     atom   34 type  2   force =     0.00026678    0.00106193    0.02134901
     atom   35 type  2   force =    -0.00005397    0.00112592   -0.02097918
     atom   36 type  3   force =    -0.00157611   -0.00157144    0.00621084
     The Hubbard contrib.    to forces
     atom    1 type  1   force =     0.00000000    0.00000000    0.00000000
     atom    2 type  2   force =     0.00000000    0.00000000    0.00000000
     atom    3 type  2   force =     0.00000000    0.00000000    0.00000000
     atom    4 type  1   force =     0.00000000    0.00000000    0.00000000
     atom    5 type  2   force =     0.00000000    0.00000000    0.00000000
     atom    6 type  2   force =     0.00000000    0.00000000    0.00000000
     atom    7 type  1   force =     0.00000000    0.00000000    0.00000000
     atom    8 type  2   force =     0.00000000    0.00000000    0.00000000
     atom    9 type  2   force =     0.00000000    0.00000000    0.00000000
     atom   10 type  1   force =     0.00000000    0.00000000    0.00000000
     atom   11 type  2   force =     0.00000000    0.00000000    0.00000000
     atom   12 type  2   force =     0.00000000    0.00000000    0.00000000
     atom   13 type  1   force =     0.00000000    0.00000000    0.00000000
     atom   14 type  2   force =     0.00000000    0.00000000    0.00000000
     atom   15 type  2   force =     0.00000000    0.00000000    0.00000000
     atom   16 type  1   force =     0.00000000    0.00000000    0.00000000
     atom   17 type  2   force =     0.00000000    0.00000000    0.00000000
     atom   18 type  2   force =     0.00000000    0.00000000    0.00000000
     atom   19 type  1   force =     0.00000000    0.00000000    0.00000000
     atom   20 type  2   force =     0.00000000    0.00000000    0.00000000
     atom   21 type  1   force =     0.00000000    0.00000000    0.00000000
     atom   22 type  2   force =     0.00000000    0.00000000    0.00000000
     atom   23 type  2   force =     0.00000000    0.00000000    0.00000000
     atom   24 type  1   force =     0.00000000    0.00000000    0.00000000
     atom   25 type  2   force =     0.00000000    0.00000000    0.00000000
     atom   26 type  2   force =     0.00000000    0.00000000    0.00000000
     atom   27 type  1   force =     0.00000000    0.00000000    0.00000000
     atom   28 type  2   force =     0.00000000    0.00000000    0.00000000
     atom   29 type  2   force =     0.00000000    0.00000000    0.00000000
     atom   30 type  1   force =     0.00000000    0.00000000    0.00000000
     atom   31 type  2   force =     0.00000000    0.00000000    0.00000000
     atom   32 type  2   force =     0.00000000    0.00000000    0.00000000
     atom   33 type  1   force =     0.00000000    0.00000000    0.00000000
     atom   34 type  2   force =     0.00000000    0.00000000    0.00000000
     atom   35 type  2   force =     0.00000000    0.00000000    0.00000000
     atom   36 type  3   force =     0.00000000    0.00000000    0.00000000
     The SCF correction term to forces
     atom    1 type  1   force =     0.00014517   -0.00023729    0.00055664
     atom    2 type  2   force =     0.00000355   -0.00014115    0.00038023
     atom    3 type  2   force =     0.00001016   -0.00004269    0.00000276
     atom    4 type  1   force =     0.00016415    0.00015491    0.00051149
     atom    5 type  2   force =     0.00006468    0.00003977    0.00050062
     atom    6 type  2   force =     0.00011160   -0.00003605   -0.00012479
     atom    7 type  1   force =     0.00008348    0.00035337    0.00089192
     atom    8 type  2   force =    -0.00008645    0.00010948    0.00048312
     atom    9 type  2   force =     0.00000221    0.00006060   -0.00002158
     atom   10 type  1   force =    -0.00014994   -0.00017653    0.00069530
     atom   11 type  2   force =    -0.00012450   -0.00020293    0.00056100
     atom   12 type  2   force =     0.00001064   -0.00006155    0.00006706
     atom   13 type  1   force =    -0.00003838   -0.00013388    0.00049375
     atom   14 type  2   force =     0.00001841   -0.00012907    0.00042750
     atom   15 type  2   force =     0.00001994   -0.00004706   -0.00003081
     atom   16 type  1   force =     0.00005635    0.00007312    0.00053275
     atom   17 type  2   force =    -0.00005048    0.00002692    0.00051441
     atom   18 type  2   force =    -0.00010596   -0.00002709   -0.00015320
     atom   19 type  1   force =    -0.00000252    0.00030758    0.00071439
     atom   20 type  2   force =     0.00003813    0.00016453   -0.00011180
     atom   21 type  1   force =     0.00013190   -0.00028918    0.00082750
     atom   22 type  2   force =     0.00017183   -0.00014483    0.00052534
     atom   23 type  2   force =     0.00001032   -0.00004332    0.00000526
     atom   24 type  1   force =    -0.00007305   -0.00006928    0.00043893
     atom   25 type  2   force =    -0.00002512   -0.00008559    0.00037858
     atom   26 type  2   force =    -0.00003015   -0.00002175   -0.00002700
     atom   27 type  1   force =    -0.00020756    0.00010260    0.00046760
     atom   28 type  2   force =    -0.00001292    0.00004737    0.00038041
     atom   29 type  2   force =     0.00000260    0.00002866   -0.00005586
     atom   30 type  1   force =    -0.00008774    0.00007450    0.00054721
     atom   31 type  2   force =     0.00001732    0.00007592    0.00048096
     atom   32 type  2   force =    -0.00004161    0.00003632   -0.00005636
     atom   33 type  1   force =     0.00001821   -0.00015841    0.00057003
     atom   34 type  2   force =    -0.00007745    0.00000443    0.00038119
     atom   35 type  2   force =    -0.00002203   -0.00003330    0.00002576
     atom   36 type  3   force =     0.00002806    0.00006971    0.00049158

     Total force =     0.112441     Total SCF correction =     0.002857
     Energy error            =      1.7E-02 Ry
     Gradient error          =      7.9E-02 Ry/Bohr

     number of scf cycles    =   2
     number of bfgs steps    =   1

     energy             old  =   -2246.2212032000 Ry
     energy             new  =   -2246.2378457319 Ry

     CASE: energy            _new < energy            _old

     new trust radius        =       0.0835157272 bohr
     new conv_thr            =       0.0000000791 Ry


ATOMIC_POSITIONS (angstrom)
Mo            6.5854347480        1.7674145410        2.8280464838
S             8.1614942730        0.8246911121        4.4320857736
S             8.1814805214        0.8195681831        1.2744528902
Mo            8.0994459767        4.4985356176        2.7176106407
S             6.4971109087        3.7148372196        4.3400076855
S             6.5544424649        3.5207307703        1.1223916587
Mo            6.4990068078        7.2154767494        2.7129472435
S             8.0879175516        6.3463852010        4.2554623562
S             8.0920921153        6.3104556650        1.0959944269
Mo            8.1537489365        9.9146371209        2.8105661565
S             6.4867415110        8.9321165355        4.3890924248
S             6.6145756881        9.0488775412        1.1451930501
Mo            3.4256312896        1.7524928696        2.7720064102
S             4.9822418353        0.8178934589        4.3627982412
S             5.0467444153        0.8507384030        1.2146394141
Mo            4.9786402525        4.5105427752        2.6340993822
S             3.4359997180        3.6709065524        4.2813112495
S             3.4351559185        3.5412427590        1.0718406142
Mo            3.4531485070        7.2107170854        2.6571274166
S             4.9861068552        6.3214368268        1.0425969532
Mo            5.0086904251        9.9060211231        2.7513417056
S             3.4614659907        8.9471358408        4.3168246163
S             3.4087500368        9.0657205475        1.1035787284
Mo            0.2872966810        1.7464301762        2.8298209550
S             1.8672976184        0.8104113705        4.4012570750
S             1.8503879396        0.8533851900        1.2070694382
Mo            1.8613473216        4.4961875656        2.6663922514
S             0.2728162890        3.6533295431        4.3331412810
S             0.2338208110        3.5283947349        1.1694832757
Mo            0.2680335668        7.2163100226        2.7078508005
S             1.9014337533        6.3185117476        4.2349355341
S             1.8548799956        6.3187210927        1.0541367872
Mo            1.8570475820        9.9367751607        2.7614838928
S             0.2986183967        9.0478041766        4.4007813283
S             0.2687055344        9.0544223007        1.1611892917
O             5.2683503313        7.2776221643        5.2667653871



     Writing config-only to output data dir ./MoS2-V-O.save/
     NEW-OLD atomic charge density approx. for the potential

     negative rho (up, down):  1.775E-04 0.000E+00

     total cpu time spent up to now is      246.5 secs

     Self-consistent Calculation

     iteration #  1     ecut=    80.00 Ry     beta= 0.70
     Davidson diagonalization with overlap
     ethr =  1.00E-06,  avg # of iterations =  7.0

     negative rho (up, down):  1.198E-04 0.000E+00

     total cpu time spent up to now is      260.5 secs

     total energy              =   -2246.24992254 Ry
     estimated scf accuracy    <       0.00313200 Ry

     iteration #  2     ecut=    80.00 Ry     beta= 0.70
     Davidson diagonalization with overlap
     ethr =  1.00E-06,  avg # of iterations =  7.0

     negative rho (up, down):  1.084E-04 0.000E+00

     total cpu time spent up to now is      271.4 secs

     total energy              =   -2246.24965552 Ry
     estimated scf accuracy    <       0.03269392 Ry

     iteration #  3     ecut=    80.00 Ry     beta= 0.70
     Davidson diagonalization with overlap
     ethr =  1.00E-06,  avg # of iterations =  6.0

     negative rho (up, down):  5.406E-05 0.000E+00

     total cpu time spent up to now is      284.1 secs

     total energy              =   -2246.25075089 Ry
     estimated scf accuracy    <       0.00031475 Ry

     iteration #  4     ecut=    80.00 Ry     beta= 0.70
     Davidson diagonalization with overlap
     ethr =  1.01E-07,  avg # of iterations =  5.0

     negative rho (up, down):  3.921E-05 0.000E+00

     total cpu time spent up to now is      298.6 secs

     total energy              =   -2246.25077953 Ry
     estimated scf accuracy    <       0.00002182 Ry

     iteration #  5     ecut=    80.00 Ry     beta= 0.70
     Davidson diagonalization with overlap
     ethr =  6.99E-09,  avg # of iterations =  8.0

     negative rho (up, down):  3.362E-05 0.000E+00

     total cpu time spent up to now is      314.8 secs

     total energy              =   -2246.25079141 Ry
     estimated scf accuracy    <       0.00000538 Ry

     iteration #  6     ecut=    80.00 Ry     beta= 0.70
     Davidson diagonalization with overlap
     ethr =  1.72E-09,  avg # of iterations =  2.0

     negative rho (up, down):  3.118E-05 0.000E+00

     total cpu time spent up to now is      328.2 secs

     total energy              =   -2246.25079176 Ry
     estimated scf accuracy    <       0.00000183 Ry

     iteration #  7     ecut=    80.00 Ry     beta= 0.70
     Davidson diagonalization with overlap
     ethr =  5.86E-10,  avg # of iterations =  5.0

     negative rho (up, down):  3.491E-05 0.000E+00

     total cpu time spent up to now is      341.8 secs

     total energy              =   -2246.25079211 Ry
     estimated scf accuracy    <       0.00000166 Ry

     iteration #  8     ecut=    80.00 Ry     beta= 0.70
     Davidson diagonalization with overlap
     ethr =  5.32E-10,  avg # of iterations =  2.0

     negative rho (up, down):  5.385E-05 0.000E+00

     total cpu time spent up to now is      355.2 secs

     total energy              =   -2246.25079235 Ry
     estimated scf accuracy    <       0.00000064 Ry

     iteration #  9     ecut=    80.00 Ry     beta= 0.70
     Davidson diagonalization with overlap
     ethr =  2.05E-10,  avg # of iterations =  5.0

     negative rho (up, down):  8.705E-05 0.000E+00

     total cpu time spent up to now is      367.1 secs

     total energy              =   -2246.25079246 Ry
     estimated scf accuracy    <       0.00000008 Ry

     iteration # 10     ecut=    80.00 Ry     beta= 0.70
     Davidson diagonalization with overlap
     ethr =  2.65E-11,  avg # of iterations =  6.0

     negative rho (up, down):  1.549E-04 0.000E+00

     total cpu time spent up to now is      371.0 secs

     End of self-consistent calculation

          k = 0.0000 0.0000 0.0000 (105382 PWs)   bands (ev):

   -63.0595 -63.0427 -63.0351 -63.0312 -63.0148 -63.0082 -62.9950 -62.9812
   -62.9781 -62.9679 -62.9051 -62.8904 -37.4034 -37.3490 -37.3318 -37.3126
   -37.2811 -37.2691 -37.2583 -37.2495 -37.2286 -37.2208 -37.2132 -37.2099
   -37.2054 -37.1943 -37.1890 -37.1877 -37.1844 -37.1759 -37.1691 -37.1665
   -37.1595 -37.1576 -37.1505 -37.1091 -37.1031 -37.0892 -37.0723 -37.0649
   -37.0577 -37.0394 -37.0288 -37.0180 -36.9792 -36.9734 -36.9625 -36.8876
   -17.5621 -16.0863 -15.3036 -15.2802 -15.1116 -15.0299 -14.9019 -14.6346
   -14.6084 -14.5693 -14.5390 -14.5344 -14.4764 -14.4620 -14.3824 -14.2648
   -14.2634 -14.2565 -14.2356 -14.1383 -14.0160 -13.9877 -13.9804 -13.9392
    -7.7889  -7.6303  -7.4535  -7.4372  -7.3776  -7.3507  -7.3372  -7.2710
    -6.9740  -6.9535  -6.9124  -6.8741  -6.7919  -6.6687  -6.6451  -6.5698
    -6.5263  -6.4459  -6.4143  -6.1279  -6.0734  -6.0357  -5.9987  -5.9666
    -5.9176  -5.8956  -5.8473  -5.8018  -5.7997  -5.7585  -5.6794  -5.6597
    -5.6044  -5.5409  -5.5211  -5.3162  -5.2967  -5.1880  -5.1657  -5.1460
    -5.0822  -5.0618  -4.9814  -4.8398  -4.6820  -4.4694  -4.4351  -4.4289
    -4.3770  -4.3114  -4.2604  -4.1501  -4.0220  -3.9828  -3.9027  -3.8447
    -3.8249  -3.8034  -3.7175  -3.6838  -3.6638  -3.6297  -3.6126  -3.5733
    -3.5430  -3.4981  -3.3461  -3.2875  -3.2495  -3.0340  -3.0062  -2.9735
    -2.9309  -2.8707  -2.8527  -2.8073  -2.7870  -2.7793  -2.6821  -2.3958
    -2.1943  -2.1757  -1.9082  -1.6677  -1.5341  -0.8877  -0.6501  -0.3209
    -0.2896  -0.2283  -0.1755  -0.0926  -0.0070   0.0266   0.0815   0.1724
     0.1873   0.2384   0.2578   0.3033   0.3998   0.4173   0.4281   0.4557
     0.5142   0.5720   0.6192   0.6289   0.6537   0.7174   0.7342   0.7757
     0.8419   0.8834   0.9907

     the Fermi energy is    -1.6008 ev

!    total energy              =   -2246.25079249 Ry
     estimated scf accuracy    <       0.00000002 Ry
     smearing contrib. (-TS)   =      -0.00890065 Ry
     internal energy E=F+TS    =   -2246.24189184 Ry

     The total energy is F=E-TS. E is the sum of the following terms:
     one-electron contribution =  -18450.37511334 Ry
     hartree contribution      =    9212.91230809 Ry
     xc contribution           =    -391.73164250 Ry
     ewald contribution        =    7392.82890578 Ry
     one-center paw contrib.   =      -9.87634987 Ry

     convergence has been achieved in  10 iterations

     negative rho (up, down):  1.549E-04 0.000E+00

     Forces acting on atoms (cartesian axes, Ry/au):

     atom    1 type  1   force =    -0.00219310   -0.00370736   -0.00295211
     atom    2 type  2   force =    -0.00583280    0.00522308   -0.00457274
     atom    3 type  2   force =    -0.00887529    0.00683040   -0.01114019
     atom    4 type  1   force =     0.00320524    0.00233109    0.00228895
     atom    5 type  2   force =     0.00005853   -0.00683970   -0.00492121
     atom    6 type  2   force =     0.00156577    0.00356382    0.00266756
     atom    7 type  1   force =     0.00137037   -0.00019429    0.02034068
     atom    8 type  2   force =     0.00848809   -0.00226344    0.01429546
     atom    9 type  2   force =     0.00524771    0.00543890    0.01156399
     atom   10 type  1   force =    -0.00189605    0.00640690   -0.00402679
     atom   11 type  2   force =    -0.00391688   -0.00340336    0.00544845
     atom   12 type  2   force =    -0.00656964   -0.00396649    0.00652810
     atom   13 type  1   force =     0.00292457    0.00175461   -0.00009654
     atom   14 type  2   force =     0.00369007    0.00096911    0.00680074
     atom   15 type  2   force =    -0.00586655    0.00142177   -0.00636853
     atom   16 type  1   force =    -0.00000326   -0.00304465    0.00183347
     atom   17 type  2   force =     0.00526348   -0.00042725    0.00264827
     atom   18 type  2   force =    -0.00223119   -0.00328728    0.00740141
     atom   19 type  1   force =     0.00251882   -0.00344891    0.01365038
     atom   20 type  2   force =     0.00381713   -0.00075033    0.01327001
     atom   21 type  1   force =    -0.00104208    0.00355170    0.00343189
     atom   22 type  2   force =    -0.00777561    0.00638761   -0.00293788
     atom   23 type  2   force =     0.00339843   -0.00345398    0.00592300
     atom   24 type  1   force =    -0.00331608   -0.00027668   -0.00276703
     atom   25 type  2   force =     0.00753814    0.01043972   -0.00488186
     atom   26 type  2   force =    -0.00412882   -0.00043007   -0.00363063
     atom   27 type  1   force =     0.00093549    0.00120485    0.00541682
     atom   28 type  2   force =    -0.00000201   -0.00235897   -0.00423296
     atom   29 type  2   force =     0.00204092    0.00337062   -0.00301302
     atom   30 type  1   force =    -0.00153977   -0.00217354    0.00459987
     atom   31 type  2   force =    -0.00282859    0.00076747    0.01163141
     atom   32 type  2   force =    -0.00271068    0.00623592    0.01038275
     atom   33 type  1   force =     0.00097820    0.00039690    0.00169670
     atom   34 type  2   force =    -0.00164814   -0.02117178   -0.01631511
     atom   35 type  2   force =    -0.00333117    0.00664126    0.00325980
     atom   36 type  3   force =     0.01266677   -0.01173764   -0.08322311
     The non-local contrib.  to forces
     atom    1 type  1   force =     0.00396723    0.02222283   -0.01242682
     atom    2 type  2   force =    -0.00230985   -0.00651197   -0.27224658
     atom    3 type  2   force =    -0.00882232   -0.00640287    0.25729936
     atom    4 type  1   force =    -0.00113347    0.00647202    0.00397066
     atom    5 type  2   force =     0.01203275   -0.03340883   -0.26186828
     atom    6 type  2   force =    -0.00651705    0.00487629    0.26767266
     atom    7 type  1   force =    -0.00901808    0.00802681   -0.01332232
     atom    8 type  2   force =     0.01421403   -0.01378756   -0.26120206
     atom    9 type  2   force =     0.00603541   -0.00460321    0.27808892
     atom   10 type  1   force =    -0.01266569    0.01192798    0.00527102
     atom   11 type  2   force =    -0.08713305   -0.09786419   -0.23431873
     atom   12 type  2   force =    -0.01070718   -0.02454034    0.26916009
     atom   13 type  1   force =     0.00027666    0.01760872   -0.00888711
     atom   14 type  2   force =     0.00881615   -0.00990508   -0.26985226
     atom   15 type  2   force =    -0.00916402   -0.00681504    0.26313892
     atom   16 type  1   force =    -0.00042965    0.01088526   -0.03198480
     atom   17 type  2   force =    -0.00149441   -0.02788440   -0.25538219
[...]
     atom   28 type  2   force =    -0.00002263   -0.01193651   -0.26444892
     atom   29 type  2   force =     0.00077064   -0.00948218    0.26520845
     atom   30 type  1   force =    -0.00030172    0.01820434   -0.00642278
     atom   31 type  2   force =    -0.01381079   -0.00848601   -0.26645152
     atom   32 type  2   force =     0.00888806   -0.01322790    0.27004834
     atom   33 type  1   force =    -0.00081119    0.01372635   -0.00115195
     atom   34 type  2   force =    -0.00032759   -0.01111762   -0.26916194
     atom   35 type  2   force =     0.00021024   -0.01147246    0.26537304
     atom   36 type  3   force =    -0.00077789   -0.00859907   -1.36072680
     The ionic contribution  to forces
     atom    1 type  1   force =     0.22676433    0.01597990    1.27847923
     atom    2 type  2   force =     0.01067782    0.04631931   38.81587833
     atom    3 type  2   force =     0.12321326   -0.03687221  -38.10450968
     atom    4 type  1   force =     1.11957594   -0.75212441    0.31270118
     atom    5 type  2   force =    -0.02612337   -0.30620537   38.76163771
     atom    6 type  2   force =     0.36736646   -0.72848149  -38.55803162
     atom    7 type  1   force =     4.46555734    2.52714939   -2.49287079
     atom    8 type  2   force =     0.23365034    0.10195366   38.83961694
     atom    9 type  2   force =     0.67627902    0.03451499  -38.50059913
     atom   10 type  1   force =     0.15316059    0.42205015    1.73782862
     atom   11 type  2   force =     0.27356857    0.04765466   38.94896730
     atom   12 type  2   force =     0.42164112    0.63015016  -38.55362399
     atom   13 type  1   force =    -0.24124693   -0.03505254    1.13133292
     atom   14 type  2   force =    -0.01788542   -0.01424411   38.82306756
     atom   15 type  2   force =     0.00204694   -0.03401010  -38.30918176
     atom   16 type  1   force =     0.02670258   -5.19571460   -2.84213590
     atom   17 type  2   force =     0.01138233   -0.30901942   38.76287059
     atom   18 type  2   force =    -0.38533357   -0.71845099  -38.60263817
     atom   19 type  1   force =    -4.48179474    2.52541091   -2.32241158
     atom   20 type  2   force =    -0.00137599    0.03029935  -41.48103638
     atom   21 type  1   force =     0.00379213    1.48458497    0.53151286
     atom   22 type  2   force =    -0.26318073    0.05537492   38.95443044
     atom   23 type  2   force =    -0.41949440    0.62290247  -38.53557957
     atom   24 type  1   force =     0.02180513   -0.08929442    0.96406512
     atom   25 type  2   force =    -0.00063053    0.05180744   38.79048197
     atom   26 type  2   force =    -0.12517975   -0.04165194  -38.11484679
     atom   27 type  1   force =    -1.11926628   -0.74747333    0.25816353
     atom   28 type  2   force =     0.00271254   -0.00946358   38.63308446
     atom   29 type  2   force =     0.00755446   -0.26037503  -38.34373031
     atom   30 type  1   force =    -0.00309350   -0.09870448    1.93987529
     atom   31 type  2   force =    -0.22783569    0.08875811   38.87134006
     atom   32 type  2   force =    -0.67528552    0.02809909  -38.48603207
     atom   33 type  1   force =    -0.17721298    0.45062946    1.77473598
     atom   34 type  2   force =    -0.00081170    0.01513808   39.07635951
     atom   35 type  2   force =     0.01335887    0.24099499  -38.12509256
     atom   36 type  3   force =     0.00494133   -0.04263397   34.16589071
     The local contribution  to forces
     atom    1 type  1   force =    -0.22657849   -0.03226727   -1.27642615
     atom    2 type  2   force =    -0.01163433   -0.03503496  -38.57003040
     atom    3 type  2   force =    -0.12189307    0.04691694   37.85886275
     atom    4 type  1   force =    -1.12174939    0.73885733   -0.31056091
     atom    5 type  2   force =     0.01938782    0.32943436  -38.51723189
     atom    6 type  2   force =    -0.36482379    0.73076631   38.30941116
     atom    7 type  1   force =    -4.50386138   -2.55652832    2.52065377
     atom    8 type  2   force =    -0.24687855   -0.09395650  -38.59458243
     atom    9 type  2   force =    -0.66886838   -0.02295813   38.25196200
     atom   10 type  1   force =    -0.15431518   -0.43565832   -1.73482480
     atom   11 type  2   force =    -0.27930436   -0.04754749  -38.70475659
     atom   12 type  2   force =    -0.41323619   -0.61487415   38.30731343
     atom   13 type  1   force =     0.23952631    0.01699965   -1.12857578
     atom   14 type  2   force =     0.01764570    0.02589272  -38.57609962
     atom   15 type  2   force =    -0.00189928    0.04617342   38.06216883
     atom   16 type  1   force =    -0.02609415    5.22316711    2.87657644
     atom   17 type  2   force =    -0.00485855    0.33218829  -38.51862436
     atom   18 type  2   force =     0.38287228    0.72090211   38.35422064
     atom   19 type  1   force =     4.52122656   -2.55606313    2.34986685
     atom   20 type  2   force =     0.00136804   -0.01909255   41.26508596
     atom   21 type  1   force =    -0.00401080   -1.50340352   -0.52992066
     atom   22 type  2   force =     0.26896379   -0.05536194  -38.70974037
     atom   23 type  2   force =     0.41094793   -0.60784937   38.28907674
     atom   24 type  1   force =    -0.02129010    0.07457332   -0.96246644
     atom   25 type  2   force =     0.00167989   -0.04041865  -38.54456527
     atom   26 type  2   force =     0.12369383    0.05130906   37.86945845
     atom   27 type  1   force =     1.12100206    0.73459011   -0.25607404
     atom   28 type  2   force =    -0.00262399    0.02089131  -38.38907310
     atom   29 type  2   force =    -0.00760674    0.26881115   38.09884059
     atom   30 type  1   force =     0.00365162    0.08017929   -1.93420893
     atom   31 type  2   force =     0.24111340   -0.08091248  -38.62665911
     atom   32 type  2   force =     0.66808371   -0.01640437   38.23735876
     atom   33 type  1   force =     0.17704120   -0.46397504   -1.77299597
     atom   34 type  2   force =     0.00061497   -0.00547672  -38.82884797
     atom   35 type  2   force =    -0.01323132   -0.23010432   37.87929155
     atom   36 type  3   force =    -0.00393496    0.05222509  -32.82092294
     The core correction contribution to forces
     atom    1 type  1   force =     0.00000000    0.00000000    0.00000000
     atom    2 type  2   force =    -0.00004549    0.00052594    0.02082927
     atom    3 type  2   force =     0.00003181    0.00038771   -0.02083877
     atom    4 type  1   force =     0.00000000    0.00000000    0.00000000
     atom    5 type  2   force =    -0.00057148    0.00120101    0.02078474
     atom    6 type  2   force =     0.00029278   -0.00009693   -0.02097415
     atom    7 type  1   force =     0.00000000    0.00000000    0.00000000
     atom    8 type  2   force =    -0.00086320    0.00056969    0.02080428
     atom    9 type  2   force =     0.00070544    0.00058653   -0.02102644
     atom   10 type  1   force =     0.00000000    0.00000000    0.00000000
     atom   11 type  2   force =    -0.00021238   -0.00028734    0.02085633
     atom   12 type  2   force =     0.00054393    0.00097807   -0.02097358
     atom   13 type  1   force =     0.00000000    0.00000000    0.00000000
     atom   14 type  2   force =    -0.00000195    0.00036852    0.02096024
     atom   15 type  2   force =     0.00000620    0.00048850   -0.02094665
     atom   16 type  1   force =     0.00000000    0.00000000    0.00000000
     atom   17 type  2   force =     0.00056965    0.00116285    0.02079144
     atom   18 type  2   force =    -0.00026907   -0.00010522   -0.02099162
     atom   19 type  1   force =     0.00000000    0.00000000    0.00000000
     atom   20 type  2   force =    -0.00005057    0.00053958   -0.01960935
     atom   21 type  1   force =     0.00000000    0.00000000    0.00000000
     atom   22 type  2   force =     0.00024414   -0.00026947    0.02084175
     atom   23 type  2   force =    -0.00052894    0.00099930   -0.02096920
     atom   24 type  1   force =     0.00000000    0.00000000    0.00000000
     atom   25 type  2   force =     0.00005636    0.00058098    0.02083006
     atom   26 type  2   force =    -0.00007188    0.00037886   -0.02085285
     atom   27 type  1   force =     0.00000000    0.00000000    0.00000000
     atom   28 type  2   force =    -0.00000054    0.00061235    0.02081070
     atom   29 type  2   force =    -0.00003987    0.00034775   -0.02078812
     atom   30 type  1   force =     0.00000000    0.00000000    0.00000000
     atom   31 type  2   force =     0.00080636    0.00055269    0.02083578
     atom   32 type  2   force =    -0.00068657    0.00062276   -0.02103306
     atom   33 type  1   force =     0.00000000    0.00000000    0.00000000
     atom   34 type  2   force =     0.00001701    0.00055799    0.02108270
     atom   35 type  2   force =     0.00000349    0.00059498   -0.02091235
     atom   36 type  3   force =     0.00000839    0.00010201    0.01481927
     The Hubbard contrib.    to forces
     atom    1 type  1   force =     0.00000000    0.00000000    0.00000000
     atom    2 type  2   force =     0.00000000    0.00000000    0.00000000
     atom    3 type  2   force =     0.00000000    0.00000000    0.00000000
     atom    4 type  1   force =     0.00000000    0.00000000    0.00000000
     atom    5 type  2   force =     0.00000000    0.00000000    0.00000000
     atom    6 type  2   force =     0.00000000    0.00000000    0.00000000
     atom    7 type  1   force =     0.00000000    0.00000000    0.00000000
     atom    8 type  2   force =     0.00000000    0.00000000    0.00000000
     atom    9 type  2   force =     0.00000000    0.00000000    0.00000000
     atom   10 type  1   force =     0.00000000    0.00000000    0.00000000
     atom   11 type  2   force =     0.00000000    0.00000000    0.00000000
     atom   12 type  2   force =     0.00000000    0.00000000    0.00000000
     atom   13 type  1   force =     0.00000000    0.00000000    0.00000000
     atom   14 type  2   force =     0.00000000    0.00000000    0.00000000
     atom   15 type  2   force =     0.00000000    0.00000000    0.00000000
     atom   16 type  1   force =     0.00000000    0.00000000    0.00000000
     atom   17 type  2   force =     0.00000000    0.00000000    0.00000000
     atom   18 type  2   force =     0.00000000    0.00000000    0.00000000
     atom   19 type  1   force =     0.00000000    0.00000000    0.00000000
     atom   20 type  2   force =     0.00000000    0.00000000    0.00000000
     atom   21 type  1   force =     0.00000000    0.00000000    0.00000000
     atom   22 type  2   force =     0.00000000    0.00000000    0.00000000
     atom   23 type  2   force =     0.00000000    0.00000000    0.00000000
     atom   24 type  1   force =     0.00000000    0.00000000    0.00000000
     atom   25 type  2   force =     0.00000000    0.00000000    0.00000000
     atom   26 type  2   force =     0.00000000    0.00000000    0.00000000
     atom   27 type  1   force =     0.00000000    0.00000000    0.00000000
     atom   28 type  2   force =     0.00000000    0.00000000    0.00000000
     atom   29 type  2   force =     0.00000000    0.00000000    0.00000000
     atom   30 type  1   force =     0.00000000    0.00000000    0.00000000
     atom   31 type  2   force =     0.00000000    0.00000000    0.00000000
     atom   32 type  2   force =     0.00000000    0.00000000    0.00000000
     atom   33 type  1   force =     0.00000000    0.00000000    0.00000000
     atom   34 type  2   force =     0.00000000    0.00000000    0.00000000
     atom   35 type  2   force =     0.00000000    0.00000000    0.00000000
     atom   36 type  3   force =     0.00000000    0.00000000    0.00000000
     The SCF correction term to forces
     atom    1 type  1   force =     0.00000239    0.00003022   -0.00002061
     atom    2 type  2   force =    -0.00000531    0.00000758   -0.00000190
     atom    3 type  2   force =     0.00000583    0.00000844   -0.00001951
     atom    4 type  1   force =     0.00000237    0.00000965    0.00000315
     atom    5 type  2   force =     0.00000101    0.00001925    0.00000050
     atom    6 type  2   force =     0.00000343    0.00000180    0.00000156
     atom    7 type  1   force =     0.00000111   -0.00003823    0.00003126
     atom    8 type  2   force =    -0.00000281   -0.00000796    0.00000191
     atom    9 type  2   force =     0.00000229   -0.00000664    0.00000895
     atom   10 type  1   force =     0.00002026   -0.00000881   -0.00002171
     atom   11 type  2   force =    -0.00000108   -0.00002896    0.00000914
     atom   12 type  2   force =     0.00000473   -0.00000130   -0.00000732
     atom   13 type  1   force =     0.00000610    0.00003760   -0.00002979
     atom   14 type  2   force =    -0.00000236    0.00000919    0.00000306
     atom   15 type  2   force =    -0.00000432    0.00001569   -0.00001490
     atom   16 type  1   force =    -0.00001250    0.00002535    0.00001207
     atom   17 type  2   force =     0.00000379    0.00002367   -0.00000401
     atom   18 type  2   force =    -0.00000553    0.00000120    0.00000269
     atom   19 type  1   force =    -0.00000230   -0.00003933    0.00003027
     atom   20 type  2   force =     0.00000566   -0.00001376    0.00001710
     atom   21 type  1   force =    -0.00001426   -0.00001097   -0.00000840
     atom   22 type  2   force =    -0.00000025   -0.00002096    0.00000937
     atom   23 type  2   force =    -0.00000617   -0.00000768   -0.00000417
     atom   24 type  1   force =     0.00001272    0.00002692   -0.00004667
     atom   25 type  2   force =     0.00000539    0.00000480   -0.00001102
     atom   26 type  2   force =    -0.00000337    0.00001163   -0.00001513
     atom   27 type  1   force =     0.00000834    0.00001356   -0.00000166
     atom   28 type  2   force =    -0.00000047    0.00002430   -0.00000766
     atom   29 type  2   force =     0.00000397    0.00000569   -0.00000639
     atom   30 type  1   force =     0.00000843   -0.00003311    0.00000442
     atom   31 type  2   force =     0.00000860   -0.00000385   -0.00000522
     atom   32 type  2   force =    -0.00000183   -0.00000920    0.00001425
     atom   33 type  1   force =    -0.00001708   -0.00000879   -0.00001452
     atom   34 type  2   force =     0.00000458   -0.00002092   -0.00000489
     atom   35 type  2   force =    -0.00000058   -0.00000054   -0.00000261
     atom   36 type  3   force =    -0.00001116   -0.00000670    0.00000797

     Total force =     0.006686     Total SCF correction =     0.000152
     Energy error            =      9.1E-05 Ry
     Gradient error          =      1.8E-03 Ry/Bohr

     bfgs converged in  29 scf cycles and  28 bfgs steps
     (criteria: energy <  1.0E-04 Ry, force <  1.0E-02 Ry/Bohr)

     End of BFGS Geometry Optimization

     Final energy             =   -2246.7161943974 Ry

     File ./MoS2-V-O.bfgs deleted, as requested
Begin final coordinates

ATOMIC_POSITIONS (angstrom)
Mo            6.5708907341        1.7794332106        2.7961159777
S             8.1455661208        0.8757398928        4.3959074259
S             8.1478558225        0.8642777259        1.2085587255
Mo            8.1477970121        4.5152342478        2.7764132248
S             6.5430082328        3.6576753647        4.3658046109
S             6.5708837029        3.6002044069        1.1808307792
Mo            6.5242809824        7.2052907279        2.7353237724
S             8.1021567893        6.3392000490        4.3703981395
S             8.1634321367        6.3508888746        1.1848440585
Mo            8.1491253975        9.9624690973        2.8054100942
S             6.5491527772        9.0069591098        4.3791552313
S             6.5910194467        9.0607838117        1.1862184585
Mo            3.4382362468        1.7812792188        2.7932963070
S             5.0051234040        0.8596354344        4.3886372635
S             5.0050977871        0.8635557951        1.1950205216
Mo            5.0010688871        4.5750973476        2.7286287305
S             3.4626688239        3.6562889673        4.3649958099
S             3.4360119880        3.5995370909        1.1780667812
Mo            3.4763591616        7.2074329792        2.7380168563
S             4.9972405509        6.3398308946        1.0455783019
Mo            5.0046463391        9.9540157623        2.7836756299
S             3.4585908974        9.0100222067        4.3785876453
S             3.4166392297        9.0643746241        1.1880537995
Mo            0.2742956607        1.7747949757        2.7960083284
S             1.8630934086        0.8801763299        4.3946248372
S             1.8579759761        0.8663604163        1.2064866908
Mo            1.8570377907        4.5147915041        2.7757042987
S             0.2740543362        3.6192944807        4.3753374757
S             0.2723436216        3.5993908167        1.1890189123
Mo            0.2728041741        7.2520153919        2.8019308895
S             1.8965172846        6.3386206934        4.3738931273
S             1.8394479736        6.3532972848        1.1858043340
Mo            1.8595411234        9.9645687422        2.8063554443
S             0.2768026704        9.0693411498        4.4069080861
S             0.2752401870        9.0752882645        1.2128984485
O             5.0000958898        6.3297128539        3.8338138017
End final coordinates



     Writing all to output data dir ./MoS2-V-O.save/
 
     init_run     :      4.61s CPU      5.10s WALL (       1 calls)
     electrons    :   2644.77s CPU   2995.66s WALL (      29 calls)
     update_pot   :     85.55s CPU     91.27s WALL (      28 calls)
     forces       :     79.64s CPU     90.67s WALL (      29 calls)

     Called by init_run:
     wfcinit      :      0.49s CPU      0.53s WALL (       1 calls)
     potinit      :      2.39s CPU      2.61s WALL (       1 calls)
     hinit0       :      0.43s CPU      0.46s WALL (       1 calls)

     Called by electrons:
     c_bands      :    394.65s CPU    404.73s WALL (     271 calls)
     sum_band     :    149.47s CPU    194.38s WALL (     271 calls)
     v_of_rho     :    254.55s CPU    310.60s WALL (     290 calls)
     newd         :     88.81s CPU    129.53s WALL (     290 calls)
     PAW_pot      :     11.55s CPU     11.60s WALL (     318 calls)
     mix_rho      :   1774.65s CPU   1976.50s WALL (     271 calls)

     Called by c_bands:
     init_us_2    :      6.22s CPU      6.69s WALL (     571 calls)
     init_us_2:cp :      6.21s CPU      6.69s WALL (     571 calls)
     regterg      :    374.50s CPU    384.08s WALL (     271 calls)

     Called by *egterg:
     rdiaghg      :     25.78s CPU     26.03s WALL (    1470 calls)
     h_psi        :    241.65s CPU    243.92s WALL (    1509 calls)
     s_psi        :     23.25s CPU     23.33s WALL (    1509 calls)
     g_psi        :      1.18s CPU      1.19s WALL (    1237 calls)

     Called by h_psi:
     h_psi:calbec :     26.70s CPU     26.89s WALL (    1509 calls)
     vloc_psi     :    189.16s CPU    191.07s WALL (    1509 calls)
     add_vuspsi   :     23.22s CPU     23.36s WALL (    1509 calls)

     General routines
     calbec       :     38.76s CPU     39.02s WALL (    1924 calls)
     fft          :    171.01s CPU    198.93s WALL (   19381 calls)
     ffts         :    795.56s CPU    990.01s WALL (  436177 calls)
     fftw         :    120.47s CPU    121.53s WALL (  167424 calls)
     interpolate  :      3.60s CPU      4.12s WALL (     290 calls)
 
     Parallel routines
 
     PWSCF        :  47m 7.19s CPU  53m20.93s WALL

 
   This run was terminated on:  20:16:37   1Nov2023            

=------------------------------------------------------------------------------=
   JOB DONE.
=------------------------------------------------------------------------------=
