
     Program PWSCF v.7.2 starts on  1Nov2023 at 13:47:36 

     This program is part of the open-source Quantum ESPRESSO suite
     for quantum simulation of materials; please cite
         "P. Giannozzi et al., J. Phys.:Condens. Matter 21 395502 (2009);
         "P. Giannozzi et al., J. Phys.:Condens. Matter 29 465901 (2017);
         "P. Giannozzi et al., J. Chem. Phys. 152 154105 (2020);
          URL http://www.quantum-espresso.org", 
     in publications or presentations arising from this work. More details at
     http://www.quantum-espresso.org/quote

     Parallel version (MPI & OpenMP), running on      48 processor cores
     Number of MPI processes:                48
     Threads/MPI process:                     1

     MPI processes distributed on     1 nodes
     78945 MiB available memory on the printing compute node when the environment starts
 
     Waiting for input...
     Reading input from standard input
Warning: card &CELL ignored
Warning: card CELL_DYNAMICS = 'BFGS', ignored
Warning: card CELL_DOFREE = '2DXY' ignored
Warning: card / ignored

     Current dimensions of program PWSCF are:
     Max number of different atomic species (ntypx) = 10
     Max number of k-points (npk) =  40000
     Max angular momentum in pseudopotentials (lmaxx) =  4
     file O.pbe-n-kjpaw_psl.0.1.UPF: wavefunction(s)  2P renormalized

     IMPORTANT: XC functional enforced from input :
     Exchange-correlation= RVV10
                           (   1   4  13   4  26   0   0)
     Any further DFT definition will be discarded
     Please, verify this is what you really want


     gamma-point specific algorithms are used
     signal trapping enabled: kill the code with -SIGUSR1 to stop cleanly the simulation 
 
     R & G space division:  proc/nbgrp/npool/nimage =      48
     Subspace diagonalization in iterative solution of the eigenvalue problem:
     one sub-group per band group will be used
     scalapack distributed-memory algorithm (size of sub-group:  2*  2 procs)

 
     Parallelization info
     --------------------
     sticks:   dense  smooth     PW     G-vecs:    dense   smooth      PW
     Min         396     194     47               101632    35090    4376
     Max         398     196     50               101674    35128    4410
     Sum       19091    9389   2349              4879585  1685513  210763
 
     Using Slab Decomposition
 


     bravais-lattice index     =            0
     lattice parameter (alat)  =      17.8707  a.u.
     unit-cell volume          =   17436.2743 (a.u.)^3
     number of atoms/cell      =           36
     number of atomic types    =            3
     number of electrons       =       312.00
     number of Kohn-Sham states=          187
     kinetic-energy cutoff     =      80.0000  Ry
     charge density cutoff     =     650.0000  Ry
     scf convergence threshold =      1.0E-06
     mixing beta               =       0.7000
     number of iterations used =            8  local-TF  mixing
     energy convergence thresh.=      1.0E-04
     force convergence thresh. =      1.0E-02
     Exchange-correlation= RVV10
                           (   1   4  13   4  26   0   0)
     nstep                     =          200


     celldm(1)=  17.870686  celldm(2)=   0.000000  celldm(3)=   0.000000
     celldm(4)=   0.000000  celldm(5)=   0.000000  celldm(6)=   0.000000

     crystal axes: (cart. coord. in units of alat)
               a(1) = (   1.000000   0.000000   0.000000 )  
               a(2) = (   0.000000   1.155671   0.000000 )  
               a(3) = (   0.000000   0.000000   2.643601 )  

     reciprocal axes: (cart. coord. in units 2 pi/alat)
               b(1) = (  1.000000  0.000000  0.000000 )  
               b(2) = (  0.000000  0.865298  0.000000 )  
               b(3) = (  0.000000  0.000000  0.378272 )  


     PseudoPot. # 1 for Mo read from file:
     ../pseudo/Mo_ONCV_PBE-1.0.oncvpsp.upf
     MD5 check sum: 1b5d28e075c9ccadda658a603575cd1f
     Pseudo is Norm-conserving, Zval = 14.0
     Generated using ONCVPSP code by D. R. Hamann
     Using radial grid of 1526 points,  6 beta functions with: 
                l(1) =   0
                l(2) =   0
                l(3) =   1
                l(4) =   1
                l(5) =   2
                l(6) =   2

     PseudoPot. # 2 for S  read from file:
     ../pseudo/s_pbe_v1.4.uspp.F.UPF
     MD5 check sum: 88d86576ff6df21479756cfb9bdac1df
     Pseudo is Ultrasoft + core correction, Zval =  6.0
     Generated by new atomic code, or converted to UPF format
     Using radial grid of  907 points,  6 beta functions with: 
                l(1) =   0
                l(2) =   0
                l(3) =   1
                l(4) =   1
                l(5) =   2
                l(6) =   2
     Q(r) pseudized with  8 coefficients,  rinner =    1.300   1.300   1.300
                                                       1.300   1.300

     PseudoPot. # 3 for O  read from file:
     ../pseudo/O.pbe-n-kjpaw_psl.0.1.UPF
     MD5 check sum: 0234752ac141de4415c5fc33072bef88
     Pseudo is Projector augmented-wave + core cor, Zval =  6.0
     Generated using "atomic" code by A. Dal Corso  v.5.0.99 svn rev. 10869
     Shape of augmentation charge: BESSEL
     Using radial grid of 1095 points,  4 beta functions with: 
                l(1) =   0
                l(2) =   0
                l(3) =   1
                l(4) =   1
     Q(r) pseudized with 0 coefficients 


     atomic species   valence    mass     pseudopotential
        Mo            14.00    95.94000     Mo( 1.00)
        S              6.00    32.06500     S ( 1.00)
        O              6.00    15.99940     O ( 1.00)

     No symmetry found



   Cartesian axes

     site n.     atom                  positions (alat units)
         1           Mo  tau(   1) = (   0.6952221   0.1890506   0.2985846  )
         2           S   tau(   2) = (   0.8646417   0.0856217   0.4689279  )
         3           S   tau(   3) = (   0.8663890   0.0857843   0.1351291  )
         4           Mo  tau(   4) = (   0.8560186   0.4753274   0.2873942  )
         5           S   tau(   5) = (   0.6873294   0.3936244   0.4596353  )
         6           S   tau(   6) = (   0.6929804   0.3713468   0.1185692  )
         7           Mo  tau(   7) = (   0.6862796   0.7633098   0.2825370  )
         8           S   tau(   8) = (   0.8545980   0.6708292   0.4486168  )
         9           S   tau(   9) = (   0.8545123   0.6666874   0.1146125  )
        10           Mo  tau(  10) = (   0.8629403   1.0471007   0.3006803  )
        11           S   tau(  11) = (   0.6868280   0.9456650   0.4634891  )
        12           S   tau(  12) = (   0.6998113   0.9568511   0.1205389  )
        13           Mo  tau(  13) = (   0.3618216   0.1847309   0.2935964  )
        14           S   tau(  14) = (   0.5260962   0.0863870   0.4600448  )
        15           S   tau(  15) = (   0.5348379   0.0894875   0.1297123  )
        16           Mo  tau(  16) = (   0.5265817   0.4772436   0.2784130  )
        17           S   tau(  17) = (   0.3624753   0.3882513   0.4525556  )
        18           S   tau(  18) = (   0.3635411   0.3752055   0.1119148  )
        19           Mo  tau(  19) = (   0.3652268   0.7630864   0.2781795  )
        20           S   tau(  20) = (   0.5269494   0.6690381   0.1096838  )
        21           Mo  tau(  21) = (   0.5300192   1.0470394   0.2900995  )
        22           S   tau(  22) = (   0.3670346   0.9457522   0.4574073  )
        23           S   tau(  23) = (   0.3604225   0.9585725   0.1159032  )
        24           Mo  tau(  24) = (   0.0313099   0.1847895   0.3013130  )
        25           S   tau(  25) = (   0.1956761   0.0838230   0.4650863  )
        26           S   tau(  26) = (   0.1967693   0.0903508   0.1278874  )
        27           Mo  tau(  27) = (   0.1967578   0.4753919   0.2813011  )
        28           S   tau(  28) = (   0.0287851   0.3864324   0.4586755  )
        29           S   tau(  29) = (   0.0244514   0.3729871   0.1239344  )
        30           Mo  tau(  30) = (   0.0286728   0.7631204   0.2856894  )
        31           S   tau(  31) = (   0.2011512   0.6675435   0.4465001  )
        32           S   tau(  32) = (   0.1969214   0.6672839   0.1104564  )
        33           Mo  tau(  33) = (   0.1950294   1.0511147   0.2932237  )
        34           S   tau(  34) = (   0.0312912   0.9612169   0.4667423  )
        35           S   tau(  35) = (   0.0292670   0.9563028   0.1216485  )
        36           O   tau(  36) = (   0.5555556   0.2568157   0.5407634  )

     number of k points=     1  Gaussian smearing, width (Ry)=  0.0100
                       cart. coord. in units 2pi/alat
        k(    1) = (   0.0000000   0.0000000   0.0000000), wk =   2.0000000

     Dense  grid:  2439793 G-vectors     FFT dimensions: ( 150, 180, 384)

     Smooth grid:   842757 G-vectors     FFT dimensions: ( 108, 120, 270)

     Estimated max dynamical RAM per process >     269.22 MB

     Estimated total dynamical RAM >      12.62 GB

     Initial potential from superposition of free atoms

     starting charge     311.9873, renormalised to     312.0000

     negative rho (up, down):  2.739E-04 0.000E+00


---------------------------------------------------------------------------------
Carrying out rVV10 run using the following parameters:
Nqs =      20    Nr_points =    1024   r_max =   100.000
b_value =  6.30000    beta =  0.00901
     q_mesh =  0.00010000  0.00030000  0.00058939  0.00100810
               0.00161396  0.00249058  0.00375900  0.00559430
               0.00824984  0.01209221  0.01765183  0.02569619
               0.03733578  0.05417739  0.07854596  0.11380545
               0.16482331  0.23864234  0.34545298  0.50000000

Gradients computed in Reciprocal space

---------------------------------------------------------------------------------


     Starting wfcs are  216 randomized atomic wfcs
     Checking if some PAW data can be deallocated... 

     total cpu time spent up to now is        5.3 secs

     Self-consistent Calculation

     iteration #  1     ecut=    80.00 Ry     beta= 0.70
     Davidson diagonalization with overlap
     ethr =  1.00E-02,  avg # of iterations =  2.0

     Threshold (ethr) on eigenvalues was too large:
     Diagonalizing with lowered threshold

     Davidson diagonalization with overlap
     ethr =  4.24E-04,  avg # of iterations =  4.0

     negative rho (up, down):  4.345E-08 0.000E+00

     total cpu time spent up to now is       19.5 secs

     total energy              =   -2246.15295750 Ry
     estimated scf accuracy    <       1.58923378 Ry

     iteration #  2     ecut=    80.00 Ry     beta= 0.70
     Davidson diagonalization with overlap
     ethr =  5.09E-04,  avg # of iterations =  4.0

     total cpu time spent up to now is       24.6 secs

     total energy              =   -2246.13970661 Ry
     estimated scf accuracy    <       0.76013317 Ry

     iteration #  3     ecut=    80.00 Ry     beta= 0.70
     Davidson diagonalization with overlap
     ethr =  2.44E-04,  avg # of iterations =  4.0

     total cpu time spent up to now is       28.6 secs

     total energy              =   -2246.12080897 Ry
     estimated scf accuracy    <       0.26932409 Ry

     iteration #  4     ecut=    80.00 Ry     beta= 0.70
     Davidson diagonalization with overlap
     ethr =  8.63E-05,  avg # of iterations =  9.0

     total cpu time spent up to now is       32.9 secs

     total energy              =   -2246.16668194 Ry
     estimated scf accuracy    <       0.03850631 Ry

     iteration #  5     ecut=    80.00 Ry     beta= 0.70
     Davidson diagonalization with overlap
     ethr =  1.23E-05,  avg # of iterations = 18.0

     total cpu time spent up to now is       37.7 secs

     total energy              =   -2246.16814744 Ry
     estimated scf accuracy    <       0.02035869 Ry

     iteration #  6     ecut=    80.00 Ry     beta= 0.70
     Davidson diagonalization with overlap
     ethr =  6.53E-06,  avg # of iterations =  2.0

     total cpu time spent up to now is       41.5 secs

     total energy              =   -2246.16788852 Ry
     estimated scf accuracy    <       0.01451198 Ry

     iteration #  7     ecut=    80.00 Ry     beta= 0.70
     Davidson diagonalization with overlap
     ethr =  4.65E-06,  avg # of iterations =  1.0

     total cpu time spent up to now is       45.1 secs

     total energy              =   -2246.16672363 Ry
     estimated scf accuracy    <       0.00942478 Ry

     iteration #  8     ecut=    80.00 Ry     beta= 0.70
     Davidson diagonalization with overlap
     ethr =  3.02E-06,  avg # of iterations =  1.0

     negative rho (up, down):  5.576E-04 0.000E+00

     total cpu time spent up to now is       51.8 secs

     total energy              =   -2246.16529022 Ry
     estimated scf accuracy    <       0.00531706 Ry

     iteration #  9     ecut=    80.00 Ry     beta= 0.70
     Davidson diagonalization with overlap
     ethr =  1.70E-06,  avg # of iterations =  2.0

     negative rho (up, down):  1.679E-02 0.000E+00

     total cpu time spent up to now is       57.8 secs

     total energy              =   -2246.16500558 Ry
     estimated scf accuracy    <       0.00267437 Ry

     iteration # 10     ecut=    80.00 Ry     beta= 0.70
     Davidson diagonalization with overlap
     ethr =  8.57E-07,  avg # of iterations =  2.0

     negative rho (up, down):  2.622E-02 0.000E+00

     total cpu time spent up to now is       63.9 secs

     total energy              =   -2246.16501102 Ry
     estimated scf accuracy    <       0.00129781 Ry

     iteration # 11     ecut=    80.00 Ry     beta= 0.70
     Davidson diagonalization with overlap
     ethr =  4.16E-07,  avg # of iterations =  2.0

     negative rho (up, down):  1.857E-02 0.000E+00

     total cpu time spent up to now is       71.0 secs

     total energy              =   -2246.16502012 Ry
     estimated scf accuracy    <       0.00034405 Ry

     iteration # 12     ecut=    80.00 Ry     beta= 0.70
     Davidson diagonalization with overlap
     ethr =  1.10E-07,  avg # of iterations =  4.0

     negative rho (up, down):  5.198E-03 0.000E+00

     total cpu time spent up to now is       79.7 secs

     total energy              =   -2246.16501941 Ry
     estimated scf accuracy    <       0.00005695 Ry

     iteration # 13     ecut=    80.00 Ry     beta= 0.70
     Davidson diagonalization with overlap
     ethr =  1.83E-08,  avg # of iterations =  8.0

     negative rho (up, down):  1.561E-03 0.000E+00

     total cpu time spent up to now is       89.5 secs

     total energy              =   -2246.16506041 Ry
     estimated scf accuracy    <       0.00000859 Ry

     iteration # 14     ecut=    80.00 Ry     beta= 0.70
     Davidson diagonalization with overlap
     ethr =  2.75E-09,  avg # of iterations =  2.0

     negative rho (up, down):  4.300E-04 0.000E+00

     total cpu time spent up to now is       99.4 secs

     total energy              =   -2246.16506000 Ry
     estimated scf accuracy    <       0.00000241 Ry

     iteration # 15     ecut=    80.00 Ry     beta= 0.70
     Davidson diagonalization with overlap
     ethr =  7.71E-10,  avg # of iterations =  2.0

     negative rho (up, down):  2.033E-04 0.000E+00

     total cpu time spent up to now is      102.9 secs

     End of self-consistent calculation

          k = 0.0000 0.0000 0.0000 (105382 PWs)   bands (ev):

   -62.9637 -62.9192 -62.8946 -62.8829 -62.8764 -62.8528 -62.8362 -62.8346
   -62.8250 -62.8142 -62.8037 -62.7707 -37.2897 -37.2236 -37.1948 -37.1872
   -37.1662 -37.1636 -37.1542 -37.1301 -37.1082 -37.0972 -37.0922 -37.0868
   -37.0728 -37.0658 -37.0549 -37.0504 -37.0473 -37.0383 -37.0231 -37.0066
   -36.9959 -36.9862 -36.9749 -36.9681 -36.9647 -36.9519 -36.9440 -36.9392
   -36.9352 -36.9273 -36.9168 -36.8746 -36.8664 -36.8295 -36.7827 -36.7599
   -20.8575 -15.9626 -15.5394 -15.1461 -15.0515 -14.9779 -14.8810 -14.7470
   -14.5368 -14.4920 -14.4884 -14.4199 -14.3970 -14.3609 -14.2587 -14.2246
   -14.1760 -14.1463 -14.1240 -13.9620 -13.8956 -13.8854 -13.8568 -13.7898
    -8.4507  -7.7479  -7.5848  -7.5608  -7.3564  -7.3454  -7.3096  -7.2168
    -7.1872  -7.0293  -6.9185  -6.8588  -6.8012  -6.7621  -6.6691  -6.5612
    -6.4728  -6.4364  -6.3611  -6.3341  -6.1721  -6.1015  -5.9558  -5.9401
    -5.8606  -5.8206  -5.7866  -5.7561  -5.7173  -5.6726  -5.6447  -5.5790
    -5.5706  -5.4997  -5.4430  -5.3165  -5.2355  -5.1573  -5.1117  -5.0479
    -5.0323  -5.0236  -4.8888  -4.8094  -4.6084  -4.5188  -4.4028  -4.3602
    -4.2811  -4.2719  -4.1930  -4.1488  -4.0623  -3.9948  -3.9513  -3.8037
    -3.7369  -3.7027  -3.6734  -3.6014  -3.5747  -3.5668  -3.5397  -3.5228
    -3.4816  -3.4546  -3.2749  -3.2220  -2.9789  -2.9546  -2.8960  -2.8223
    -2.8041  -2.7717  -2.7463  -2.7075  -2.6850  -2.6497  -2.3988  -2.2527
    -2.0766  -2.0298  -1.9483  -1.6511  -1.4664  -0.7887  -0.7074  -0.1995
    -0.1632  -0.1456  -0.0833  -0.0044   0.0919   0.1353   0.1967   0.2332
     0.2636   0.3887   0.4292   0.4417   0.5030   0.5535   0.5619   0.6018
     0.6561   0.6795   0.7077   0.7174   0.7590   0.8092   0.8709   0.9150
     0.9598   1.0784   1.1946

     the Fermi energy is    -1.5587 ev

!    total energy              =   -2246.16506182 Ry
     estimated scf accuracy    <       0.00000076 Ry
     smearing contrib. (-TS)   =      -0.00711929 Ry
     internal energy E=F+TS    =   -2246.15794253 Ry

     The total energy is F=E-TS. E is the sum of the following terms:
     one-electron contribution =  -18495.43289099 Ry
     hartree contribution      =    9236.19864851 Ry
     xc contribution           =    -392.04550396 Ry
     ewald contribution        =    7414.99366513 Ry
     one-center paw contrib.   =      -9.87186122 Ry

     convergence has been achieved in  15 iterations

     negative rho (up, down):  2.033E-04 0.000E+00

     Forces acting on atoms (cartesian axes, Ry/au):

     atom    1 type  1   force =     0.04884398   -0.05040920   -0.04027624
     atom    2 type  2   force =    -0.01740940    0.01712736    0.00152431
     atom    3 type  2   force =    -0.01646818    0.01322789   -0.00167815
     atom    4 type  1   force =     0.01245204    0.02332965   -0.01913235
     atom    5 type  2   force =    -0.01434962    0.01257527   -0.00064528
     atom    6 type  2   force =     0.00200684    0.01132594    0.00087119
     atom    7 type  1   force =     0.00747330   -0.02401914   -0.01280552
     atom    8 type  2   force =     0.00058297   -0.00431369    0.02066112
     atom    9 type  2   force =     0.01290605    0.00403950    0.01282531
     atom   10 type  1   force =    -0.01438968    0.01029162   -0.02672846
     atom   11 type  2   force =     0.00624049   -0.00402653   -0.00633798
     atom   12 type  2   force =    -0.00300386    0.00057648    0.00531536
     atom   13 type  1   force =    -0.00414046    0.00045845   -0.02154351
     atom   14 type  2   force =    -0.00646487    0.06671959    0.03277575
     atom   15 type  2   force =    -0.01278756    0.00148421   -0.00774819
     atom   16 type  1   force =    -0.00622610    0.01131803    0.00714880
     atom   17 type  2   force =    -0.01638586    0.01670310   -0.01931309
     atom   18 type  2   force =    -0.00349575   -0.00647667    0.01507516
     atom   19 type  1   force =     0.00219973   -0.01479553   -0.00611939
     atom   20 type  2   force =     0.00386077    0.00317530    0.00036577
     atom   21 type  1   force =    -0.00365953   -0.02844614   -0.01858155
     atom   22 type  2   force =    -0.00279214   -0.00123634   -0.00505228
     atom   23 type  2   force =     0.00213363    0.00434636    0.00859101
     atom   24 type  1   force =    -0.00907411   -0.00505766   -0.02127936
     atom   25 type  2   force =     0.01753795    0.01636587    0.00881703
     atom   26 type  2   force =    -0.01285439   -0.00102510   -0.00387420
     atom   27 type  1   force =    -0.00406124    0.01098311   -0.00087771
     atom   28 type  2   force =     0.00323145   -0.00017995   -0.00563869
     atom   29 type  2   force =     0.00341064   -0.00468946   -0.00374928
     atom   30 type  1   force =    -0.00283439    0.01253422   -0.00751846
     atom   31 type  2   force =     0.00119453   -0.00135836    0.01825341
     atom   32 type  2   force =    -0.00765309    0.00765464    0.00945484
     atom   33 type  1   force =     0.01456081   -0.00226875   -0.00788588
     atom   34 type  2   force =     0.00319579   -0.04392272   -0.00854142
     atom   35 type  2   force =    -0.00815291    0.00599870    0.01546202
     atom   36 type  3   force =     0.02437217   -0.05801006    0.08818591
     The non-local contrib.  to forces
     atom    1 type  1   force =    -0.00470538    0.03318336   -0.01300174
     atom    2 type  2   force =    -0.01349765    0.00606792   -0.27123487
     atom    3 type  2   force =    -0.02110118    0.00152032    0.27377568
     atom    4 type  1   force =    -0.00185326   -0.00952468    0.00762195
     atom    5 type  2   force =    -0.15695497   -0.18294219   -0.16783144
     atom    6 type  2   force =    -0.00259343    0.01293495    0.25867531
     atom    7 type  1   force =    -0.01731356    0.00746270   -0.01973577
     atom    8 type  2   force =    -0.00351591   -0.00562516   -0.25694654
     atom    9 type  2   force =     0.00684453   -0.00768555    0.27797923
     atom   10 type  1   force =     0.00765430    0.00102182   -0.00109864
     atom   11 type  2   force =     0.01472473   -0.00143574   -0.25569083
     atom   12 type  2   force =    -0.01429340   -0.01506633    0.26423551
     atom   13 type  1   force =    -0.00400534    0.01100735   -0.00191521
     atom   14 type  2   force =     0.06368574    0.33451618   -0.01395925
     atom   15 type  2   force =    -0.01406129   -0.00577009    0.25918574
     atom   16 type  1   force =     0.00665336    0.03270399   -0.01126224
     atom   17 type  2   force =     0.00324644   -0.02204048   -0.24685676
     atom   18 type  2   force =    -0.00548623   -0.00155425    0.26732860
     atom   19 type  1   force =     0.00917787   -0.00357811   -0.01555226
     atom   20 type  2   force =     0.00045304   -0.01666574    0.26199306
     atom   21 type  1   force =    -0.00732436    0.02716112   -0.00663469
     atom   22 type  2   force =    -0.01009991    0.00272507   -0.25287491
     atom   23 type  2   force =     0.01358406   -0.01577210    0.27077759
     atom   24 type  1   force =     0.00735557    0.01952412   -0.00614767
     atom   25 type  2   force =     0.01383591    0.00865603   -0.26131482
     atom   26 type  2   force =    -0.00068814   -0.01072713    0.26509608
     atom   27 type  1   force =     0.00929918    0.00127765    0.01241068
     atom   28 type  2   force =     0.00202043   -0.02273424   -0.27053099
     atom   29 type  2   force =     0.00756643   -0.00429368    0.26158912
     atom   30 type  1   force =     0.00346272    0.01819465    0.01134529
     atom   31 type  2   force =    -0.00452603    0.00010571   -0.25506518
     atom   32 type  2   force =    -0.00295603   -0.00658432    0.27020976
     atom   33 type  1   force =    -0.00863958    0.00641615    0.00657014
     atom   34 type  2   force =    -0.00114857   -0.03525481   -0.27302361
     atom   35 type  2   force =    -0.00133408   -0.00797084    0.27043476
     atom   36 type  3   force =     0.14394190   -0.53330961   -0.53524383
     The ionic contribution  to forces
     atom    1 type  1   force =     3.17126936   -1.19454831    0.14269125
     atom    2 type  2   force =     0.47425539   -0.36951014   38.90153777
     atom    3 type  2   force =     0.06268070   -0.18169653  -36.85760837
     atom    4 type  1   force =     1.21438078    1.66973732   -1.12271262
     atom    5 type  2   force =     2.27076400    4.92008888   36.65144097
     atom    6 type  2   force =     0.57299801   -0.28078524  -39.14795408
     atom    7 type  1   force =    -2.35910858   -2.32651515    1.44600477
     atom    8 type  2   force =    -0.69851587    0.45862968   37.18511829
     atom    9 type  2   force =     0.43590793    0.11598206  -38.54893311
     atom   10 type  1   force =    -0.52464533   -1.17872171    4.50087612
     atom   11 type  2   force =    -0.36601216   -2.09190514   38.94715936
     atom   12 type  2   force =     0.51509986    0.53685480  -38.43111768
     atom   13 type  1   force =    -2.13801327   -0.07715296   -1.26648042
     atom   14 type  2   force =    -0.86745135   -5.42725883   35.88299925
     atom   15 type  2   force =     0.11813755   -0.41618674  -37.98730994
     atom   16 type  1   force =    -0.34487568    6.50397667   -3.13378158
     atom   17 type  2   force =    -1.78181342    3.33953467   36.62607733
     atom   18 type  2   force =    -0.41051643   -0.45677846  -39.56358240
     atom   19 type  1   force =     2.40446754   -2.04736260   -0.42502708
     atom   20 type  2   force =     0.21067737    0.02115748  -39.12336875
     atom   21 type  1   force =    -0.07923042   -1.56863408   -0.61966522
     atom   22 type  2   force =     0.22146329   -2.13312678   38.23879999
     atom   23 type  2   force =    -0.17059296    0.52358218  -38.84954089
     atom   24 type  1   force =    -0.32549485    0.83639299    4.39209320
     atom   25 type  2   force =    -0.12224828   -0.27433989   38.96761062
     atom   26 type  2   force =    -0.46414140   -0.09985243  -38.04477440
     atom   27 type  1   force =    -0.78241233    1.24304371   -3.78160195
     atom   28 type  2   force =     0.20905844    1.30456019   37.95598946
     atom   29 type  2   force =    -0.22094313   -0.32588296  -37.92989088
     atom   30 type  1   force =    -0.28884474   -0.67699327   -0.88384952
     atom   31 type  2   force =     0.99683193    0.30519855   37.13759184
     atom   32 type  2   force =    -0.55440724    0.12658459  -39.15626580
     atom   33 type  1   force =     0.34588320   -1.57885204    0.97164156
     atom   34 type  2   force =     0.27363684   -1.66016307   39.23482787
     atom   35 type  2   force =    -0.28662014    0.38710068  -38.29044209
     atom   36 type  3   force =    -0.71162463    2.07384188   45.98144713
     The local contribution  to forces
     atom    1 type  1   force =    -3.11790452    1.11101829   -0.17085737
     atom    2 type  2   force =    -0.47867964    0.38088802  -38.65001179
     atom    3 type  2   force =    -0.05902838    0.19353975   36.60290029
     atom    4 type  1   force =    -1.20013253   -1.63687928    1.09488370
     atom    5 type  2   force =    -2.13609744   -4.73411311  -36.50036340
     atom    6 type  2   force =    -0.56881067    0.28048448   38.91055028
     atom    7 type  1   force =     2.38377597    2.29510997   -1.44027784
     atom    8 type  2   force =     0.70235528   -0.45805306  -36.92850755
     atom    9 type  2   force =    -0.42973836   -0.10473350   38.30444565
     atom   10 type  1   force =     0.50240965    1.18799055   -4.52746706
     atom   11 type  2   force =     0.35805679    2.08975483  -38.71879015
     atom   12 type  2   force =    -0.50515362   -0.52248702   38.19283416
     atom   13 type  1   force =     2.13794705    0.06676604    1.24596675
     atom   14 type  2   force =     0.80084821    5.17886993  -35.84375291
     atom   15 type  2   force =    -0.11769366    0.42300110   37.74065572
     atom   16 type  1   force =     0.33183790   -6.52551856    3.15114525
     atom   17 type  2   force =     1.76162830   -3.30146392  -36.41947218
     atom   18 type  2   force =     0.41244261    0.45251982   39.33180519
     atom   19 type  1   force =    -2.41142143    2.03618488    0.43322168
     atom   20 type  2   force =    -0.20743785   -0.00190357   38.88238621
     atom   21 type  1   force =     0.08283989    1.51297889    0.60671055
     atom   22 type  2   force =    -0.21431851    2.12974938  -38.01180788
     atom   23 type  2   force =     0.16010605   -0.50481280   38.60811314
     atom   24 type  1   force =     0.30914430   -0.86091450   -4.40807621
     atom   25 type  2   force =     0.12639648    0.28267503  -38.71868047
     atom   26 type  2   force =     0.45228042    0.10897256   37.79647611
     atom   27 type  1   force =     0.76924918   -1.23330741    3.76725660
     atom   28 type  2   force =    -0.20789913   -1.28376850  -37.71235727
     atom   29 type  2   force =     0.21742051    0.32583385   37.68466943
     atom   30 type  1   force =     0.28263982    0.67112831    0.86377355
     atom   31 type  2   force =    -0.99136022   -0.30678124  -36.88537120
     atom   32 type  2   force =     0.54993193   -0.11275630   38.91601601
     atom   33 type  1   force =    -0.32243297    1.57016701   -0.98713142
     atom   34 type  2   force =    -0.26969020    1.65046755  -38.99195652
     atom   35 type  2   force =     0.27995376   -0.37398944   38.05618753
     atom   36 type  3   force =     0.59338356   -1.60452741  -45.36329499
     The core correction contribution to forces
     atom    1 type  1   force =     0.00000000    0.00000000    0.00000000
     atom    2 type  2   force =     0.00047789   -0.00030293    0.02080978
     atom    3 type  2   force =     0.00098819   -0.00015374   -0.02104861
     atom    4 type  1   force =     0.00000000    0.00000000    0.00000000
     atom    5 type  2   force =     0.00789802    0.00964079    0.01571838
     atom    6 type  2   force =     0.00033375   -0.00117416   -0.02068786
     atom    7 type  1   force =     0.00000000    0.00000000    0.00000000
     atom    8 type  2   force =     0.00025885    0.00065849    0.02051823
     atom    9 type  2   force =    -0.00010939    0.00043654   -0.02103388
     atom   10 type  1   force =     0.00000000    0.00000000    0.00000000
     atom   11 type  2   force =    -0.00060964   -0.00033447    0.02046483
     atom   12 type  2   force =     0.00123696    0.00123766   -0.02090199
     atom   13 type  1   force =     0.00000000    0.00000000    0.00000000
     atom   14 type  2   force =    -0.00361390   -0.01952928    0.00711871
     atom   15 type  2   force =     0.00075849    0.00039533   -0.02052966
     atom   16 type  1   force =     0.00000000    0.00000000    0.00000000
     atom   17 type  2   force =     0.00059803    0.00067780    0.02045350
     atom   18 type  2   force =     0.00011429   -0.00057128   -0.02073493
     atom   19 type  1   force =     0.00000000    0.00000000    0.00000000
     atom   20 type  2   force =     0.00009260    0.00057783   -0.02101126
     atom   21 type  1   force =     0.00000000    0.00000000    0.00000000
     atom   22 type  2   force =     0.00024228   -0.00054926    0.02028202
     atom   23 type  2   force =    -0.00088096    0.00125121   -0.02101816
     atom   24 type  1   force =     0.00000000    0.00000000    0.00000000
     atom   25 type  2   force =    -0.00035926   -0.00055955    0.02074088
     atom   26 type  2   force =    -0.00023541    0.00060486   -0.02094729
     atom   27 type  1   force =     0.00000000    0.00000000    0.00000000
     atom   28 type  2   force =     0.00006369    0.00175747    0.02081154
     atom   29 type  2   force =    -0.00060028   -0.00023284   -0.02044456
     atom   30 type  1   force =     0.00000000    0.00000000    0.00000000
     atom   31 type  2   force =     0.00031285    0.00006079    0.02059811
     atom   32 type  2   force =    -0.00014750    0.00040095   -0.02084848
     atom   33 type  1   force =     0.00000000    0.00000000    0.00000000
     atom   34 type  2   force =     0.00039470    0.00106958    0.02113715
     atom   35 type  2   force =    -0.00012352    0.00078383   -0.02105793
     atom   36 type  3   force =    -0.00147509    0.00596927    0.00505001
     The Hubbard contrib.    to forces
     atom    1 type  1   force =     0.00000000    0.00000000    0.00000000
     atom    2 type  2   force =     0.00000000    0.00000000    0.00000000
     atom    3 type  2   force =     0.00000000    0.00000000    0.00000000
     atom    4 type  1   force =     0.00000000    0.00000000    0.00000000
     atom    5 type  2   force =     0.00000000    0.00000000    0.00000000
     atom    6 type  2   force =     0.00000000    0.00000000    0.00000000
     atom    7 type  1   force =     0.00000000    0.00000000    0.00000000
     atom    8 type  2   force =     0.00000000    0.00000000    0.00000000
     atom    9 type  2   force =     0.00000000    0.00000000    0.00000000
     atom   10 type  1   force =     0.00000000    0.00000000    0.00000000
     atom   11 type  2   force =     0.00000000    0.00000000    0.00000000
     atom   12 type  2   force =     0.00000000    0.00000000    0.00000000
     atom   13 type  1   force =     0.00000000    0.00000000    0.00000000
     atom   14 type  2   force =     0.00000000    0.00000000    0.00000000
     atom   15 type  2   force =     0.00000000    0.00000000    0.00000000
     atom   16 type  1   force =     0.00000000    0.00000000    0.00000000
     atom   17 type  2   force =     0.00000000    0.00000000    0.00000000
     atom   18 type  2   force =     0.00000000    0.00000000    0.00000000
     atom   19 type  1   force =     0.00000000    0.00000000    0.00000000
     atom   20 type  2   force =     0.00000000    0.00000000    0.00000000
     atom   21 type  1   force =     0.00000000    0.00000000    0.00000000
     atom   22 type  2   force =     0.00000000    0.00000000    0.00000000
     atom   23 type  2   force =     0.00000000    0.00000000    0.00000000
     atom   24 type  1   force =     0.00000000    0.00000000    0.00000000
     atom   25 type  2   force =     0.00000000    0.00000000    0.00000000
     atom   26 type  2   force =     0.00000000    0.00000000    0.00000000
     atom   27 type  1   force =     0.00000000    0.00000000    0.00000000
     atom   28 type  2   force =     0.00000000    0.00000000    0.00000000
     atom   29 type  2   force =     0.00000000    0.00000000    0.00000000
     atom   30 type  1   force =     0.00000000    0.00000000    0.00000000
     atom   31 type  2   force =     0.00000000    0.00000000    0.00000000
     atom   32 type  2   force =     0.00000000    0.00000000    0.00000000
     atom   33 type  1   force =     0.00000000    0.00000000    0.00000000
     atom   34 type  2   force =     0.00000000    0.00000000    0.00000000
     atom   35 type  2   force =     0.00000000    0.00000000    0.00000000
     atom   36 type  3   force =     0.00000000    0.00000000    0.00000000
     The SCF correction term to forces
     atom    1 type  1   force =     0.00018508   -0.00006288    0.00086969
     atom    2 type  2   force =     0.00003518   -0.00001585    0.00040152
     atom    3 type  2   force =    -0.00000693    0.00001775    0.00028095
     atom    4 type  1   force =     0.00005762   -0.00000404    0.00105271
     atom    5 type  2   force =     0.00004134   -0.00009944    0.00036829
     atom    6 type  2   force =     0.00007974   -0.00013442    0.00026562
     atom    7 type  1   force =     0.00012004   -0.00007699    0.00118141
     atom    8 type  2   force =     0.00000118    0.00007603    0.00045677
     atom    9 type  2   force =     0.00000190    0.00003960    0.00034551
     atom   10 type  1   force =     0.00019226    0.00000062    0.00093920
     atom   11 type  2   force =     0.00008134   -0.00010634    0.00049689
     atom   12 type  2   force =     0.00010690    0.00003703    0.00024346
     atom   13 type  1   force =    -0.00006834   -0.00016231    0.00086347
     atom   14 type  2   force =     0.00006699    0.00012125    0.00034805
     atom   15 type  2   force =     0.00007191    0.00004427    0.00022805
     atom   16 type  1   force =     0.00015889    0.00015559    0.00102545
     atom   17 type  2   force =    -0.00004464   -0.00000531    0.00046311
     atom   18 type  2   force =    -0.00004942   -0.00009284    0.00023679
     atom   19 type  1   force =    -0.00002368   -0.00004004    0.00121636
     atom   20 type  2   force =     0.00007618    0.00000895    0.00034459
     atom   21 type  1   force =     0.00005593    0.00004760    0.00098590
     atom   22 type  2   force =    -0.00007872   -0.00003510    0.00052660
     atom   23 type  2   force =    -0.00008201    0.00009754    0.00023742
     atom   24 type  1   force =    -0.00007856   -0.00006061    0.00082942
     atom   25 type  2   force =    -0.00008633   -0.00006608    0.00043891
     atom   26 type  2   force =    -0.00006930   -0.00002329    0.00025339
     atom   27 type  1   force =    -0.00019669   -0.00003117    0.00103507
     atom   28 type  2   force =    -0.00001141    0.00000480    0.00042666
     atom   29 type  2   force =    -0.00003232   -0.00011416    0.00030570
     atom   30 type  1   force =    -0.00009162    0.00020420    0.00119032
     atom   31 type  2   force =    -0.00006344    0.00005749    0.00047793
     atom   32 type  2   force =    -0.00007368    0.00000938    0.00032144
     atom   33 type  1   force =    -0.00024928   -0.00000021    0.00101192
     atom   34 type  2   force =     0.00000360   -0.00004229    0.00045177
     atom   35 type  2   force =    -0.00002838    0.00007413    0.00031784
     atom   36 type  3   force =     0.00014699    0.00001548    0.00020567

     Total force =     0.194802     Total SCF correction =     0.004043

     BFGS Geometry Optimization
     Energy error            =      0.0E+00 Ry
     Gradient error          =      8.8E-02 Ry/Bohr

     number of scf cycles    =   1
     number of bfgs steps    =   0

     energy             new  =   -2246.1650618191 Ry

     new trust radius        =       0.1083324688 bohr
     new conv_thr            =       0.0000010000 Ry


ATOMIC_POSITIONS (angstrom)
Mo            6.6003955296        1.7611308289        2.8023297615
S             8.1674966794        0.8187674329        4.4353449845
S             8.1845185015        0.8182416419        1.2769953875
Mo            8.1017519030        4.5074024619        2.7076939912
S             6.4923157635        3.7290660315        4.3463191786
S             6.5544117701        3.5177309864        1.1217412416
Mo            6.4939363959        7.2057269047        2.6651080951
S             8.0820362246        6.3415882857        4.2533949561
S             8.0877472327        6.3068399260        1.0906498609
Mo            8.1530043599        9.9076265047        2.8293176705
S             6.4984699199        8.9407960663        4.3797516187
S             6.6163576236        9.0490162755        1.1427200702
Mo            3.4194686252        1.7471984539        2.7650708292
S             4.9717444269        0.8522476940        4.3678772720
S             5.0510668672        0.8470475208        1.2225582977
Mo            4.9764619710        4.5191672447        2.6366675298
S             3.4191706384        3.6804385830        4.2694895322
S             3.4360707098        3.5448013936        1.0663291137
Mo            3.4550257894        7.2084950824        2.6274386190
S             4.9852772250        6.3286125804        1.0374472862
Mo            5.0103273802        9.8865470042        2.7335680257
S             3.4694805809        8.9430970242        4.3229177618
S             3.4095582318        9.0672899788        1.1006144668
Mo            0.2912886768        1.7448331319        2.8381841585
S             1.8597428967        0.8013544522        4.4028752097
S             1.8539977859        0.8538834609        1.2073507162
Mo            1.8585421955        4.5014787751        2.6597329185
S             0.2739238575        3.6543036027        4.3346002345
S             0.2330360383        3.5247676703        1.1700338521
Mo            0.2696522587        7.2232789199        2.6977178316
S             1.9028703677        6.3120800216        4.2321034090
S             1.8581883729        6.3143944723        1.0495625679
Mo            1.8520519133        9.9389385828        2.7687732213
S             0.2976040389        9.0667549271        4.4093495389
S             0.2724570639        9.0467000881        1.1585829292
O             5.2666527519        2.3979468439        5.1605354387



     Writing config-only to output data dir ./MoS2-V-O.save/
     NEW-OLD atomic charge density approx. for the potential

     negative rho (up, down):  1.514E-04 0.000E+00

     total cpu time spent up to now is      110.1 secs

     Self-consistent Calculation

     iteration #  1     ecut=    80.00 Ry     beta= 0.70
     Davidson diagonalization with overlap
     ethr =  1.00E-06,  avg # of iterations = 11.0

     negative rho (up, down):  3.518E-04 0.000E+00

     total cpu time spent up to now is      125.6 secs

     total energy              =   -2246.19626109 Ry
     estimated scf accuracy    <       0.01442533 Ry

     iteration #  2     ecut=    80.00 Ry     beta= 0.70
     Davidson diagonalization with overlap
     ethr =  4.62E-06,  avg # of iterations =  6.0

     negative rho (up, down):  4.471E-04 0.000E+00

     total cpu time spent up to now is      141.3 secs

     total energy              =   -2246.19782956 Ry
     estimated scf accuracy    <       0.01131171 Ry

     iteration #  3     ecut=    80.00 Ry     beta= 0.70
     Davidson diagonalization with overlap
     ethr =  3.63E-06,  avg # of iterations =  4.0

     negative rho (up, down):  6.827E-04 0.000E+00

     total cpu time spent up to now is      155.0 secs

     total energy              =   -2246.19866001 Ry
     estimated scf accuracy    <       0.00039580 Ry

     iteration #  4     ecut=    80.00 Ry     beta= 0.70
     Davidson diagonalization with overlap
     ethr =  1.27E-07,  avg # of iterations =  6.0

     negative rho (up, down):  6.983E-04 0.000E+00

     total cpu time spent up to now is      168.7 secs

     total energy              =   -2246.19873790 Ry
     estimated scf accuracy    <       0.00011988 Ry

     iteration #  5     ecut=    80.00 Ry     beta= 0.70
     Davidson diagonalization with overlap
     ethr =  3.84E-08,  avg # of iterations =  4.0

     negative rho (up, down):  7.001E-04 0.000E+00

     total cpu time spent up to now is      183.7 secs

     total energy              =   -2246.19874325 Ry
     estimated scf accuracy    <       0.00002691 Ry

     iteration #  6     ecut=    80.00 Ry     beta= 0.70
     Davidson diagonalization with overlap
     ethr =  8.62E-09,  avg # of iterations =  6.0

     negative rho (up, down):  6.641E-04 0.000E+00

     total cpu time spent up to now is      195.3 secs

     total energy              =   -2246.19874841 Ry
     estimated scf accuracy    <       0.00000350 Ry

     iteration #  7     ecut=    80.00 Ry     beta= 0.70
     Davidson diagonalization with overlap
     ethr =  1.12E-09,  avg # of iterations =  5.0

     negative rho (up, down):  5.846E-04 0.000E+00

     total cpu time spent up to now is      208.4 secs

     total energy              =   -2246.19874913 Ry
     estimated scf accuracy    <       0.00000159 Ry

     iteration #  8     ecut=    80.00 Ry     beta= 0.70
     Davidson diagonalization with overlap
     ethr =  5.08E-10,  avg # of iterations =  2.0

     negative rho (up, down):  2.062E-04 0.000E+00

     total cpu time spent up to now is      211.8 secs

     End of self-consistent calculation

          k = 0.0000 0.0000 0.0000 (105382 PWs)   bands (ev):

   -63.0093 -62.9070 -62.8977 -62.8895 -62.8781 -62.8489 -62.8383 -62.8317
   -62.8293 -62.8214 -62.8168 -62.7881 -37.3089 -37.2506 -37.2209 -37.1873
   -37.1816 -37.1670 -37.1606 -37.1241 -37.1152 -37.1107 -37.0931 -37.0789
   -37.0732 -37.0652 -37.0605 -37.0547 -37.0507 -37.0333 -37.0286 -37.0078
   -37.0014 -36.9964 -36.9769 -36.9768 -36.9747 -36.9607 -36.9551 -36.9508
   -36.9412 -36.9367 -36.9229 -36.8788 -36.8693 -36.8356 -36.7958 -36.7722
   -20.9036 -15.9728 -15.4661 -15.1643 -15.0644 -14.9589 -14.8769 -14.7547
   -14.5531 -14.5058 -14.4800 -14.4359 -14.4025 -14.3726 -14.2665 -14.2338
   -14.1785 -14.1623 -14.1436 -13.9520 -13.9230 -13.8886 -13.8760 -13.7477
    -8.4111  -7.7465  -7.5724  -7.5511  -7.3715  -7.3436  -7.3200  -7.2318
    -7.1967  -7.0228  -6.9166  -6.8574  -6.8067  -6.7857  -6.6775  -6.5750
    -6.4846  -6.4484  -6.3655  -6.3415  -6.1655  -6.0588  -5.9715  -5.9318
    -5.8645  -5.8379  -5.7991  -5.7585  -5.7222  -5.6776  -5.6272  -5.5764
    -5.5726  -5.5022  -5.4448  -5.3073  -5.2389  -5.1472  -5.1178  -5.0575
    -5.0555  -5.0239  -4.9010  -4.8175  -4.6259  -4.5317  -4.4006  -4.3766
    -4.2929  -4.2842  -4.2065  -4.1728  -4.0969  -3.9924  -3.9577  -3.8169
    -3.7315  -3.7030  -3.6841  -3.6196  -3.5900  -3.5700  -3.5512  -3.5115
    -3.5059  -3.4652  -3.2877  -3.2503  -2.9900  -2.9595  -2.8997  -2.8187
    -2.7995  -2.7708  -2.7634  -2.7312  -2.6918  -2.6568  -2.4417  -2.2743
    -2.0989  -2.0455  -1.9920  -1.6465  -1.4126  -0.7725  -0.7227  -0.2033
    -0.1752  -0.1237  -0.0814   0.0113   0.0919   0.1253   0.1968   0.2466
     0.2559   0.3995   0.4188   0.4491   0.4988   0.5413   0.5582   0.5863
     0.6449   0.6763   0.6810   0.7331   0.7504   0.8191   0.8638   0.9225
     0.9602   1.0709   1.2024

     the Fermi energy is    -1.5296 ev

!    total energy              =   -2246.19874888 Ry
     estimated scf accuracy    <       0.00000056 Ry
     smearing contrib. (-TS)   =      -0.00538912 Ry
     internal energy E=F+TS    =   -2246.19335976 Ry

     The total energy is F=E-TS. E is the sum of the following terms:
     one-electron contribution =  -18488.67351534 Ry
     hartree contribution      =    9232.69125789 Ry
     xc contribution           =    -392.05154750 Ry
     ewald contribution        =    7411.71045210 Ry
     one-center paw contrib.   =      -9.87000691 Ry

     convergence has been achieved in   8 iterations

     negative rho (up, down):  2.062E-04 0.000E+00

     Forces acting on atoms (cartesian axes, Ry/au):

     atom    1 type  1   force =     0.02163506   -0.02369786   -0.02364027
     atom    2 type  2   force =    -0.01071418    0.01024185   -0.00157581
     atom    3 type  2   force =    -0.00665973    0.00693187   -0.01540650
     atom    4 type  1   force =     0.00587425    0.01488707   -0.00670277
     atom    5 type  2   force =    -0.00461186    0.00423732   -0.01402860
     atom    6 type  2   force =     0.00150839    0.00881409    0.00091909
     atom    7 type  1   force =     0.00836668   -0.01527207   -0.00299726
     atom    8 type  2   force =     0.00198678   -0.00420470    0.01461166
     atom    9 type  2   force =     0.01271979    0.00585675    0.00455132
     atom   10 type  1   force =    -0.00765332    0.00882146   -0.00835463
     atom   11 type  2   force =     0.00443565   -0.00524396   -0.01005758
     atom   12 type  2   force =    -0.00398191   -0.00332587   -0.00203718
     atom   13 type  1   force =    -0.00186031    0.00389309   -0.01055150
     atom   14 type  2   force =     0.00238798    0.07792162    0.02239538
     atom   15 type  2   force =    -0.00944688   -0.00403286   -0.00881956
     atom   16 type  1   force =    -0.00294596    0.00764884    0.00516649
     atom   17 type  2   force =    -0.01023024    0.01052281   -0.01356166
     atom   18 type  2   force =    -0.00239868   -0.00349989    0.00973936
     atom   19 type  1   force =     0.00077714   -0.01044352    0.00058975
     atom   20 type  2   force =     0.00275850    0.00054341   -0.00450048
     atom   21 type  1   force =    -0.00122557   -0.01233558   -0.00258533
     atom   22 type  2   force =    -0.00106421   -0.00291856   -0.00610725
     atom   23 type  2   force =     0.00195290    0.00031144    0.00213872
     atom   24 type  1   force =    -0.00605175   -0.00625775   -0.00818649
     atom   25 type  2   force =     0.01249498    0.01240107    0.00095025
     atom   26 type  2   force =    -0.01126895   -0.00254458   -0.00766232
     atom   27 type  1   force =    -0.00475663    0.00601904   -0.00009448
     atom   28 type  2   force =     0.00033389    0.00013775   -0.00797172
     atom   29 type  2   force =     0.00367789   -0.00155843   -0.00673540
     atom   30 type  1   force =    -0.00215729    0.00314840    0.00257242
     atom   31 type  2   force =    -0.00019861    0.00006241    0.01192668
     atom   32 type  2   force =    -0.00681942    0.00766576    0.00485867
     atom   33 type  1   force =     0.00822241    0.00010795    0.00205095
     atom   34 type  2   force =     0.00027517   -0.03172969   -0.01381629
     atom   35 type  2   force =    -0.00603736    0.00779967    0.00814614
     atom   36 type  3   force =     0.01067541   -0.07090835    0.08477622
     The non-local contrib.  to forces
     atom    1 type  1   force =    -0.00030101    0.02883274   -0.00702297
     atom    2 type  2   force =    -0.00632080    0.00053887   -0.27100058
     atom    3 type  2   force =    -0.01296491   -0.00540770    0.26266174
     atom    4 type  1   force =    -0.00112990   -0.00664713    0.00682319
     atom    5 type  2   force =    -0.13312285   -0.17018931   -0.18195927
     atom    6 type  2   force =    -0.00123887    0.00858112    0.26193621
     atom    7 type  1   force =    -0.01587873    0.00279399   -0.02213704
     atom    8 type  2   force =    -0.00238729   -0.00493446   -0.26158261
     atom    9 type  2   force =     0.00615948   -0.00561263    0.27171739
     atom   10 type  1   force =     0.00539100    0.00259234   -0.00286724
     atom   11 type  2   force =     0.01276521   -0.00318197   -0.25885960
     atom   12 type  2   force =    -0.01512575   -0.01807282    0.26157768
     atom   13 type  1   force =    -0.00247639    0.00978484   -0.00044702
     atom   14 type  2   force =     0.08350315    0.35736231    0.01668023
     atom   15 type  2   force =    -0.01050935   -0.01104493    0.26051470
     atom   16 type  1   force =     0.00605899    0.03344179   -0.01586652
     atom   17 type  2   force =    -0.00019959   -0.01999191   -0.24879382
     atom   18 type  2   force =    -0.00513025   -0.00019741    0.26501285
     atom   19 type  1   force =     0.01055328   -0.00367066   -0.01709206
     atom   20 type  2   force =    -0.00066581   -0.01792879    0.25871430
     atom   21 type  1   force =    -0.00847379    0.01784822   -0.01649036
     atom   22 type  2   force =    -0.00947225   -0.00000702   -0.25341110
     atom   23 type  2   force =     0.01374123   -0.01956891    0.26770404
     atom   24 type  1   force =     0.00374927    0.02149173   -0.00551347
     atom   25 type  2   force =     0.00991117    0.00523658   -0.26593219
     atom   26 type  2   force =     0.00080560   -0.01233975    0.26225547
     atom   27 type  1   force =     0.00702580    0.00280503    0.01179829
     atom   28 type  2   force =     0.00069673   -0.02165986   -0.27327760
     atom   29 type  2   force =     0.00770833   -0.00435745    0.26112169
     atom   30 type  1   force =     0.00256287    0.01847327    0.01012556
     atom   31 type  2   force =    -0.00545004    0.00138409   -0.25881836
     atom   32 type  2   force =    -0.00161773   -0.00633473    0.26701564
     atom   33 type  1   force =    -0.00721413    0.00576888    0.00440417
     atom   34 type  2   force =    -0.00351603   -0.02525201   -0.27745915
     atom   35 type  2   force =    -0.00037970   -0.00656292    0.26659351
     atom   36 type  3   force =     0.03501758   -0.72861846   -0.63189339
     The ionic contribution  to forces
     atom    1 type  1   force =     2.24605325   -0.50580950   -0.32852391
     atom    2 type  2   force =     0.61680333   -0.44658667   39.03723624
     atom    3 type  2   force =     0.22882650   -0.24104550  -37.06546479
     atom    4 type  1   force =     0.94916001    1.22578686   -1.25607069
     atom    5 type  2   force =     2.12531483    4.63499721   36.43453365
     atom    6 type  2   force =     0.43143382   -0.29035840  -38.93237512
     atom    7 type  1   force =    -2.38653052   -2.10664607    1.40159466
     atom    8 type  2   force =    -0.70614947    0.45371478   37.38614481
     atom    9 type  2   force =     0.43933709    0.13860057  -38.59093263
     atom   10 type  1   force =    -0.26763228   -1.28291620    4.32765593
     atom   11 type  2   force =    -0.38122293   -2.03536618   38.91483219
     atom   12 type  2   force =     0.49814647    0.46646631  -38.42410164
     atom   13 type  1   force =    -1.75476676   -0.09789798   -1.46410287
     atom   14 type  2   force =    -0.95799166   -5.65871242   35.57639560
     atom   15 type  2   force =     0.04823659   -0.35790997  -37.87301664
     atom   16 type  1   force =    -0.12039637    5.91671370   -2.67375751
     atom   17 type  2   force =    -1.55313998    3.09441777   36.55253400
     atom   18 type  2   force =    -0.34069129   -0.42879068  -39.44141143
     atom   19 type  1   force =     2.35819513   -1.93158299   -0.39121586
     atom   20 type  2   force =     0.17871257   -0.03483427  -39.18933126
     atom   21 type  1   force =    -0.12524820   -1.07811151   -0.51752675
     atom   22 type  2   force =     0.26162203   -2.05691860   38.26149813
     atom   23 type  2   force =    -0.22297686    0.48838684  -38.83714138
     atom   24 type  1   force =    -0.04597983    0.80985432    4.28733512
     atom   25 type  2   force =    -0.20163027   -0.30329901   38.95880743
     atom   26 type  2   force =    -0.42781233   -0.12103415  -38.02032581
     atom   27 type  1   force =    -0.79126998    1.08736512   -3.68780102
     atom   28 type  2   force =     0.14412290    1.19825072   37.92083301
     atom   29 type  2   force =    -0.17785695   -0.31333915  -37.93046690
     atom   30 type  1   force =    -0.20789664   -0.68318439   -0.84495118
     atom   31 type  2   force =     0.97784168    0.34191589   37.27787422
     atom   32 type  2   force =    -0.53154397    0.11758160  -39.14423560
     atom   33 type  1   force =     0.20625365   -1.35764765    1.17842178
     atom   34 type  2   force =     0.21894367   -1.42332621   39.16177593
     atom   35 type  2   force =    -0.21958915    0.42380773  -38.20082660
     atom   36 type  3   force =    -0.50867807    2.35745808   46.13610687
     The local contribution  to forces
     atom    1 type  1   force =    -2.22414102    0.45343372    0.31272984
     atom    2 type  2   force =    -0.62150880    0.45651753  -38.78830053
     atom    3 type  2   force =    -0.22337407    0.25339169   36.80838049
     atom    4 type  1   force =    -0.94224675   -1.20443357    1.24330290
     atom    5 type  2   force =    -2.00345045   -4.46931977  -36.28239742
     atom    6 type  2   force =    -0.42889599    0.29144417   38.69215838
     atom    7 type  1   force =     2.41083656    2.08851640   -1.38180162
     atom    8 type  2   force =     0.71030647   -0.45363610  -37.13022567
     atom    9 type  2   force =    -0.43270746   -0.12750271   38.34471146
     atom   10 type  1   force =     0.25460533    1.28930705   -4.33244048
     atom   11 type  2   force =     0.37337222    2.03359058  -38.68612440
     atom   12 type  2   force =    -0.48830763   -0.45300424   38.18133196
     atom   13 type  1   force =     1.75543536    0.09217455    1.45474536
     atom   14 type  2   force =     0.88166050    5.40078427  -35.57509207
     atom   15 type  2   force =    -0.04767662    0.36436101   37.62433891
     atom   16 type  1   force =     0.11143202   -5.94278498    2.69554778
     atom   17 type  2   force =     1.54248800   -3.06451660  -36.33740942
     atom   18 type  2   force =     0.34334095    0.42600316   39.20686018
     atom   19 type  1   force =    -2.36804147    1.92473990    0.40950360
     atom   20 type  2   force =    -0.17540512    0.05264128   38.94704293
     atom   21 type  1   force =     0.13254698    1.04806282    0.53197294
     atom   22 type  2   force =    -0.25343981    2.05447546  -38.03405898
     atom   23 type  2   force =     0.21213557   -0.46984585   38.59252343
     atom   24 type  1   force =     0.03610203   -0.83757325   -4.28924825
     atom   25 type  2   force =     0.20446016    0.31093314  -38.71234005
     atom   26 type  2   force =     0.41606376    0.13023148   37.77134116
     atom   27 type  1   force =     0.77954708   -1.08429169    3.67661111
     atom   28 type  2   force =    -0.14456490   -1.17816112  -37.67594104
     atom   29 type  2   force =     0.17440847    0.31631356   37.68309249
     atom   30 type  1   force =     0.20318369    0.66782757    0.83803932
     atom   31 type  2   force =    -0.97292906   -0.34332849  -37.02740892
     atom   32 type  2   force =     0.52654098   -0.10397672   38.90285222
     atom   33 type  1   force =    -0.19088117    1.35210984   -1.18010797
     atom   34 type  2   force =    -0.21557482    1.41610668  -38.91896756
     atom   35 type  2   force =     0.21407199   -0.41022149   37.96333269
     atom   36 type  3   force =     0.48461016   -1.70786712  -45.42507539
     The core correction contribution to forces
     atom    1 type  1   force =     0.00000000    0.00000000    0.00000000
     atom    2 type  2   force =     0.00022282   -0.00006760    0.02090975
     atom    3 type  2   force =     0.00078496    0.00010939   -0.02082235
     atom    4 type  1   force =     0.00000000    0.00000000    0.00000000
     atom    5 type  2   force =     0.00656814    0.00855847    0.01633621
     atom    6 type  2   force =     0.00018603   -0.00095783   -0.02072040
     atom    7 type  1   force =     0.00000000    0.00000000    0.00000000
     atom    8 type  2   force =     0.00021745    0.00061948    0.02072436
     atom    9 type  2   force =    -0.00004625    0.00037433   -0.02091027
     atom   10 type  1   force =     0.00000000    0.00000000    0.00000000
     atom   11 type  2   force =    -0.00046673   -0.00027794    0.02056569
     atom   12 type  2   force =     0.00129380    0.00130155   -0.02084491
     atom   13 type  1   force =     0.00000000    0.00000000    0.00000000
     atom   14 type  2   force =    -0.00469485   -0.02120160    0.00493993
     atom   15 type  2   force =     0.00055366    0.00064645   -0.02055665
     atom   16 type  1   force =     0.00000000    0.00000000    0.00000000
     atom   17 type  2   force =     0.00071161    0.00051608    0.02062407
     atom   18 type  2   force =     0.00010394   -0.00057614   -0.02067612
     atom   19 type  1   force =     0.00000000    0.00000000    0.00000000
     atom   20 type  2   force =     0.00013250    0.00062491   -0.02093508
     atom   21 type  1   force =     0.00000000    0.00000000    0.00000000
     atom   22 type  2   force =     0.00020601   -0.00044432    0.02033822
     atom   23 type  2   force =    -0.00094975    0.00137288   -0.02097468
     atom   24 type  1   force =     0.00000000    0.00000000    0.00000000
     atom   25 type  2   force =    -0.00023131   -0.00037385    0.02086366
     atom   26 type  2   force =    -0.00032605    0.00065916   -0.02085124
     atom   27 type  1   force =     0.00000000    0.00000000    0.00000000
     atom   28 type  2   force =     0.00006332    0.00162833    0.02090419
     atom   29 type  2   force =    -0.00058389   -0.00023214   -0.02043432
     atom   30 type  1   force =     0.00000000    0.00000000    0.00000000
     atom   31 type  2   force =     0.00031114    0.00005088    0.02072221
     atom   32 type  2   force =    -0.00023367    0.00039081   -0.02076912
     atom   33 type  1   force =     0.00000000    0.00000000    0.00000000
     atom   34 type  2   force =     0.00043474    0.00070878    0.02127803
     atom   35 type  2   force =    -0.00012997    0.00074611   -0.02093070
     atom   36 type  3   force =    -0.00021693    0.00818286    0.00619842
     The Hubbard contrib.    to forces
     atom    1 type  1   force =     0.00000000    0.00000000    0.00000000
     atom    2 type  2   force =     0.00000000    0.00000000    0.00000000
     atom    3 type  2   force =     0.00000000    0.00000000    0.00000000
     atom    4 type  1   force =     0.00000000    0.00000000    0.00000000
     atom    5 type  2   force =     0.00000000    0.00000000    0.00000000
     atom    6 type  2   force =     0.00000000    0.00000000    0.00000000
     atom    7 type  1   force =     0.00000000    0.00000000    0.00000000
     atom    8 type  2   force =     0.00000000    0.00000000    0.00000000
     atom    9 type  2   force =     0.00000000    0.00000000    0.00000000
     atom   10 type  1   force =     0.00000000    0.00000000    0.00000000
     atom   11 type  2   force =     0.00000000    0.00000000    0.00000000
     atom   12 type  2   force =     0.00000000    0.00000000    0.00000000
     atom   13 type  1   force =     0.00000000    0.00000000    0.00000000
     atom   14 type  2   force =     0.00000000    0.00000000    0.00000000
     atom   15 type  2   force =     0.00000000    0.00000000    0.00000000
     atom   16 type  1   force =     0.00000000    0.00000000    0.00000000
     atom   17 type  2   force =     0.00000000    0.00000000    0.00000000
     atom   18 type  2   force =     0.00000000    0.00000000    0.00000000
     atom   19 type  1   force =     0.00000000    0.00000000    0.00000000
     atom   20 type  2   force =     0.00000000    0.00000000    0.00000000
     atom   21 type  1   force =     0.00000000    0.00000000    0.00000000
     atom   22 type  2   force =     0.00000000    0.00000000    0.00000000
     atom   23 type  2   force =     0.00000000    0.00000000    0.00000000
     atom   24 type  1   force =     0.00000000    0.00000000    0.00000000
     atom   25 type  2   force =     0.00000000    0.00000000    0.00000000
     atom   26 type  2   force =     0.00000000    0.00000000    0.00000000
     atom   27 type  1   force =     0.00000000    0.00000000    0.00000000
     atom   28 type  2   force =     0.00000000    0.00000000    0.00000000
     atom   29 type  2   force =     0.00000000    0.00000000    0.00000000
     atom   30 type  1   force =     0.00000000    0.00000000    0.00000000
     atom   31 type  2   force =     0.00000000    0.00000000    0.00000000
     atom   32 type  2   force =     0.00000000    0.00000000    0.00000000
     atom   33 type  1   force =     0.00000000    0.00000000    0.00000000
     atom   34 type  2   force =     0.00000000    0.00000000    0.00000000
     atom   35 type  2   force =     0.00000000    0.00000000    0.00000000
     atom   36 type  3   force =     0.00000000    0.00000000    0.00000000
     The SCF correction term to forces
     atom    1 type  1   force =     0.00002433   -0.00015519   -0.00080023
     atom    2 type  2   force =     0.00008976   -0.00016066   -0.00039771
     atom    3 type  2   force =     0.00006828   -0.00011637   -0.00013860
     atom    4 type  1   force =     0.00009138    0.00018055   -0.00073519
     atom    5 type  2   force =     0.00007895    0.00019034   -0.00051878
     atom    6 type  2   force =     0.00002390    0.00010466   -0.00005699
     atom    7 type  1   force =    -0.00006013    0.00006324   -0.00063027
     atom    8 type  2   force =     0.00000011    0.00003123   -0.00042625
     atom    9 type  2   force =    -0.00002259   -0.00000317   -0.00001164
     atom   10 type  1   force =    -0.00001688   -0.00016211   -0.00067986
     atom   11 type  2   force =    -0.00001162   -0.00000882   -0.00044848
     atom   12 type  2   force =     0.00001169   -0.00001705    0.00002273
     atom   13 type  1   force =    -0.00005204   -0.00016869   -0.00072398
     atom   14 type  2   force =    -0.00008867   -0.00031133   -0.00050533
     atom   15 type  2   force =    -0.00005067   -0.00008580   -0.00007690
     atom   16 type  1   force =    -0.00004012    0.00027795   -0.00073428
     atom   17 type  2   force =    -0.00008979    0.00009710   -0.00049351
     atom   18 type  2   force =    -0.00002154    0.00006082   -0.00002313
     atom   19 type  1   force =     0.00007069    0.00006985   -0.00058293
     atom   20 type  2   force =    -0.00001516    0.00003991    0.00003162
     atom   21 type  1   force =    -0.00005006   -0.00013549   -0.00051818
     atom   22 type  2   force =     0.00002030   -0.00002446   -0.00045053
     atom   23 type  2   force =     0.00000321   -0.00003390    0.00005028
     atom   24 type  1   force =     0.00007728   -0.00003093   -0.00073691
     atom   25 type  2   force =    -0.00001428   -0.00009617   -0.00042561
     atom   26 type  2   force =     0.00000057   -0.00006169   -0.00005891
     atom   27 type  1   force =    -0.00005903    0.00014020   -0.00067987
     atom   28 type  2   force =     0.00001633    0.00007931   -0.00046730
     atom   29 type  2   force =     0.00000242    0.00005638   -0.00002537
     atom   30 type  1   force =    -0.00000672    0.00003158   -0.00061830
     atom   31 type  2   force =     0.00002817    0.00003968   -0.00041949
     atom   32 type  2   force =     0.00003546    0.00000443    0.00001851
     atom   33 type  1   force =     0.00006456   -0.00012348   -0.00064404
     atom   34 type  2   force =    -0.00001189    0.00003269   -0.00042056
     atom   35 type  2   force =    -0.00001003    0.00002986    0.00000023
     atom   36 type  3   force =    -0.00005684   -0.00006408   -0.00053730

     Total force =     0.163232     Total SCF correction =     0.002946
     Energy error            =      3.4E-02 Ry
     Gradient error          =      8.5E-02 Ry/Bohr

     number of scf cycles    =   2
     number of bfgs steps    =   1

     energy             old  =   -2246.1650618191 Ry
     energy             new  =   -2246.1987488779 Ry

     CASE: energy            _new < energy            _old

     new trust radius        =       0.1191657157 bohr
     new conv_thr            =       0.0000000848 Ry


ATOMIC_POSITIONS (angstrom)
Mo            6.6178996291        1.7425349083        2.7856475603
S             8.1600936454        0.8259347174        4.4350186320
S             8.1788628935        0.8233979207        1.2707096974
Mo            8.1063533716        4.5175282080        2.7015244111
S             6.4878494732        3.7330559297        4.3407604327
S             6.5553710990        3.5232619100        1.1222601480
Mo            6.4985747528        7.1953232146        2.6615559365
S             8.0829152338        6.3391531171        4.2629158343
S             8.0950871706        6.3098643449        1.0948081562
Mo            8.1473515480        9.9129672223        2.8210898637
S             6.5013542689        8.9380116207        4.3746696847
S             6.6142533106        9.0478345800        1.1429224947
Mo            3.4179746114        1.7487932140        2.7569591993
S             4.9714634303        0.8949083386        4.3826768579
S             5.0450178127        0.8457611886        1.2176930672
Mo            4.9741577969        4.5242449749        2.6400047365
S             3.4121462589        3.6876355927        4.2606273133
S             3.4344883360        3.5422357143        1.0729185475
Mo            3.4557376518        7.2016848716        2.6265250113
S             4.9870672204        6.3294159321        1.0357709119
Mo            5.0091691978        9.8764553312        2.7290974129
S             3.4685468568        8.9417348492        4.3196071929
S             3.4107135456        9.0682219919        1.1030471348
Mo            0.2872489189        1.7414632140        2.8310386470
S             1.8678602653        0.8092166371        4.4048893484
S             1.8472299199        0.8527056937        1.2036572082
Mo            1.8559401899        4.5058621834        2.6595324628
S             0.2746564682        3.6543234158        4.3304574291
S             0.2350984237        3.5232882104        1.1667229894
Mo            0.2682869070        7.2268390282        2.6973116729
S             1.9030163455        6.3118506688        4.2401340173
S             1.8541162639        6.3187949623        1.0532108878
Mo            1.8579572819        9.9385569528        2.7680963291
S             0.2983072292        9.0462561547        4.4023992225
S             0.2685948297        9.0508433924        1.1646269486
O             5.2753404094        2.3596306483        5.2098601764



     Writing config-only to output data dir ./MoS2-V-O.save/
     NEW-OLD atomic charge density approx. for the potential

     negative rho (up, down):  1.490E-04 0.000E+00

     total cpu time spent up to now is      219.1 secs

     Self-consistent Calculation

     iteration #  1     ecut=    80.00 Ry     beta= 0.70
     Davidson diagonalization with overlap
     ethr =  1.00E-06,  avg # of iterations = 12.0

     negative rho (up, down):  2.639E-04 0.000E+00

     total cpu time spent up to now is      231.3 secs

     total energy              =   -2246.22423490 Ry
     estimated scf accuracy    <       0.01305275 Ry

     iteration #  2     ecut=    80.00 Ry     beta= 0.70
     Davidson diagonalization with overlap
     ethr =  4.18E-06,  avg # of iterations =  6.0

     negative rho (up, down):  3.307E-04 0.000E+00

     total cpu time spent up to now is      241.6 secs

     total energy              =   -2246.22587763 Ry
     estimated scf accuracy    <       0.00906587 Ry

     iteration #  3     ecut=    80.00 Ry     beta= 0.70
     Davidson diagonalization with overlap
     ethr =  2.91E-06,  avg # of iterations =  4.0

     negative rho (up, down):  4.537E-04 0.000E+00

     total cpu time spent up to now is      254.5 secs

     total energy              =   -2246.22658198 Ry
     estimated scf accuracy    <       0.00035910 Ry

     iteration #  4     ecut=    80.00 Ry     beta= 0.70
     Davidson diagonalization with overlap
     ethr =  1.15E-07,  avg # of iterations =  6.0

     negative rho (up, down):  4.662E-04 0.000E+00

     total cpu time spent up to now is      269.1 secs

     total energy              =   -2246.22664701 Ry
     estimated scf accuracy    <       0.00009965 Ry

     iteration #  5     ecut=    80.00 Ry     beta= 0.70
     Davidson diagonalization with overlap
     ethr =  3.19E-08,  avg # of iterations =  4.0

     negative rho (up, down):  4.732E-04 0.000E+00

     total cpu time spent up to now is      286.6 secs

     total energy              =   -2246.22665413 Ry
     estimated scf accuracy    <       0.00001457 Ry

     iteration #  6     ecut=    80.00 Ry     beta= 0.70
     Davidson diagonalization with overlap
     ethr =  4.67E-09,  avg # of iterations =  5.0

     negative rho (up, down):  4.579E-04 0.000E+00

     total cpu time spent up to now is      298.3 secs

     total energy              =   -2246.22665769 Ry
     estimated scf accuracy    <       0.00000186 Ry

     iteration #  7     ecut=    80.00 Ry     beta= 0.70
     Davidson diagonalization with overlap
     ethr =  5.95E-10,  avg # of iterations =  4.0

     negative rho (up, down):  4.238E-04 0.000E+00

     total cpu time spent up to now is      310.0 secs

     total energy              =   -2246.22665807 Ry
     estimated scf accuracy    <       0.00000063 Ry

     iteration #  8     ecut=    80.00 Ry     beta= 0.70
     Davidson diagonalization with overlap
     ethr =  2.02E-10,  avg # of iterations =  4.0

     negative rho (up, down):  3.881E-04 0.000E+00

     total cpu time spent up to now is      319.1 secs

     total energy              =   -2246.22665821 Ry
     estimated scf accuracy    <       0.00000029 Ry

     iteration #  9     ecut=    80.00 Ry     beta= 0.70
     Davidson diagonalization with overlap
     ethr =  9.27E-11,  avg # of iterations =  2.0

     negative rho (up, down):  3.247E-04 0.000E+00

     total cpu time spent up to now is      330.1 secs

     total energy              =   -2246.22665830 Ry
     estimated scf accuracy    <       0.00000012 Ry

     iteration # 10     ecut=    80.00 Ry     beta= 0.70
     Davidson diagonalization with overlap
     ethr =  3.90E-11,  avg # of iterations =  5.0

     negative rho (up, down):  2.072E-04 0.000E+00

     total cpu time spent up to now is      333.7 secs

     End of self-consistent calculation

          k = 0.0000 0.0000 0.0000 (105382 PWs)   bands (ev):

   -63.0597 -62.9171 -62.9051 -62.8849 -62.8732 -62.8621 -62.8471 -62.8405
   -62.8356 -62.8288 -62.8171 -62.8066 -37.3455 -37.2864 -37.2544 -37.2008
   -37.1911 -37.1757 -37.1621 -37.1373 -37.1231 -37.1197 -37.0978 -37.0868
   -37.0743 -37.0713 -37.0634 -37.0591 -37.0496 -37.0438 -37.0302 -37.0159
   -37.0091 -37.0051 -36.9895 -36.9889 -36.9812 -36.9757 -36.9701 -36.9635
   -36.9495 -36.9439 -36.9302 -36.8860 -36.8701 -36.8399 -36.8107 -36.7884
   -21.0776 -15.9858 -15.3933 -15.1802 -15.0747 -14.9494 -14.8515 -14.7660
   -14.5692 -14.5229 -14.4779 -14.4520 -14.4120 -14.3877 -14.2767 -14.2482
   -14.1887 -14.1716 -14.1587 -13.9538 -13.9458 -13.9010 -13.8832 -13.7053
    -8.3776  -7.7533  -7.5754  -7.5639  -7.3928  -7.3495  -7.3312  -7.2498
    -7.2075  -7.0251  -6.9223  -6.8667  -6.8169  -6.7991  -6.6982  -6.5901
    -6.4984  -6.4642  -6.3748  -6.3499  -6.1727  -6.0393  -5.9848  -5.9301
    -5.8759  -5.8511  -5.8139  -5.7609  -5.7304  -5.6922  -5.6178  -5.5868
    -5.5666  -5.4886  -5.4533  -5.3036  -5.2528  -5.1540  -5.1229  -5.0783
    -5.0672  -5.0230  -4.9156  -4.8265  -4.6537  -4.5534  -4.4098  -4.3950
    -4.3039  -4.2980  -4.2226  -4.1953  -4.1239  -3.9970  -3.9606  -3.8270
    -3.7277  -3.7180  -3.6855  -3.6467  -3.6139  -3.5757  -3.5593  -3.5183
    -3.4965  -3.4800  -3.3043  -3.2730  -3.0031  -2.9723  -2.9155  -2.8250
    -2.8124  -2.7839  -2.7734  -2.7428  -2.7003  -2.6544  -2.5028  -2.2892
    -2.1232  -2.0609  -2.0253  -1.6612  -1.3580  -0.7754  -0.7352  -0.2219
    -0.2014  -0.1228  -0.0623   0.0181   0.0802   0.1097   0.1903   0.2392
     0.2604   0.3992   0.4062   0.4479   0.4892   0.5307   0.5511   0.5699
     0.6310   0.6497   0.6761   0.7187   0.7542   0.8186   0.8572   0.9212
     0.9570   1.0576   1.2169

     the Fermi energy is    -1.5096 ev

!    total energy              =   -2246.22665842 Ry
     estimated scf accuracy    <       0.00000003 Ry
     smearing contrib. (-TS)   =      -0.00326008 Ry
     internal energy E=F+TS    =   -2246.22339833 Ry

     The total energy is F=E-TS. E is the sum of the following terms:
     one-electron contribution =  -18481.47297998 Ry
     hartree contribution      =    9229.01222475 Ry
     xc contribution           =    -392.06833860 Ry
     ewald contribution        =    7408.17353681 Ry
     one-center paw contrib.   =      -9.86784132 Ry

     convergence has been achieved in  10 iterations

     negative rho (up, down):  2.072E-04 0.000E+00

     Forces acting on atoms (cartesian axes, Ry/au):

     atom    1 type  1   force =     0.00048418   -0.00317774   -0.01284275
     atom    2 type  2   force =    -0.00612666    0.00529380   -0.00272835
     atom    3 type  2   force =     0.00186114    0.00143904   -0.02327863
     atom    4 type  1   force =     0.00136733    0.00834759   -0.00028796
     atom    5 type  2   force =     0.00627871    0.00182446   -0.02272999
     atom    6 type  2   force =     0.00073373    0.00709041    0.00067720
     atom    7 type  1   force =     0.00775355   -0.00817939    0.00172866
     atom    8 type  2   force =     0.00279483   -0.00440182    0.01085039
     atom    9 type  2   force =     0.01173413    0.00700870   -0.00050420
     atom   10 type  1   force =    -0.00362313    0.00710446    0.00051066
     atom   11 type  2   force =     0.00327761   -0.00572975   -0.01082968
     atom   12 type  2   force =    -0.00466655   -0.00561413   -0.00533305
     atom   13 type  1   force =    -0.00089935    0.00653324   -0.00484449
     atom   14 type  2   force =     0.00893446    0.08148557    0.01335182
     atom   15 type  2   force =    -0.00694286   -0.00745924   -0.00806660
     atom   16 type  1   force =    -0.00072400    0.00485772    0.00212692
     atom   17 type  2   force =    -0.00485466    0.00563887   -0.00731458
     atom   18 type  2   force =    -0.00141545   -0.00075440    0.00549917
     atom   19 type  1   force =     0.00046518   -0.00658130    0.00371024
     atom   20 type  2   force =     0.00199349   -0.00110128   -0.00640825
     atom   21 type  1   force =     0.00112736   -0.00092181    0.00810399
     atom   22 type  2   force =     0.00014554   -0.00404726   -0.00545148
     atom   23 type  2   force =     0.00180941   -0.00264461   -0.00092040
     atom   24 type  1   force =    -0.00369912   -0.00663866   -0.00237353
     atom   25 type  2   force =     0.00866753    0.00912679   -0.00325117
     atom   26 type  2   force =    -0.00936002   -0.00362690   -0.00841927
     atom   27 type  1   force =    -0.00483476    0.00254786   -0.00057579
     atom   28 type  2   force =    -0.00187979    0.00002476   -0.00819831
     atom   29 type  2   force =     0.00311160    0.00045200   -0.00727561
     atom   30 type  1   force =    -0.00148245   -0.00238764    0.00660649
     atom   31 type  2   force =    -0.00098698    0.00026893    0.00770071
     atom   32 type  2   force =    -0.00578537    0.00716099    0.00235388
     atom   33 type  1   force =     0.00384078    0.00139927    0.00571063
     atom   34 type  2   force =    -0.00146764   -0.02147643   -0.01436655
     atom   35 type  2   force =    -0.00407299    0.00816131    0.00435741
     atom   36 type  3   force =    -0.00355879   -0.08102341    0.08271246
     The non-local contrib.  to forces
     atom    1 type  1   force =     0.00191961    0.02488050   -0.00041044
     atom    2 type  2   force =    -0.00105352   -0.00360243   -0.27039025
     atom    3 type  2   force =    -0.00549224   -0.01153438    0.25447564
     atom    4 type  1   force =    -0.00177409   -0.00402968    0.00732512
     atom    5 type  2   force =    -0.10541829   -0.14572360   -0.19764676
     atom    6 type  2   force =    -0.00064278    0.00538334    0.26389181
     atom    7 type  1   force =    -0.01336522   -0.00180547   -0.02363102
     atom    8 type  2   force =    -0.00137722   -0.00394498   -0.26427897
     atom    9 type  2   force =     0.00474328   -0.00413830    0.26672285
     atom   10 type  1   force =     0.00389753    0.00419916   -0.00348557
     atom   11 type  2   force =     0.01146590   -0.00371034   -0.26005750
     atom   12 type  2   force =    -0.01602783   -0.01994853    0.26103222
     atom   13 type  1   force =    -0.00046397    0.00844918    0.00234108
     atom   14 type  2   force =     0.09903712    0.36860248    0.05626985
     atom   15 type  2   force =    -0.00798544   -0.01408242    0.26191061
     atom   16 type  1   force =     0.00499548    0.03330236   -0.01962069
     atom   17 type  2   force =    -0.00221541   -0.01810677   -0.24899608
     atom   18 type  2   force =    -0.00463995    0.00107955    0.26333790
     atom   19 type  1   force =     0.01131370   -0.00382459   -0.01792191
     atom   20 type  2   force =    -0.00143583   -0.01861160    0.25736881
     atom   21 type  1   force =    -0.00893780    0.01028132   -0.02483822
     atom   22 type  2   force =    -0.00901163   -0.00164793   -0.25315682
     atom   23 type  2   force =     0.01406264   -0.02222208    0.26634591
     atom   24 type  1   force =     0.00070362    0.02274286   -0.00427960
     atom   25 type  2   force =     0.00718298    0.00243846   -0.26842636
     atom   26 type  2   force =     0.00228709   -0.01363017    0.26086755
     atom   27 type  1   force =     0.00457129    0.00390699    0.01173807
     atom   28 type  2   force =    -0.00036604   -0.02116460   -0.27500299
     atom   29 type  2   force =     0.00741946   -0.00508538    0.26162837
     atom   30 type  1   force =     0.00161328    0.01809270    0.00955516
     atom   31 type  2   force =    -0.00594862    0.00193626   -0.26130317
     atom   32 type  2   force =    -0.00005545   -0.00649261    0.26474707
[...]
     atom   28 type  2   force =    -0.00071703   -0.01409098   -0.27885950
     atom   29 type  2   force =     0.00042551   -0.00993109    0.27100063
     atom   30 type  1   force =     0.00006243    0.02112245    0.00374594
     atom   31 type  2   force =    -0.00489262    0.00176994   -0.26751475
     atom   32 type  2   force =     0.00774933   -0.01435743    0.26873654
     atom   33 type  1   force =    -0.00222091    0.00749558    0.00161991
     atom   34 type  2   force =    -0.00018326   -0.00709033   -0.27609331
     atom   35 type  2   force =     0.00036252   -0.01297687    0.26687640
     atom   36 type  3   force =     0.00634188    0.01583781   -2.32615480
     The ionic contribution  to forces
     atom    1 type  1   force =     0.81114023    1.28643106   -1.88714907
     atom    2 type  2   force =     0.83059296    0.06737535   38.15591904
     atom    3 type  2   force =     0.11098480   -0.17486505  -38.33524580
     atom    4 type  1   force =     0.23486605    0.89443145   -0.72698263
     atom    5 type  2   force =    -0.37509273    2.15304937   37.72593040
     atom    6 type  2   force =     0.20782377   -0.13986469  -38.91345793
     atom    7 type  1   force =    -2.61733748   -2.36963941    1.88541176
     atom    8 type  2   force =    -1.05995156    0.10413551   38.15036799
     atom    9 type  2   force =     0.37148713    0.07108433  -38.31306906
     atom   10 type  1   force =     0.10699355   -1.01278261    1.89417785
     atom   11 type  2   force =     0.08426839   -2.40052074   37.98546753
     atom   12 type  2   force =     0.27341351    0.18707089  -38.57126290
     atom   13 type  1   force =    -0.79765946    1.31674861   -2.05988415
     atom   14 type  2   force =     0.01635729   -0.02097919   28.31394758
     atom   15 type  2   force =     0.00051277   -0.21647787  -38.23002562
     atom   16 type  1   force =    -0.02672019    4.31556494    0.40592652
     atom   17 type  2   force =     0.36483433    2.14996269   37.66281789
     atom   18 type  2   force =    -0.20277211   -0.13779462  -38.92929826
     atom   19 type  1   force =     2.60631404   -2.36817080    1.95973262
     atom   20 type  2   force =    -0.00820612    0.06451928  -38.91028218
     atom   21 type  1   force =    -0.01918910   -1.57255729   -2.60788750
     atom   22 type  2   force =    -0.09830551   -2.39571150   37.96066399
     atom   23 type  2   force =    -0.27927973    0.18169038  -38.55409579
     atom   24 type  1   force =    -0.01477634    0.74362757    0.80245443
     atom   25 type  2   force =    -0.83260723    0.06829852   38.12767532
     atom   26 type  2   force =    -0.11210693   -0.17208517  -38.37200402
     atom   27 type  1   force =    -0.21181050    0.88901566   -0.94973265
     atom   28 type  2   force =     0.00831716    0.80445700   37.78202045
     atom   29 type  2   force =    -0.00240923    0.03871268  -38.19297556
     atom   30 type  1   force =     0.01125554   -0.76222793    1.81951120
     atom   31 type  2   force =     1.06875378    0.09388040   38.13328673
     atom   32 type  2   force =    -0.36080412    0.08308564  -38.31278012
     atom   33 type  1   force =    -0.08280084   -1.05860030    1.75334857
     atom   34 type  2   force =     0.00750273   -0.76576861   38.74052573
     atom   35 type  2   force =     0.00356759   -0.01619821  -37.82542053
     atom   36 type  3   force =    -0.01715643    0.07110265   50.43236818
     The local contribution  to forces
     atom    1 type  1   force =    -0.79963411   -1.29950035    1.87438142
     atom    2 type  2   force =    -0.82995494   -0.06105458  -37.90433360
     atom    3 type  2   force =    -0.10858501    0.18364592   38.09240976
     atom    4 type  1   force =    -0.23926083   -0.90021378    0.72075150
     atom    5 type  2   force =     0.37214758   -2.13232156  -37.48896720
     atom    6 type  2   force =    -0.20839111    0.14335868   38.67008927
     atom    7 type  1   force =     2.62576622    2.36951093   -1.86112815
     atom    8 type  2   force =     1.05477434   -0.10519284  -37.90402888
     atom    9 type  2   force =    -0.36524147   -0.05742201   38.06515974
     atom   10 type  1   force =    -0.10893971    1.00581694   -1.89614873
     atom   11 type  2   force =    -0.09055639    2.40132702  -37.74209314
     atom   12 type  2   force =    -0.26491778   -0.17365383   38.32774794
     atom   13 type  1   force =     0.78658420   -1.32845800    2.04643815
     atom   14 type  2   force =    -0.01553639    0.02847304  -28.60120709
     atom   15 type  2   force =    -0.00037328    0.22582629   37.97720000
     atom   16 type  1   force =     0.02643734   -4.34442853   -0.37369403
     atom   17 type  2   force =    -0.36198522   -2.12926916  -37.42557699
     atom   18 type  2   force =     0.20349569    0.14116495   38.68573931
     atom   19 type  1   force =    -2.61557454    2.36806107   -1.93568497
     atom   20 type  2   force =     0.00810294   -0.05052416   38.66574831
     atom   21 type  1   force =     0.01772283    1.53309120    2.58974530
     atom   22 type  2   force =     0.10459597    2.39670601  -37.71727864
     atom   23 type  2   force =     0.27079324   -0.16863724   38.31041891
     atom   24 type  1   force =     0.01457058   -0.76313088   -0.81118577
     atom   25 type  2   force =     0.83218398   -0.06203491  -37.87583490
     atom   26 type  2   force =     0.10970586    0.18068421   38.12902079
     atom   27 type  1   force =     0.21771620   -0.89508998    0.94402460
     atom   28 type  2   force =    -0.00811235   -0.79227250  -37.52433398
     atom   29 type  2   force =     0.00211015   -0.02870443   37.94382364
     atom   30 type  1   force =    -0.01147154    0.74063855   -1.82363391
     atom   31 type  2   force =    -1.06367419   -0.09527467  -37.88689742
     atom   32 type  2   force =     0.35455892   -0.06924998   38.06457294
     atom   33 type  1   force =     0.08572809    1.05027886   -1.75513852
     atom   34 type  2   force =    -0.00740889    0.77287202  -38.48655465
     atom   35 type  2   force =    -0.00360898    0.02769236   37.57949884
     atom   36 type  3   force =     0.01106699   -0.08724993  -48.12939169
     The core correction contribution to forces
     atom    1 type  1   force =     0.00000000    0.00000000    0.00000000
     atom    2 type  2   force =    -0.00003242    0.00033269    0.02133561
     atom    3 type  2   force =     0.00016420    0.00027005   -0.02077612
     atom    4 type  1   force =     0.00000000    0.00000000    0.00000000
     atom    5 type  2   force =    -0.00035568    0.00096470    0.02069798
     atom    6 type  2   force =     0.00006604   -0.00021350   -0.02083719
     atom    7 type  1   force =     0.00000000    0.00000000    0.00000000
     atom    8 type  2   force =    -0.00025821    0.00012474    0.02100312
     atom    9 type  2   force =     0.00071908    0.00077437   -0.02098904
     atom   10 type  1   force =     0.00000000    0.00000000    0.00000000
     atom   11 type  2   force =    -0.00013605   -0.00020267    0.02100576
     atom   12 type  2   force =     0.00077702    0.00097147   -0.02084468
     atom   13 type  1   force =     0.00000000    0.00000000    0.00000000
     atom   14 type  2   force =     0.00002874    0.00013725   -0.00983795
     atom   15 type  2   force =     0.00001605    0.00038617   -0.02112455
     atom   16 type  1   force =     0.00000000    0.00000000    0.00000000
     atom   17 type  2   force =     0.00034035    0.00098109    0.02069011
     atom   18 type  2   force =    -0.00003568   -0.00020531   -0.02084580
     atom   19 type  1   force =     0.00000000    0.00000000    0.00000000
     atom   20 type  2   force =    -0.00000877    0.00070027   -0.02126565
     atom   21 type  1   force =     0.00000000    0.00000000    0.00000000
     atom   22 type  2   force =     0.00009831   -0.00016912    0.02101362
     atom   23 type  2   force =    -0.00076896    0.00096254   -0.02084703
     atom   24 type  1   force =     0.00000000    0.00000000    0.00000000
     atom   25 type  2   force =     0.00006368    0.00034323    0.02133281
     atom   26 type  2   force =    -0.00019396    0.00027651   -0.02077668
     atom   27 type  1   force =     0.00000000    0.00000000    0.00000000
     atom   28 type  2   force =     0.00004259    0.00088767    0.02136141
     atom   29 type  2   force =    -0.00003389    0.00028739   -0.02091105
     atom   30 type  1   force =     0.00000000    0.00000000    0.00000000
     atom   31 type  2   force =     0.00024942    0.00010003    0.02100506
     atom   32 type  2   force =    -0.00070665    0.00081997   -0.02098872
     atom   33 type  1   force =     0.00000000    0.00000000    0.00000000
     atom   34 type  2   force =     0.00001254    0.00026034    0.02130893
     atom   35 type  2   force =    -0.00002662    0.00073712   -0.02093141
     atom   36 type  3   force =    -0.00006814   -0.00018306    0.02465613
     The Hubbard contrib.    to forces
     atom    1 type  1   force =     0.00000000    0.00000000    0.00000000
     atom    2 type  2   force =     0.00000000    0.00000000    0.00000000
     atom    3 type  2   force =     0.00000000    0.00000000    0.00000000
     atom    4 type  1   force =     0.00000000    0.00000000    0.00000000
     atom    5 type  2   force =     0.00000000    0.00000000    0.00000000
     atom    6 type  2   force =     0.00000000    0.00000000    0.00000000
     atom    7 type  1   force =     0.00000000    0.00000000    0.00000000
     atom    8 type  2   force =     0.00000000    0.00000000    0.00000000
     atom    9 type  2   force =     0.00000000    0.00000000    0.00000000
     atom   10 type  1   force =     0.00000000    0.00000000    0.00000000
     atom   11 type  2   force =     0.00000000    0.00000000    0.00000000
     atom   12 type  2   force =     0.00000000    0.00000000    0.00000000
     atom   13 type  1   force =     0.00000000    0.00000000    0.00000000
     atom   14 type  2   force =     0.00000000    0.00000000    0.00000000
     atom   15 type  2   force =     0.00000000    0.00000000    0.00000000
     atom   16 type  1   force =     0.00000000    0.00000000    0.00000000
     atom   17 type  2   force =     0.00000000    0.00000000    0.00000000
     atom   18 type  2   force =     0.00000000    0.00000000    0.00000000
     atom   19 type  1   force =     0.00000000    0.00000000    0.00000000
     atom   20 type  2   force =     0.00000000    0.00000000    0.00000000
     atom   21 type  1   force =     0.00000000    0.00000000    0.00000000
     atom   22 type  2   force =     0.00000000    0.00000000    0.00000000
     atom   23 type  2   force =     0.00000000    0.00000000    0.00000000
     atom   24 type  1   force =     0.00000000    0.00000000    0.00000000
     atom   25 type  2   force =     0.00000000    0.00000000    0.00000000
     atom   26 type  2   force =     0.00000000    0.00000000    0.00000000
     atom   27 type  1   force =     0.00000000    0.00000000    0.00000000
     atom   28 type  2   force =     0.00000000    0.00000000    0.00000000
     atom   29 type  2   force =     0.00000000    0.00000000    0.00000000
     atom   30 type  1   force =     0.00000000    0.00000000    0.00000000
     atom   31 type  2   force =     0.00000000    0.00000000    0.00000000
     atom   32 type  2   force =     0.00000000    0.00000000    0.00000000
     atom   33 type  1   force =     0.00000000    0.00000000    0.00000000
     atom   34 type  2   force =     0.00000000    0.00000000    0.00000000
     atom   35 type  2   force =     0.00000000    0.00000000    0.00000000
     atom   36 type  3   force =     0.00000000    0.00000000    0.00000000
     The SCF correction term to forces
     atom    1 type  1   force =     0.00000203    0.00004837   -0.00003688
     atom    2 type  2   force =    -0.00000034    0.00000316   -0.00000655
     atom    3 type  2   force =     0.00000129    0.00001704   -0.00001924
     atom    4 type  1   force =     0.00000489    0.00001511   -0.00005158
     atom    5 type  2   force =    -0.00000451   -0.00000082   -0.00002584
     atom    6 type  2   force =    -0.00000963    0.00000633   -0.00000902
     atom    7 type  1   force =     0.00000725   -0.00003411   -0.00001088
     atom    8 type  2   force =    -0.00000119    0.00001192   -0.00002775
     atom    9 type  2   force =     0.00000562   -0.00001396    0.00000005
     atom   10 type  1   force =     0.00000703   -0.00001900   -0.00001315
     atom   11 type  2   force =     0.00000481   -0.00002197   -0.00000320
     atom   12 type  2   force =     0.00001211   -0.00001767   -0.00000833
     atom   13 type  1   force =    -0.00000098    0.00005107   -0.00003565
     atom   14 type  2   force =    -0.00000363    0.00001336   -0.00002080
     atom   15 type  2   force =    -0.00000196    0.00002982   -0.00000931
     atom   16 type  1   force =    -0.00000456   -0.00001280   -0.00005067
     atom   17 type  2   force =     0.00000492   -0.00000389   -0.00003279
     atom   18 type  2   force =     0.00000321   -0.00000036    0.00000119
     atom   19 type  1   force =    -0.00000114   -0.00003669    0.00000273
     atom   20 type  2   force =     0.00000706   -0.00002043    0.00000784
     atom   21 type  1   force =     0.00000567   -0.00000701    0.00000001
     atom   22 type  2   force =    -0.00000426   -0.00002286   -0.00000260
     atom   23 type  2   force =    -0.00000583   -0.00001662   -0.00000063
     atom   24 type  1   force =     0.00000781    0.00002988   -0.00004553
     atom   25 type  2   force =     0.00000503    0.00001030   -0.00001047
     atom   26 type  2   force =     0.00000207    0.00003063   -0.00001119
     atom   27 type  1   force =    -0.00001152    0.00000119   -0.00005081
     atom   28 type  2   force =     0.00000781    0.00001092   -0.00002729
     atom   29 type  2   force =     0.00000165    0.00001470   -0.00001319
     atom   30 type  1   force =     0.00000023   -0.00003591   -0.00001854
     atom   31 type  2   force =     0.00000122    0.00000841   -0.00002970
     atom   32 type  2   force =    -0.00001044   -0.00001939    0.00000702
     atom   33 type  1   force =    -0.00001040   -0.00001757   -0.00000385
     atom   34 type  2   force =    -0.00000119   -0.00001079   -0.00000743
     atom   35 type  2   force =    -0.00000623   -0.00001823   -0.00000302
     atom   36 type  3   force =    -0.00000413    0.00000722    0.00000116

     Total force =     0.005946     Total SCF correction =     0.000193
     Energy error            =      8.6E-05 Ry
     Gradient error          =      1.7E-03 Ry/Bohr

     bfgs converged in  28 scf cycles and  27 bfgs steps
     (criteria: energy <  1.0E-04 Ry, force <  1.0E-02 Ry/Bohr)

     End of BFGS Geometry Optimization

     Final energy             =   -2246.4492347609 Ry

     File ./MoS2-V-O.bfgs deleted, as requested
Begin final coordinates

ATOMIC_POSITIONS (angstrom)
Mo            6.5926953104        1.8200066731        2.7308223364
S             8.1367079591        0.9101002767        4.3594663361
S             8.1599483482        0.8760893659        1.1579939236
Mo            8.1278240100        4.5411219547        2.7008682579
S             6.5325647956        3.7111332486        4.3023705653
S             6.5625640612        3.6251625091        1.0865507853
Mo            6.5360248363        7.2278146253        2.6695607388
S             8.0955985177        6.3409922118        4.3032186566
S             8.1581476939        6.3734879972        1.1123757702
Mo            8.1455740901        9.9848292036        2.7710037601
S             6.5291744873        8.9913261599        4.3264954617
S             6.6155601103        9.0638452631        1.1197402149
Mo            3.4117903676        1.8188078774        2.7280482627
S             5.0009981323        0.8671169943        4.2353550710
S             5.0040610378        0.8791188322        1.1681630494
Mo            5.0034504984        4.5805673473        2.6482586661
S             3.4714324554        3.7118696611        4.2982624940
S             3.4440481046        3.6262731147        1.0840351881
Mo            3.4722870467        7.2289771038        2.6707948663
S             5.0037922357        6.3685683271        1.0492617571
Mo            5.0042032149        9.9198944940        2.7162097646
S             3.4748989739        8.9943143365        4.3261804623
S             3.3915756557        9.0656056539        1.1200413625
Mo            0.2739636955        1.7859935318        2.7544811248
S             1.8689547692        0.9111973548        4.3565608149
S             1.8426676202        0.8772528903        1.1560973702
Mo            1.8766061013        4.5423440641        2.6969684713
S             0.2763785124        3.6574048904        4.3020118399
S             0.2726477276        3.6042282795        1.1324016575
Mo            0.2751461635        7.2625104286        2.7441457588
S             1.9117381234        6.3411286164        4.3021586323
S             1.8499039742        6.3769380322        1.1123075241
Mo            1.8583103523        9.9868066729        2.7686926496
S             0.2750451923        9.0769827920        4.3691707524
S             0.2726927306        9.0974907214        1.1778579926
O             4.9971256616        0.8622893492        5.7328152374
End final coordinates



     Writing all to output data dir ./MoS2-V-O.save/
 
     init_run     :      4.60s CPU      5.10s WALL (       1 calls)
     electrons    :   2762.25s CPU   3123.39s WALL (      28 calls)
     update_pot   :     82.48s CPU     87.85s WALL (      27 calls)
     forces       :     76.68s CPU     87.33s WALL (      28 calls)

     Called by init_run:
     wfcinit      :      0.48s CPU      0.53s WALL (       1 calls)
     potinit      :      2.38s CPU      2.62s WALL (       1 calls)
     hinit0       :      0.44s CPU      0.46s WALL (       1 calls)

     Called by electrons:
     c_bands      :    398.99s CPU    408.46s WALL (     274 calls)
     sum_band     :    153.63s CPU    198.17s WALL (     274 calls)
     v_of_rho     :    257.40s CPU    313.17s WALL (     294 calls)
     newd         :     91.07s CPU    132.92s WALL (     294 calls)
     PAW_pot      :     11.63s CPU     11.67s WALL (     321 calls)
     mix_rho      :   1877.25s CPU   2089.37s WALL (     274 calls)

     Called by c_bands:
     init_us_2    :      6.25s CPU      6.73s WALL (     576 calls)
     init_us_2:cp :      6.24s CPU      6.72s WALL (     576 calls)
     regterg      :    378.42s CPU    387.36s WALL (     274 calls)

     Called by *egterg:
     rdiaghg      :     26.58s CPU     26.84s WALL (    1516 calls)
     h_psi        :    243.98s CPU    246.09s WALL (    1552 calls)
     s_psi        :     23.49s CPU     23.57s WALL (    1552 calls)
     g_psi        :      1.17s CPU      1.19s WALL (    1277 calls)

     Called by h_psi:
     h_psi:calbec :     27.55s CPU     27.70s WALL (    1552 calls)
     vloc_psi     :    189.97s CPU    191.76s WALL (    1552 calls)
     add_vuspsi   :     23.44s CPU     23.58s WALL (    1552 calls)

     General routines
     calbec       :     39.56s CPU     39.76s WALL (    1965 calls)
     fft          :    173.80s CPU    201.59s WALL (   19565 calls)
     ffts         :    840.00s CPU   1044.71s WALL (  460084 calls)
     fftw         :    122.00s CPU    122.98s WALL (  168100 calls)
     interpolate  :      3.64s CPU      4.17s WALL (     294 calls)
 
     Parallel routines
 
     PWSCF        :  48m58.27s CPU  55m21.39s WALL

 
   This run was terminated on:  14:42:57   1Nov2023            

=------------------------------------------------------------------------------=
   JOB DONE.
=------------------------------------------------------------------------------=
