
     Program PWSCF v.7.2 starts on  1Nov2023 at 15:45:44 

     This program is part of the open-source Quantum ESPRESSO suite
     for quantum simulation of materials; please cite
         "P. Giannozzi et al., J. Phys.:Condens. Matter 21 395502 (2009);
         "P. Giannozzi et al., J. Phys.:Condens. Matter 29 465901 (2017);
         "P. Giannozzi et al., J. Chem. Phys. 152 154105 (2020);
          URL http://www.quantum-espresso.org", 
     in publications or presentations arising from this work. More details at
     http://www.quantum-espresso.org/quote

     Parallel version (MPI & OpenMP), running on      48 processor cores
     Number of MPI processes:                48
     Threads/MPI process:                     1

     MPI processes distributed on     1 nodes
     43506 MiB available memory on the printing compute node when the environment starts
 
     Waiting for input...
     Reading input from standard input
Warning: card &CELL ignored
Warning: card CELL_DYNAMICS = 'BFGS', ignored
Warning: card CELL_DOFREE = '2DXY' ignored
Warning: card / ignored

     Current dimensions of program PWSCF are:
     Max number of different atomic species (ntypx) = 10
     Max number of k-points (npk) =  40000
     Max angular momentum in pseudopotentials (lmaxx) =  4
     file O.pbe-n-kjpaw_psl.0.1.UPF: wavefunction(s)  2P renormalized

     IMPORTANT: XC functional enforced from input :
     Exchange-correlation= RVV10
                           (   1   4  13   4  26   0   0)
     Any further DFT definition will be discarded
     Please, verify this is what you really want


     gamma-point specific algorithms are used
     signal trapping enabled: kill the code with -SIGUSR1 to stop cleanly the simulation 
 
     R & G space division:  proc/nbgrp/npool/nimage =      48
     Subspace diagonalization in iterative solution of the eigenvalue problem:
     one sub-group per band group will be used
     scalapack distributed-memory algorithm (size of sub-group:  2*  2 procs)

 
     Parallelization info
     --------------------
     sticks:   dense  smooth     PW     G-vecs:    dense   smooth      PW
     Min         396     194     47               101632    35090    4376
     Max         398     196     50               101674    35128    4410
     Sum       19091    9389   2349              4879585  1685513  210763
 
     Using Slab Decomposition
 


     bravais-lattice index     =            0
     lattice parameter (alat)  =      17.8707  a.u.
     unit-cell volume          =   17436.2743 (a.u.)^3
     number of atoms/cell      =           36
     number of atomic types    =            3
     number of electrons       =       312.00
     number of Kohn-Sham states=          187
     kinetic-energy cutoff     =      80.0000  Ry
     charge density cutoff     =     650.0000  Ry
     scf convergence threshold =      1.0E-06
     mixing beta               =       0.7000
     number of iterations used =            8  local-TF  mixing
     energy convergence thresh.=      1.0E-04
     force convergence thresh. =      1.0E-02
     Exchange-correlation= RVV10
                           (   1   4  13   4  26   0   0)
     nstep                     =          200


     celldm(1)=  17.870686  celldm(2)=   0.000000  celldm(3)=   0.000000
     celldm(4)=   0.000000  celldm(5)=   0.000000  celldm(6)=   0.000000

     crystal axes: (cart. coord. in units of alat)
               a(1) = (   1.000000   0.000000   0.000000 )  
               a(2) = (   0.000000   1.155671   0.000000 )  
               a(3) = (   0.000000   0.000000   2.643601 )  

     reciprocal axes: (cart. coord. in units 2 pi/alat)
               b(1) = (  1.000000  0.000000  0.000000 )  
               b(2) = (  0.000000  0.865298  0.000000 )  
               b(3) = (  0.000000  0.000000  0.378272 )  


     PseudoPot. # 1 for Mo read from file:
     ../pseudo/Mo_ONCV_PBE-1.0.oncvpsp.upf
     MD5 check sum: 1b5d28e075c9ccadda658a603575cd1f
     Pseudo is Norm-conserving, Zval = 14.0
     Generated using ONCVPSP code by D. R. Hamann
     Using radial grid of 1526 points,  6 beta functions with: 
                l(1) =   0
                l(2) =   0
                l(3) =   1
                l(4) =   1
                l(5) =   2
                l(6) =   2

     PseudoPot. # 2 for S  read from file:
     ../pseudo/s_pbe_v1.4.uspp.F.UPF
     MD5 check sum: 88d86576ff6df21479756cfb9bdac1df
     Pseudo is Ultrasoft + core correction, Zval =  6.0
     Generated by new atomic code, or converted to UPF format
     Using radial grid of  907 points,  6 beta functions with: 
                l(1) =   0
                l(2) =   0
                l(3) =   1
                l(4) =   1
                l(5) =   2
                l(6) =   2
     Q(r) pseudized with  8 coefficients,  rinner =    1.300   1.300   1.300
                                                       1.300   1.300

     PseudoPot. # 3 for O  read from file:
     ../pseudo/O.pbe-n-kjpaw_psl.0.1.UPF
     MD5 check sum: 0234752ac141de4415c5fc33072bef88
     Pseudo is Projector augmented-wave + core cor, Zval =  6.0
     Generated using "atomic" code by A. Dal Corso  v.5.0.99 svn rev. 10869
     Shape of augmentation charge: BESSEL
     Using radial grid of 1095 points,  4 beta functions with: 
                l(1) =   0
                l(2) =   0
                l(3) =   1
                l(4) =   1
     Q(r) pseudized with 0 coefficients 


     atomic species   valence    mass     pseudopotential
        Mo            14.00    95.94000     Mo( 1.00)
        S              6.00    32.06500     S ( 1.00)
        O              6.00    15.99940     O ( 1.00)

     No symmetry found



   Cartesian axes

     site n.     atom                  positions (alat units)
         1           Mo  tau(   1) = (   0.6952221   0.1890506   0.2985846  )
         2           S   tau(   2) = (   0.8646417   0.0856217   0.4689279  )
         3           S   tau(   3) = (   0.8663890   0.0857843   0.1351291  )
         4           Mo  tau(   4) = (   0.8560186   0.4753274   0.2873942  )
         5           S   tau(   5) = (   0.6873294   0.3936244   0.4596353  )
         6           S   tau(   6) = (   0.6929804   0.3713468   0.1185692  )
         7           Mo  tau(   7) = (   0.6862796   0.7633098   0.2825370  )
         8           S   tau(   8) = (   0.8545980   0.6708292   0.4486168  )
         9           S   tau(   9) = (   0.8545123   0.6666874   0.1146125  )
        10           Mo  tau(  10) = (   0.8629403   1.0471007   0.3006803  )
        11           S   tau(  11) = (   0.6868280   0.9456650   0.4634891  )
        12           S   tau(  12) = (   0.6998113   0.9568511   0.1205389  )
        13           Mo  tau(  13) = (   0.3618216   0.1847309   0.2935964  )
        14           S   tau(  14) = (   0.5260962   0.0863870   0.4600448  )
        15           S   tau(  15) = (   0.5348379   0.0894875   0.1297123  )
        16           Mo  tau(  16) = (   0.5265817   0.4772436   0.2784130  )
        17           S   tau(  17) = (   0.3624753   0.3882513   0.4525556  )
        18           S   tau(  18) = (   0.3635411   0.3752055   0.1119148  )
        19           Mo  tau(  19) = (   0.3652268   0.7630864   0.2781795  )
        20           S   tau(  20) = (   0.5269494   0.6690381   0.1096838  )
        21           Mo  tau(  21) = (   0.5300192   1.0470394   0.2900995  )
        22           S   tau(  22) = (   0.3670346   0.9457522   0.4574073  )
        23           S   tau(  23) = (   0.3604225   0.9585725   0.1159032  )
        24           Mo  tau(  24) = (   0.0313099   0.1847895   0.3013130  )
        25           S   tau(  25) = (   0.1956761   0.0838230   0.4650863  )
        26           S   tau(  26) = (   0.1967693   0.0903508   0.1278874  )
        27           Mo  tau(  27) = (   0.1967578   0.4753919   0.2813011  )
        28           S   tau(  28) = (   0.0287851   0.3864324   0.4586755  )
        29           S   tau(  29) = (   0.0244514   0.3729871   0.1239344  )
        30           Mo  tau(  30) = (   0.0286728   0.7631204   0.2856894  )
        31           S   tau(  31) = (   0.2011512   0.6675435   0.4465001  )
        32           S   tau(  32) = (   0.1969214   0.6672839   0.1104564  )
        33           Mo  tau(  33) = (   0.1950294   1.0511147   0.2932237  )
        34           S   tau(  34) = (   0.0312912   0.9612169   0.4667423  )
        35           S   tau(  35) = (   0.0292670   0.9563028   0.1216485  )
        36           O   tau(  36) = (   0.8888889   0.3852236   0.5407634  )

     number of k points=     1  Gaussian smearing, width (Ry)=  0.0100
                       cart. coord. in units 2pi/alat
        k(    1) = (   0.0000000   0.0000000   0.0000000), wk =   2.0000000

     Dense  grid:  2439793 G-vectors     FFT dimensions: ( 150, 180, 384)

     Smooth grid:   842757 G-vectors     FFT dimensions: ( 108, 120, 270)

     Estimated max dynamical RAM per process >     269.22 MB

     Estimated total dynamical RAM >      12.62 GB

     Initial potential from superposition of free atoms

     starting charge     311.9873, renormalised to     312.0000

     negative rho (up, down):  2.730E-04 0.000E+00


---------------------------------------------------------------------------------
Carrying out rVV10 run using the following parameters:
Nqs =      20    Nr_points =    1024   r_max =   100.000
b_value =  6.30000    beta =  0.00901
     q_mesh =  0.00010000  0.00030000  0.00058939  0.00100810
               0.00161396  0.00249058  0.00375900  0.00559430
               0.00824984  0.01209221  0.01765183  0.02569619
               0.03733578  0.05417739  0.07854596  0.11380545
               0.16482331  0.23864234  0.34545298  0.50000000

Gradients computed in Reciprocal space

---------------------------------------------------------------------------------


     Starting wfcs are  216 randomized atomic wfcs
     Checking if some PAW data can be deallocated... 

     total cpu time spent up to now is        5.4 secs

     Self-consistent Calculation

     iteration #  1     ecut=    80.00 Ry     beta= 0.70
     Davidson diagonalization with overlap
     ethr =  1.00E-02,  avg # of iterations =  2.0

     Threshold (ethr) on eigenvalues was too large:
     Diagonalizing with lowered threshold

     Davidson diagonalization with overlap
     ethr =  4.45E-04,  avg # of iterations =  4.0

     negative rho (up, down):  3.473E-08 0.000E+00

     total cpu time spent up to now is       20.1 secs

     total energy              =   -2246.16850066 Ry
     estimated scf accuracy    <       1.63905905 Ry

     iteration #  2     ecut=    80.00 Ry     beta= 0.70
     Davidson diagonalization with overlap
     ethr =  5.25E-04,  avg # of iterations =  3.0

     total cpu time spent up to now is       25.5 secs

     total energy              =   -2246.16978427 Ry
     estimated scf accuracy    <       0.72931439 Ry

     iteration #  3     ecut=    80.00 Ry     beta= 0.70
     Davidson diagonalization with overlap
     ethr =  2.34E-04,  avg # of iterations =  4.0

     total cpu time spent up to now is       30.0 secs

     total energy              =   -2246.15277667 Ry
     estimated scf accuracy    <       0.26319021 Ry

     iteration #  4     ecut=    80.00 Ry     beta= 0.70
     Davidson diagonalization with overlap
     ethr =  8.44E-05,  avg # of iterations = 17.0

     total cpu time spent up to now is       35.3 secs

     total energy              =   -2246.19344517 Ry
     estimated scf accuracy    <       0.03455143 Ry

     iteration #  5     ecut=    80.00 Ry     beta= 0.70
     Davidson diagonalization with overlap
     ethr =  1.11E-05,  avg # of iterations =  9.0

     total cpu time spent up to now is       40.1 secs

     total energy              =   -2246.19481573 Ry
     estimated scf accuracy    <       0.01909340 Ry

     iteration #  6     ecut=    80.00 Ry     beta= 0.70
     Davidson diagonalization with overlap
     ethr =  6.12E-06,  avg # of iterations =  2.0

     total cpu time spent up to now is       44.3 secs

     total energy              =   -2246.19368188 Ry
     estimated scf accuracy    <       0.01189964 Ry

     iteration #  7     ecut=    80.00 Ry     beta= 0.70
     Davidson diagonalization with overlap
     ethr =  3.81E-06,  avg # of iterations =  2.0

     total cpu time spent up to now is       48.5 secs

     total energy              =   -2246.19270519 Ry
     estimated scf accuracy    <       0.00724026 Ry

     iteration #  8     ecut=    80.00 Ry     beta= 0.70
     Davidson diagonalization with overlap
     ethr =  2.32E-06,  avg # of iterations =  8.0

     negative rho (up, down):  5.116E-03 0.000E+00

     total cpu time spent up to now is       55.0 secs

     total energy              =   -2246.19171176 Ry
     estimated scf accuracy    <       0.00423784 Ry

     iteration #  9     ecut=    80.00 Ry     beta= 0.70
     Davidson diagonalization with overlap
     ethr =  1.36E-06,  avg # of iterations =  2.0

     negative rho (up, down):  2.311E-02 0.000E+00

     total cpu time spent up to now is       61.5 secs

     total energy              =   -2246.19145013 Ry
     estimated scf accuracy    <       0.00230313 Ry

     iteration # 10     ecut=    80.00 Ry     beta= 0.70
     Davidson diagonalization with overlap
     ethr =  7.38E-07,  avg # of iterations =  2.0

     negative rho (up, down):  2.595E-02 0.000E+00

     total cpu time spent up to now is       68.4 secs

     total energy              =   -2246.19144620 Ry
     estimated scf accuracy    <       0.00109619 Ry

     iteration # 11     ecut=    80.00 Ry     beta= 0.70
     Davidson diagonalization with overlap
     ethr =  3.51E-07,  avg # of iterations =  2.0

     negative rho (up, down):  1.682E-02 0.000E+00

     total cpu time spent up to now is       75.2 secs

     total energy              =   -2246.19144377 Ry
     estimated scf accuracy    <       0.00019142 Ry

     iteration # 12     ecut=    80.00 Ry     beta= 0.70
     Davidson diagonalization with overlap
     ethr =  6.14E-08,  avg # of iterations = 10.0

     negative rho (up, down):  6.544E-03 0.000E+00

     total cpu time spent up to now is       83.7 secs

     total energy              =   -2246.19146028 Ry
     estimated scf accuracy    <       0.00004327 Ry

     iteration # 13     ecut=    80.00 Ry     beta= 0.70
     Davidson diagonalization with overlap
     ethr =  1.39E-08,  avg # of iterations =  2.0

     negative rho (up, down):  1.034E-03 0.000E+00

     total cpu time spent up to now is       95.1 secs

     total energy              =   -2246.19148182 Ry
     estimated scf accuracy    <       0.00000800 Ry

     iteration # 14     ecut=    80.00 Ry     beta= 0.70
     Davidson diagonalization with overlap
     ethr =  2.56E-09,  avg # of iterations =  5.0

     negative rho (up, down):  4.790E-04 0.000E+00

     total cpu time spent up to now is      105.9 secs

     total energy              =   -2246.19148428 Ry
     estimated scf accuracy    <       0.00000145 Ry

     iteration # 15     ecut=    80.00 Ry     beta= 0.70
     Davidson diagonalization with overlap
     ethr =  4.66E-10,  avg # of iterations =  5.0

     negative rho (up, down):  1.982E-04 0.000E+00

     total cpu time spent up to now is      110.2 secs

     End of self-consistent calculation

          k = 0.0000 0.0000 0.0000 (105382 PWs)   bands (ev):

   -62.9744 -62.9278 -62.9032 -62.8812 -62.8716 -62.8452 -62.8304 -62.8249
   -62.8203 -62.8075 -62.8024 -62.7238 -37.2788 -37.2353 -37.2083 -37.2019
   -37.1660 -37.1519 -37.1371 -37.1307 -37.1054 -37.0966 -37.0930 -37.0892
   -37.0797 -37.0569 -37.0473 -37.0380 -37.0345 -37.0245 -37.0148 -37.0069
   -36.9915 -36.9864 -36.9788 -36.9756 -36.9689 -36.9560 -36.9399 -36.9226
   -36.9207 -36.9034 -36.8848 -36.8728 -36.8605 -36.8354 -36.7550 -36.7284
   -22.8847 -15.9549 -15.2685 -15.1564 -15.1409 -14.9286 -14.8418 -14.7434
   -14.5179 -14.4824 -14.4511 -14.4037 -14.3697 -14.3415 -14.2617 -14.2519
   -14.1439 -14.1321 -14.0612 -13.9772 -13.8926 -13.8574 -13.8424 -13.4558
    -8.8769  -8.1359  -7.8756  -7.4611  -7.4040  -7.3143  -7.2794  -7.2146
    -7.1776  -7.1224  -6.9645  -6.8403  -6.7862  -6.7099  -6.6682  -6.5484
    -6.5254  -6.4821  -6.3106  -6.2710  -6.1680  -6.1054  -5.9819  -5.9509
    -5.8590  -5.7827  -5.7718  -5.7232  -5.7102  -5.6759  -5.6272  -5.5951
    -5.5061  -5.4774  -5.4422  -5.2776  -5.2337  -5.1646  -5.0981  -5.0805
    -5.0269  -5.0008  -4.8738  -4.7948  -4.6322  -4.5468  -4.4406  -4.3674
    -4.3266  -4.2236  -4.1471  -4.0549  -4.0488  -3.9612  -3.9039  -3.8552
    -3.8008  -3.7563  -3.7176  -3.6310  -3.5590  -3.5537  -3.5311  -3.4666
    -3.4225  -3.3912  -3.3013  -3.1627  -3.0883  -3.0402  -2.9373  -2.9006
    -2.8233  -2.7575  -2.7334  -2.7180  -2.6625  -2.6073  -2.5135  -2.4151
    -2.0591  -2.0079  -1.9294  -1.3488  -1.1710  -0.8372  -0.6889  -0.2089
    -0.1610  -0.1385  -0.0304   0.0378   0.0839   0.2148   0.2316   0.2509
     0.2745   0.3092   0.4199   0.4688   0.5154   0.5461   0.5675   0.6200
     0.6488   0.6958   0.7276   0.7408   0.7847   0.8674   0.8938   0.9365
     0.9742   1.0541   1.2059

     the Fermi energy is    -1.2599 ev

!    total energy              =   -2246.19148567 Ry
     estimated scf accuracy    <       0.00000044 Ry
     smearing contrib. (-TS)   =      -0.00736239 Ry
     internal energy E=F+TS    =   -2246.18412328 Ry

     The total energy is F=E-TS. E is the sum of the following terms:
     one-electron contribution =  -18498.58090201 Ry
     hartree contribution      =    9237.72884853 Ry
     xc contribution           =    -392.20706991 Ry
     ewald contribution        =    7416.73536858 Ry
     one-center paw contrib.   =      -9.86036846 Ry

     convergence has been achieved in  15 iterations

     negative rho (up, down):  1.982E-04 0.000E+00

     Forces acting on atoms (cartesian axes, Ry/au):

     atom    1 type  1   force =     0.01812816   -0.02200246    0.00939220
     atom    2 type  2   force =    -0.01614751    0.01439611   -0.00078841
     atom    3 type  2   force =    -0.01196613    0.00962135   -0.00337817
     atom    4 type  1   force =    -0.00595324    0.04429006   -0.06889019
     atom    5 type  2   force =    -0.07303204   -0.01035995   -0.04780091
     atom    6 type  2   force =    -0.00031739    0.01169852    0.00095444
     atom    7 type  1   force =     0.00961821   -0.01350299   -0.00838280
     atom    8 type  2   force =    -0.00037824    0.00222319    0.01689189
     atom    9 type  2   force =     0.00935128   -0.00155512    0.01186010
     atom   10 type  1   force =    -0.00946115    0.00535391   -0.02743164
     atom   11 type  2   force =     0.00551874   -0.00099155   -0.00675276
     atom   12 type  2   force =    -0.00116282    0.00120719    0.00615196
     atom   13 type  1   force =     0.00235004    0.00400316   -0.00264805
     atom   14 type  2   force =     0.00766524   -0.00117456    0.01329432
     atom   15 type  2   force =    -0.01372733    0.00265224   -0.01117622
     atom   16 type  1   force =    -0.01084961    0.00917945    0.00164309
     atom   17 type  2   force =     0.01611762   -0.00275697    0.00372497
     atom   18 type  2   force =    -0.00366526   -0.00293802    0.01372422
     atom   19 type  1   force =     0.00238168   -0.00910965   -0.01133689
     atom   20 type  2   force =     0.00312261   -0.00246529   -0.00179210
     atom   21 type  1   force =    -0.00638936    0.00586695   -0.00056734
     atom   22 type  2   force =    -0.00282976   -0.00177581   -0.00164727
     atom   23 type  2   force =    -0.00027869    0.00252443    0.01145034
     atom   24 type  1   force =    -0.00965580   -0.00480469   -0.02473649
     atom   25 type  2   force =     0.01875867    0.01574052    0.00817225
     atom   26 type  2   force =    -0.00713134   -0.00202769   -0.00636475
     atom   27 type  1   force =    -0.00529002    0.03578282   -0.01425594
     atom   28 type  2   force =     0.06644622   -0.06347581   -0.03344040
     atom   29 type  2   force =     0.00543880    0.00020408   -0.00350900
     atom   30 type  1   force =     0.00018702    0.00263971   -0.00796373
     atom   31 type  2   force =     0.00362530    0.00449311    0.01935429
     atom   32 type  2   force =    -0.00665721    0.00508853    0.00774451
     atom   33 type  1   force =     0.01349997   -0.00559345   -0.00982095
     atom   34 type  2   force =     0.00207775   -0.04462037   -0.00875685
     atom   35 type  2   force =    -0.00828195    0.00930082    0.01482749
     atom   36 type  3   force =     0.00888753    0.00288823    0.16225481
     The non-local contrib.  to forces
     atom    1 type  1   force =    -0.00663609    0.02909799   -0.01361167
     atom    2 type  2   force =    -0.01428047   -0.01221339   -0.26735368
     atom    3 type  2   force =    -0.01487951   -0.00239803    0.26791491
     atom    4 type  1   force =    -0.00123597   -0.00102488    0.00561476
     atom    5 type  2   force =     0.06429934   -0.02816077   -0.22181317
     atom    6 type  2   force =    -0.00089963    0.00963926    0.26184501
     atom    7 type  1   force =    -0.01628206    0.00015042   -0.01833127
     atom    8 type  2   force =     0.00350377    0.01789764   -0.25557476
     atom    9 type  2   force =     0.00456418   -0.01662994    0.28224996
     atom   10 type  1   force =     0.00266090    0.00530067   -0.00338487
     atom   11 type  2   force =     0.01583859    0.00396536   -0.25738450
     atom   12 type  2   force =    -0.01012919   -0.01825748    0.26224961
     atom   13 type  1   force =     0.00326197    0.01500764   -0.00876391
     atom   14 type  2   force =     0.00919973   -0.01145101   -0.26322034
     atom   15 type  2   force =    -0.01402434   -0.00556277    0.26020813
     atom   16 type  1   force =     0.01584407    0.01615520   -0.02102601
     atom   17 type  2   force =     0.01927822   -0.03031260   -0.24648788
     atom   18 type  2   force =    -0.00426301   -0.00480943    0.27318912
     atom   19 type  1   force =     0.01809390    0.00260142   -0.01040191
     atom   20 type  2   force =     0.00085833   -0.01689781    0.26422733
     atom   21 type  1   force =     0.00102476    0.02590036    0.00602349
     atom   22 type  2   force =    -0.00617251    0.00271121   -0.26070193
     atom   23 type  2   force =     0.00717241   -0.01352915    0.26783126
     atom   24 type  1   force =     0.01641325    0.03358343   -0.00601840
     atom   25 type  2   force =     0.01228158    0.00834923   -0.26055965
     atom   26 type  2   force =    -0.00089086   -0.01288489    0.26137668
     atom   27 type  1   force =     0.00331145    0.00868995    0.01320676
     atom   28 type  2   force =    -0.40039099    0.02094504    0.00340510
     atom   29 type  2   force =     0.00900226   -0.00029795    0.25818513
     atom   30 type  1   force =    -0.00550380    0.02050099    0.01195924
     atom   31 type  2   force =    -0.00599777    0.00066584   -0.25377440
     atom   32 type  2   force =    -0.00181908   -0.01382221    0.27512904
     atom   33 type  1   force =    -0.00680619    0.00874967    0.00578313
     atom   34 type  2   force =    -0.00053458   -0.03812276   -0.27285195
     atom   35 type  2   force =    -0.00290162   -0.01282301    0.27022281
     atom   36 type  3   force =     1.46719770    0.05851247   -1.03275008
     The ionic contribution  to forces
     atom    1 type  1   force =    -1.28630194   -1.64240038    2.87872577
     atom    2 type  2   force =    -0.82980727   -1.66979921   38.71252545
     atom    3 type  2   force =    -0.19057605   -0.35683897  -36.94379016
     atom    4 type  1   force =    -0.70983487    2.85276886   -6.22443515
     atom    5 type  2   force =    -5.16043546    1.67682716   36.94333813
     atom    6 type  2   force =     0.04852624   -0.52650769  -39.11360419
     atom    7 type  1   force =    -3.18425706   -1.70616093    1.16220137
     atom    8 type  2   force =    -1.23859412    2.16766167   36.60513142
     atom    9 type  2   force =     0.30316078    0.30105645  -38.86741363
     atom   10 type  1   force =    -1.16345972   -0.94523495    4.51002552
     atom   11 type  2   force =    -0.74435472   -1.54290999   38.99186351
     atom   12 type  2   force =     0.37355859    0.70131636  -38.37230834
     atom   13 type  1   force =     0.65962713    0.34821300    1.57259582
     atom   14 type  2   force =    -0.34758300   -0.53947595   38.30078466
     atom   15 type  2   force =     0.03419147   -0.25932257  -37.41035278
     atom   16 type  1   force =    -1.14538285    4.42834266   -1.38217874
     atom   17 type  2   force =     0.99674043    1.50765865   37.63717961
     atom   18 type  2   force =    -0.12364130   -0.65504879  -39.24968910
     atom   19 type  1   force =     2.79136315   -1.90781778   -0.34673255
     atom   20 type  2   force =     0.11879113   -0.01912511  -39.08528896
     atom   21 type  1   force =    -0.22248476   -0.25822265    0.26785766
     atom   22 type  2   force =     0.48154483   -1.68339286   38.30733715
     atom   23 type  2   force =    -0.07402029    0.67015030  -38.74605436
     atom   24 type  1   force =     1.02385836   -1.22371158    2.50607214
     atom   25 type  2   force =     1.21089941   -0.40532257   39.02689053
     atom   26 type  2   force =    -0.14033615   -0.15162493  -37.97314882
     atom   27 type  1   force =     1.61450992    1.02660585   -4.53679200
     atom   28 type  2   force =     7.28982925    1.06953060   33.85012767
     atom   29 type  2   force =     0.00004646   -0.45560131  -38.51101570
     atom   30 type  1   force =     0.14900212    0.37407044   -1.57665553
     atom   31 type  2   force =     1.81122223    0.62794828   37.01110048
     atom   32 type  2   force =    -0.34007271    0.19573511  -39.28194167
     atom   33 type  1   force =     1.12421747   -1.22898393    1.12635272
     atom   34 type  2   force =     0.38975142   -1.43254858   39.20447533
     atom   35 type  2   force =    -0.24248125    0.48781880  -38.34619292
     atom   36 type  3   force =    -3.27721685    0.17434655   47.35300965
     The local contribution  to forces
     atom    1 type  1   force =     1.31111325    1.59144843   -2.85611823
     atom    2 type  2   force =     0.82755153    1.69580862  -38.46680753
     atom    3 type  2   force =     0.19280911    0.36885608   36.69297989
     atom    4 type  1   force =     0.70507331   -2.80750354    6.14969063
     atom    5 type  2   force =     5.02599022   -1.66063336  -36.78850184
     atom    6 type  2   force =    -0.04824238    0.52956456   38.87325899
     atom    7 type  1   force =     3.21036717    1.69239610   -1.15281579
     atom    8 type  2   force =     1.23491969   -2.18295750  -36.35333490
     atom    9 type  2   force =    -0.29835463   -0.28685475   38.61793385
     atom   10 type  1   force =     1.15141745    0.94539895   -4.53460369
     atom   11 type  2   force =     0.73484170    1.53843310  -38.76193405
     atom   12 type  2   force =    -0.36558519   -0.68329394   38.13665576
     atom   13 type  1   force =    -0.66047160   -0.35912194   -1.56704657
     atom   14 type  2   force =     0.34659811    0.54974528  -38.04509530
     atom   15 type  2   force =    -0.03462586    0.26725658   37.15916435
     atom   16 type  1   force =     1.11883503   -4.43545335    1.40442413
     atom   17 type  2   force =    -0.99914337   -1.48170842  -37.40717820
     atom   18 type  2   force =     0.12416305    0.65736935   39.01091726
     atom   19 type  1   force =    -2.80727353    1.89597468    0.34514746
     atom   20 type  2   force =    -0.11661891    0.03294492   38.83998526
     atom   21 type  1   force =     0.21514772    0.23829797   -0.27514272
     atom   22 type  2   force =    -0.47840183    1.67932334  -38.06911806
     atom   23 type  2   force =     0.06708529   -0.65532603   38.51018930
     atom   24 type  1   force =    -1.05001700    1.18531979   -2.52510448
     atom   25 type  2   force =    -1.20429292    0.41341223  -38.77901664
     atom   26 type  2   force =     0.13433135    0.16182278   37.72584880
     atom   27 type  1   force =    -1.62319568   -0.99943588    4.50883165
     atom   28 type  2   force =    -6.84577415   -1.15356760  -33.89221349
     atom   29 type  2   force =    -0.00289081    0.45662622   38.26931648
     atom   30 type  1   force =    -0.14334672   -0.39201433    1.55612749
     atom   31 type  2   force =    -1.80212339   -0.62436775  -36.75865645
     atom   32 type  2   force =     0.33539239   -0.17758965   39.03533083
     atom   33 type  1   force =    -1.10406882    1.21468159   -1.14256518
     atom   34 type  2   force =    -0.38753192    1.42486375  -38.96168434
     atom   35 type  2   force =     0.23714507   -0.46675888   38.11151736
     atom   36 type  3   force =     1.83486706   -0.22942369  -46.16845646
     The core correction contribution to forces
     atom    1 type  1   force =     0.00000000    0.00000000    0.00000000
     atom    2 type  2   force =     0.00041584    0.00069661    0.02071635
     atom    3 type  2   force =     0.00068106   -0.00000093   -0.02076490
     atom    4 type  1   force =     0.00000000    0.00000000    0.00000000
     atom    5 type  2   force =    -0.00277603    0.00157597    0.01909684
     atom    6 type  2   force =     0.00026776   -0.00101774   -0.02082923
     atom    7 type  1   force =     0.00000000    0.00000000    0.00000000
     atom    8 type  2   force =    -0.00018698   -0.00048284    0.02054573
     atom    9 type  2   force =    -0.00002004    0.00088826   -0.02122061
     atom   10 type  1   force =     0.00000000    0.00000000    0.00000000
     atom   11 type  2   force =    -0.00071131   -0.00046579    0.02055422
     atom   12 type  2   force =     0.00103878    0.00143253   -0.02081409
     atom   13 type  1   force =     0.00000000    0.00000000    0.00000000
     atom   14 type  2   force =    -0.00047643    0.00011429    0.02067804
     atom   15 type  2   force =     0.00076637    0.00033969   -0.02053331
     atom   16 type  1   force =     0.00000000    0.00000000    0.00000000
     atom   17 type  2   force =    -0.00074410    0.00160368    0.02006648
     atom   18 type  2   force =     0.00011833   -0.00043710   -0.02102493
     atom   19 type  1   force =     0.00000000    0.00000000    0.00000000
     atom   20 type  2   force =     0.00009202    0.00060503   -0.02110240
     atom   21 type  1   force =     0.00000000    0.00000000    0.00000000
     atom   22 type  2   force =     0.00013829   -0.00042231    0.02064450
     atom   23 type  2   force =    -0.00055281    0.00120483   -0.02088432
     atom   24 type  1   force =     0.00000000    0.00000000    0.00000000
     atom   25 type  2   force =    -0.00024109   -0.00062803    0.02070465
     atom   26 type  2   force =    -0.00027156    0.00066039   -0.02076190
     atom   27 type  1   force =     0.00000000    0.00000000    0.00000000
     atom   28 type  2   force =     0.02274180   -0.00038702    0.00529091
     atom   29 type  2   force =    -0.00073190   -0.00052485   -0.02034553
     atom   30 type  1   force =     0.00000000    0.00000000    0.00000000
     atom   31 type  2   force =     0.00045297    0.00019507    0.02049579
     atom   32 type  2   force =    -0.00016659    0.00078824   -0.02107390
     atom   33 type  1   force =     0.00000000    0.00000000    0.00000000
     atom   34 type  2   force =     0.00035313    0.00124095    0.02112907
     atom   35 type  2   force =    -0.00006206    0.00106519   -0.02105013
     atom   36 type  3   force =    -0.01589079   -0.00056894    0.01022306
     The Hubbard contrib.    to forces
     atom    1 type  1   force =     0.00000000    0.00000000    0.00000000
     atom    2 type  2   force =     0.00000000    0.00000000    0.00000000
     atom    3 type  2   force =     0.00000000    0.00000000    0.00000000
     atom    4 type  1   force =     0.00000000    0.00000000    0.00000000
     atom    5 type  2   force =     0.00000000    0.00000000    0.00000000
     atom    6 type  2   force =     0.00000000    0.00000000    0.00000000
     atom    7 type  1   force =     0.00000000    0.00000000    0.00000000
     atom    8 type  2   force =     0.00000000    0.00000000    0.00000000
     atom    9 type  2   force =     0.00000000    0.00000000    0.00000000
     atom   10 type  1   force =     0.00000000    0.00000000    0.00000000
     atom   11 type  2   force =     0.00000000    0.00000000    0.00000000
     atom   12 type  2   force =     0.00000000    0.00000000    0.00000000
     atom   13 type  1   force =     0.00000000    0.00000000    0.00000000
     atom   14 type  2   force =     0.00000000    0.00000000    0.00000000
     atom   15 type  2   force =     0.00000000    0.00000000    0.00000000
     atom   16 type  1   force =     0.00000000    0.00000000    0.00000000
     atom   17 type  2   force =     0.00000000    0.00000000    0.00000000
     atom   18 type  2   force =     0.00000000    0.00000000    0.00000000
     atom   19 type  1   force =     0.00000000    0.00000000    0.00000000
     atom   20 type  2   force =     0.00000000    0.00000000    0.00000000
     atom   21 type  1   force =     0.00000000    0.00000000    0.00000000
     atom   22 type  2   force =     0.00000000    0.00000000    0.00000000
     atom   23 type  2   force =     0.00000000    0.00000000    0.00000000
     atom   24 type  1   force =     0.00000000    0.00000000    0.00000000
     atom   25 type  2   force =     0.00000000    0.00000000    0.00000000
     atom   26 type  2   force =     0.00000000    0.00000000    0.00000000
     atom   27 type  1   force =     0.00000000    0.00000000    0.00000000
     atom   28 type  2   force =     0.00000000    0.00000000    0.00000000
     atom   29 type  2   force =     0.00000000    0.00000000    0.00000000
     atom   30 type  1   force =     0.00000000    0.00000000    0.00000000
     atom   31 type  2   force =     0.00000000    0.00000000    0.00000000
     atom   32 type  2   force =     0.00000000    0.00000000    0.00000000
     atom   33 type  1   force =     0.00000000    0.00000000    0.00000000
     atom   34 type  2   force =     0.00000000    0.00000000    0.00000000
     atom   35 type  2   force =     0.00000000    0.00000000    0.00000000
     atom   36 type  3   force =     0.00000000    0.00000000    0.00000000
     The SCF correction term to forces
     atom    1 type  1   force =    -0.00004832   -0.00014783    0.00038738
     atom    2 type  2   force =    -0.00002840   -0.00009585    0.00012205
     atom    3 type  2   force =    -0.00000202    0.00000385    0.00027315
     atom    4 type  1   force =     0.00004301    0.00005028    0.00023063
     atom    5 type  2   force =    -0.00011138    0.00003172    0.00007019
     atom    6 type  2   force =     0.00002934    0.00002078    0.00027492
     atom    7 type  1   force =    -0.00021112    0.00011208    0.00055395
     atom    8 type  2   force =    -0.00002188    0.00010488    0.00011546
     atom    9 type  2   force =    -0.00000029   -0.00001447    0.00030160
     atom   10 type  1   force =    -0.00008106   -0.00011010    0.00052245
     atom   11 type  2   force =    -0.00009679   -0.00001356    0.00013912
     atom   12 type  2   force =    -0.00004709    0.00001039    0.00036008
     atom   13 type  1   force =    -0.00006873   -0.00009488    0.00055768
     atom   14 type  2   force =    -0.00007446   -0.00010652    0.00013832
     atom   15 type  2   force =    -0.00003626   -0.00005802    0.00032845
     atom   16 type  1   force =    -0.00014714    0.00013560    0.00041478
     atom   17 type  2   force =    -0.00001483    0.00000239    0.00013603
     atom   18 type  2   force =    -0.00004361   -0.00001138    0.00032293
     atom   19 type  1   force =     0.00019688    0.00013269    0.00064117
     atom   20 type  2   force =    -0.00000123    0.00000835    0.00037775
     atom   21 type  1   force =    -0.00007836   -0.00010806    0.00068528
     atom   22 type  2   force =     0.00006019    0.00000548    0.00018213
     atom   23 type  2   force =     0.00003542    0.00002514    0.00035952
     atom   24 type  1   force =     0.00008833    0.00000434    0.00030531
     atom   25 type  2   force =     0.00011042   -0.00006967    0.00014443
     atom   26 type  2   force =     0.00003461   -0.00000038    0.00031155
     atom   27 type  1   force =     0.00008301   -0.00007643    0.00048872
     atom   28 type  2   force =     0.00003904    0.00000384   -0.00005953
     atom   29 type  2   force =     0.00001151    0.00000263    0.00034168
     atom   30 type  1   force =     0.00003415    0.00008328    0.00059613
     atom   31 type  2   force =     0.00006999    0.00005233    0.00017993
     atom   32 type  2   force =     0.00000750   -0.00002229    0.00029128
     atom   33 type  1   force =     0.00015624   -0.00004011    0.00059944
     atom   34 type  2   force =     0.00003843   -0.00005306    0.00016609
     atom   35 type  2   force =     0.00001663   -0.00000060    0.00032145
     atom   36 type  3   force =    -0.00007086    0.00002250    0.00021970

     Total force =     0.249417     Total SCF correction =     0.002260

     BFGS Geometry Optimization
     Energy error            =      0.0E+00 Ry
     Gradient error          =      1.6E-01 Ry/Bohr

     number of scf cycles    =   1
     number of bfgs steps    =   0

     energy             new  =   -2246.1914856656 Ry

     new trust radius        =       0.1625236992 bohr
     new conv_thr            =       0.0000010000 Ry


ATOMIC_POSITIONS (angstrom)
Mo            6.5841414189        1.7761630290        2.8286131688
S             8.1681644446        0.8173221190        4.4341211417
S             8.1869008835        0.8163331416        1.2760957736
Mo            8.0920122441        4.5184942330        2.6813632751
S             6.4612623654        3.7169292400        4.3213654946
S             6.5531818406        3.5179281452        1.1217852971
Mo            6.4950714319        7.2112918117        2.6674484972
S             8.0815275741        6.3450474517        4.2514003640
S             8.0858661334        6.3038793811        1.0901390933
Mo            8.1556124209        9.9050135807        2.8289455599
S             6.4980879890        8.9424021073        4.3795321246
S             6.6173318629        9.0493500299        1.1431627799
Mo            3.4229032505        1.7490742297        2.7750698747
S             4.9792217588        0.8163196585        4.3575681453
S             5.0505695616        0.8476656140        1.2207442593
Mo            4.9740153163        4.5180355578        2.6337540366
S             3.4363707386        3.6701407617        4.2816807480
S             3.4359810064        3.5466739655        1.0656142280
Mo            3.4551220711        7.2115039188        2.6246776391
S             4.9848866096        6.3256277131        1.0363053931
Mo            5.0088828170        9.9047047089        2.7431007347
S             3.4694606735        8.9428115513        4.3247196127
S             3.4082816897        9.0663258553        1.1021275573
Mo            0.2909808595        1.7449669975        2.8363547212
S             1.8603888759        0.8010235289        4.4025340062
S             1.8570262943        0.8533529118        1.2060327741
Mo            1.8578919522        4.5146022139        2.6526534629
S             0.3073756720        3.6208088767        4.3198882010
S             0.2341092972        3.5273572188        1.1701609999
Mo            0.2712511203        7.2180429690        2.6974822053
S             1.9041566720        6.3151764848        4.2326859731
S             1.8587153686        6.3130365439        1.0486575013
Mo            1.8514905415        9.9371792298        2.7677492295
S             0.2970123979        9.0663857446        4.4092355390
S             0.2723887791        9.0484474984        1.1582471519
O             8.4107119681        3.6444950542        5.1997310125



     Writing config-only to output data dir ./MoS2-V-O.save/
     NEW-OLD atomic charge density approx. for the potential

     negative rho (up, down):  1.492E-04 0.000E+00

     total cpu time spent up to now is      118.3 secs

     Self-consistent Calculation

     iteration #  1     ecut=    80.00 Ry     beta= 0.70
     Davidson diagonalization with overlap
     ethr =  1.00E-06,  avg # of iterations = 16.0

     negative rho (up, down):  9.375E-04 0.000E+00

     total cpu time spent up to now is      139.8 secs

     total energy              =   -2246.23403225 Ry
     estimated scf accuracy    <       0.01597371 Ry

     iteration #  2     ecut=    80.00 Ry     beta= 0.70
     Davidson diagonalization with overlap
     ethr =  5.12E-06,  avg # of iterations =  5.0

     negative rho (up, down):  1.359E-03 0.000E+00

     total cpu time spent up to now is      158.3 secs

     total energy              =   -2246.23556612 Ry
     estimated scf accuracy    <       0.00947627 Ry

     iteration #  3     ecut=    80.00 Ry     beta= 0.70
     Davidson diagonalization with overlap
     ethr =  3.04E-06,  avg # of iterations =  4.0

     negative rho (up, down):  2.448E-03 0.000E+00

     total cpu time spent up to now is      172.8 secs

     total energy              =   -2246.23618904 Ry
     estimated scf accuracy    <       0.00105012 Ry

     iteration #  4     ecut=    80.00 Ry     beta= 0.70
     Davidson diagonalization with overlap
     ethr =  3.37E-07,  avg # of iterations =  3.0

     negative rho (up, down):  2.522E-03 0.000E+00

     total cpu time spent up to now is      185.5 secs

     total energy              =   -2246.23628040 Ry
     estimated scf accuracy    <       0.00038045 Ry

     iteration #  5     ecut=    80.00 Ry     beta= 0.70
     Davidson diagonalization with overlap
     ethr =  1.22E-07,  avg # of iterations =  2.0

     negative rho (up, down):  2.411E-03 0.000E+00

     total cpu time spent up to now is      197.1 secs

     total energy              =   -2246.23626468 Ry
     estimated scf accuracy    <       0.00015069 Ry

     iteration #  6     ecut=    80.00 Ry     beta= 0.70
     Davidson diagonalization with overlap
     ethr =  4.83E-08,  avg # of iterations =  5.0

     negative rho (up, down):  2.105E-03 0.000E+00

     total cpu time spent up to now is      208.7 secs

     total energy              =   -2246.23628420 Ry
     estimated scf accuracy    <       0.00002246 Ry

     iteration #  7     ecut=    80.00 Ry     beta= 0.70
     Davidson diagonalization with overlap
     ethr =  7.20E-09,  avg # of iterations =  5.0

     negative rho (up, down):  1.653E-03 0.000E+00

     total cpu time spent up to now is      219.8 secs

     total energy              =   -2246.23628439 Ry
     estimated scf accuracy    <       0.00000684 Ry

     iteration #  8     ecut=    80.00 Ry     beta= 0.70
     Davidson diagonalization with overlap
     ethr =  2.19E-09,  avg # of iterations =  4.0

     negative rho (up, down):  9.762E-04 0.000E+00

     total cpu time spent up to now is      230.0 secs

     total energy              =   -2246.23628137 Ry
     estimated scf accuracy    <       0.00000260 Ry

     iteration #  9     ecut=    80.00 Ry     beta= 0.70
     Davidson diagonalization with overlap
     ethr =  8.32E-10,  avg # of iterations =  4.0

     negative rho (up, down):  7.642E-04 0.000E+00

     total cpu time spent up to now is      241.0 secs

     total energy              =   -2246.23628048 Ry
     estimated scf accuracy    <       0.00000120 Ry

     iteration # 10     ecut=    80.00 Ry     beta= 0.70
     Davidson diagonalization with overlap
     ethr =  3.86E-10,  avg # of iterations =  2.0

     negative rho (up, down):  1.990E-04 0.000E+00

     total cpu time spent up to now is      245.1 secs

     End of self-consistent calculation

          k = 0.0000 0.0000 0.0000 (105382 PWs)   bands (ev):

   -63.0465 -62.9380 -62.9341 -62.9218 -62.9050 -62.8783 -62.8617 -62.8584
   -62.8495 -62.8428 -62.8281 -62.7727 -37.3374 -37.2925 -37.2474 -37.2292
   -37.2099 -37.1892 -37.1692 -37.1497 -37.1418 -37.1303 -37.1235 -37.1158
   -37.1005 -37.0883 -37.0821 -37.0741 -37.0696 -37.0605 -37.0522 -37.0428
   -37.0263 -37.0218 -37.0150 -37.0015 -36.9993 -36.9813 -36.9690 -36.9646
   -36.9579 -36.9387 -36.9306 -36.9096 -36.8991 -36.8742 -36.7874 -36.7721
   -21.6497 -15.9917 -15.2200 -15.1925 -15.1363 -14.9645 -14.8281 -14.7370
   -14.5561 -14.5260 -14.4664 -14.4373 -14.4131 -14.3843 -14.2981 -14.2773
   -14.1838 -14.1652 -14.1001 -13.9964 -13.9468 -13.8995 -13.8706 -13.5961
    -8.3717  -7.9165  -7.6617  -7.4277  -7.4002  -7.3401  -7.3199  -7.2357
    -7.2152  -7.0734  -6.9619  -6.8721  -6.8017  -6.7314  -6.7027  -6.5660
    -6.5302  -6.5153  -6.3396  -6.3022  -6.1708  -6.1012  -5.9928  -5.9748
    -5.8839  -5.8177  -5.8068  -5.7599  -5.7473  -5.7202  -5.6640  -5.6403
    -5.5355  -5.4948  -5.4768  -5.2882  -5.2486  -5.1909  -5.1248  -5.1159
    -5.0493  -5.0367  -4.9082  -4.8039  -4.6529  -4.5861  -4.4152  -4.3971
    -4.3558  -4.2564  -4.1786  -4.1007  -4.0665  -4.0024  -3.9118  -3.8850
    -3.8201  -3.7439  -3.7188  -3.6697  -3.6018  -3.5725  -3.5589  -3.5229
    -3.4829  -3.4261  -3.3386  -3.2067  -3.0837  -3.0253  -2.9340  -2.9204
    -2.8577  -2.8080  -2.7649  -2.7566  -2.7070  -2.6417  -2.5510  -2.4460
    -2.1054  -2.0521  -1.9772  -1.4084  -1.1490  -0.8467  -0.7174  -0.2321
    -0.2164  -0.1614  -0.0611   0.0233   0.0509   0.1823   0.2006   0.2121
     0.2576   0.2743   0.3813   0.4338   0.4847   0.5162   0.5332   0.5838
     0.6191   0.6774   0.6950   0.7135   0.7592   0.8352   0.8741   0.9230
     0.9346   1.0067   1.1887

     the Fermi energy is    -1.2787 ev

!    total energy              =   -2246.23627881 Ry
     estimated scf accuracy    <       0.00000052 Ry
     smearing contrib. (-TS)   =      -0.00455010 Ry
     internal energy E=F+TS    =   -2246.23172871 Ry

     The total energy is F=E-TS. E is the sum of the following terms:
     one-electron contribution =  -18486.08354035 Ry
     hartree contribution      =    9231.21447408 Ry
     xc contribution           =    -392.12015527 Ry
     ewald contribution        =    7410.62206593 Ry
     one-center paw contrib.   =      -9.86457311 Ry

     convergence has been achieved in  10 iterations

     negative rho (up, down):  1.990E-04 0.000E+00

     Forces acting on atoms (cartesian axes, Ry/au):

     atom    1 type  1   force =     0.00406159   -0.01278188   -0.00231668
     atom    2 type  2   force =    -0.00948338    0.00991917   -0.00243653
     atom    3 type  2   force =    -0.01124570    0.00766279   -0.00968334
     atom    4 type  1   force =    -0.00197906    0.01710530   -0.02461528
     atom    5 type  2   force =    -0.02383449   -0.00336783   -0.03766011
     atom    6 type  2   force =    -0.00399774    0.00601414   -0.00291789
     atom    7 type  1   force =     0.00798758   -0.00719668   -0.00075870
     atom    8 type  2   force =     0.00079076   -0.00377264    0.00928131
     atom    9 type  2   force =     0.00787607    0.00786481   -0.00283752
     atom   10 type  1   force =    -0.00371992    0.00525760   -0.01028990
     atom   11 type  2   force =     0.00481551   -0.00096943   -0.00941658
     atom   12 type  2   force =    -0.00339785    0.00050931    0.00172099
     atom   13 type  1   force =     0.00268268    0.00318834   -0.00020779
     atom   14 type  2   force =     0.00587607   -0.00187322    0.00953753
     atom   15 type  2   force =    -0.00883003    0.00265734   -0.00702813
     atom   16 type  1   force =    -0.01175940    0.00943898   -0.00159055
     atom   17 type  2   force =     0.00962920    0.00070194   -0.00113065
     atom   18 type  2   force =    -0.00421998   -0.00309186    0.00804622
     atom   19 type  1   force =     0.00108031   -0.00555351   -0.00370470
     atom   20 type  2   force =     0.00330178   -0.00274517   -0.00647515
     atom   21 type  1   force =    -0.00443656    0.00305317    0.00171055
     atom   22 type  2   force =    -0.00167580   -0.00263511   -0.00263379
     atom   23 type  2   force =     0.00096596    0.00163126    0.00587227
     atom   24 type  1   force =    -0.00686910   -0.01166524   -0.01367335
     atom   25 type  2   force =     0.01284684    0.01058709    0.00080397
     atom   26 type  2   force =    -0.00394022   -0.00183873   -0.00701160
     atom   27 type  1   force =    -0.00294125    0.02395306    0.00583717
     atom   28 type  2   force =    -0.04211375   -0.04397439    0.01224771
     atom   29 type  2   force =     0.00453505    0.00351630   -0.00955064
     atom   30 type  1   force =    -0.00085867   -0.00318230    0.00228253
     atom   31 type  2   force =     0.00187135    0.00484514    0.01400493
     atom   32 type  2   force =    -0.00443420    0.00716715   -0.00057614
     atom   33 type  1   force =     0.00701844   -0.00138606    0.00003871
     atom   34 type  2   force =     0.00001736   -0.03303797   -0.01374880
     atom   35 type  2   force =    -0.00562379    0.00905784    0.00795447
     atom   36 type  3   force =     0.08000434    0.00494132    0.09092547
     The non-local contrib.  to forces
     atom    1 type  1   force =    -0.00485852    0.02597395   -0.01546383
     atom    2 type  2   force =    -0.00909449   -0.01504534   -0.26931085
     atom    3 type  2   force =    -0.01249630   -0.00537022    0.26288950
     atom    4 type  1   force =    -0.00571128    0.00605313    0.01430453
     atom    5 type  2   force =     0.06270511   -0.02315663   -0.20985037
     atom    6 type  2   force =    -0.00304799    0.00770657    0.26302957
     atom    7 type  1   force =    -0.01359202   -0.00298386   -0.01978965
     atom    8 type  2   force =     0.00511534    0.01766762   -0.26171310
     atom    9 type  2   force =     0.00342611   -0.01096833    0.27192135
     atom   10 type  1   force =     0.00019888    0.00600076   -0.00308996
     atom   11 type  2   force =     0.01446506    0.00364321   -0.26029712
     atom   12 type  2   force =    -0.01119556   -0.01884437    0.26112026
     atom   13 type  1   force =     0.00498108    0.01482702   -0.00933868
     atom   14 type  2   force =     0.00746957   -0.01082656   -0.26667966
     atom   15 type  2   force =    -0.01032622   -0.00547084    0.26301668
     atom   16 type  1   force =     0.01417564    0.01750431   -0.02477882
     atom   17 type  2   force =     0.01109468   -0.02861652   -0.25255974
     atom   18 type  2   force =    -0.00581028   -0.00287906    0.27150287
     atom   19 type  1   force =     0.01978263    0.00353994   -0.01156234
     atom   20 type  2   force =     0.00095545   -0.01616128    0.26192940
     atom   21 type  1   force =     0.00012026    0.02661540    0.00488052
     atom   22 type  2   force =    -0.00440558    0.00143161   -0.26300053
     atom   23 type  2   force =     0.00846144   -0.01422660    0.26421244
     atom   24 type  1   force =     0.01427238    0.03036966   -0.00750929
     atom   25 type  2   force =     0.00793165    0.00444803   -0.26653329
     atom   26 type  2   force =     0.00123508   -0.01253138    0.26243952
     atom   27 type  1   force =     0.00749950    0.00814095    0.00827139
     atom   28 type  2   force =    -0.42897768    0.05765883    0.05714793
     atom   29 type  2   force =     0.00776280    0.00269640    0.25773373
     atom   30 type  1   force =    -0.00705940    0.01937854    0.01046289
     atom   31 type  2   force =    -0.00866958    0.00134069   -0.25851839
     atom   32 type  2   force =    -0.00003598   -0.01242663    0.26976838
     atom   33 type  1   force =    -0.00544559    0.00651891    0.00435631
     atom   34 type  2   force =    -0.00173641   -0.02989869   -0.27787607
     atom   35 type  2   force =    -0.00093129   -0.01340139    0.26709896
     atom   36 type  3   force =     1.38307573   -0.00682607   -0.96942534
     The ionic contribution  to forces
     atom    1 type  1   force =    -1.28861131   -1.21494540    3.24229856
     atom    2 type  2   force =    -0.64033486   -1.67640169   38.74827388
     atom    3 type  2   force =    -0.19212035   -0.31117628  -37.00423852
     atom    4 type  1   force =    -0.48602148    1.89358644   -6.45818667
     atom    5 type  2   force =    -4.28945109    1.70385600   36.63480684
     atom    6 type  2   force =    -0.06248235   -0.72929066  -38.97139624
     atom    7 type  1   force =    -3.31248720   -1.44453283    1.24378154
     atom    8 type  2   force =    -1.19882098    1.89170393   36.80425294
     atom    9 type  2   force =     0.30295208    0.49536414  -38.97382710
     atom   10 type  1   force =    -0.93897470   -0.88168011    4.22939246
     atom   11 type  2   force =    -0.71813827   -1.54699507   38.94326418
     atom   12 type  2   force =     0.28100986    0.67986039  -38.32327946
     atom   13 type  1   force =     0.57712190    0.35657031    1.61996963
     atom   14 type  2   force =    -0.38219146   -0.52300890   38.37617524
     atom   15 type  2   force =     0.07487979   -0.18701196  -37.41644822
     atom   16 type  1   force =    -1.04881621    4.23975682   -1.28152695
     atom   17 type  2   force =     0.84026679    1.48994029   37.63307682
     atom   18 type  2   force =    -0.12369963   -0.71338348  -39.13956370
     atom   19 type  1   force =     2.86341596   -1.71531781   -0.43849651
     atom   20 type  2   force =     0.11566485    0.00759278  -39.13898493
     atom   21 type  1   force =    -0.16748275   -0.29462195    0.43177028
     atom   22 type  2   force =     0.49366982   -1.69450182   38.33116158
     atom   23 type  2   force =    -0.03689137    0.66389382  -38.70787229
     atom   24 type  1   force =     0.98706716   -1.13025723    2.21514879
     atom   25 type  2   force =     1.04842431   -0.45352374   38.99424287
     atom   26 type  2   force =    -0.10425335   -0.12904434  -37.92938310
     atom   27 type  1   force =     1.48745449    0.63511515   -4.54281612
     atom   28 type  2   force =     6.03818596    1.05031026   33.72946231
     atom   29 type  2   force =     0.05514683   -0.56095177  -38.40978871
     atom   30 type  1   force =     0.15205271    0.41718513   -1.44391535
     atom   31 type  2   force =     1.75742371    0.60404927   37.21295095
     atom   32 type  2   force =    -0.31310723    0.26249424  -39.34579091
     atom   33 type  1   force =     0.89153225   -0.96949162    1.24502917
     atom   34 type  2   force =     0.33125722   -1.20645836   39.12343872
     atom   35 type  2   force =    -0.19359634    0.52002642  -38.25672406
     atom   36 type  3   force =    -2.80004478    0.47128963   47.02374211
     The local contribution  to forces
     atom    1 type  1   force =     1.29772495    1.17585687   -3.22860061
     atom    2 type  2   force =     0.63944166    1.70057554  -38.50204188
     atom    3 type  2   force =     0.19275187    0.32400236   36.75228262
     atom    4 type  1   force =     0.48942115   -1.88208138    6.41948765
     atom    5 type  2   force =     4.20522084   -1.68544786  -36.48091138
     atom    6 type  2   force =     0.06138658    0.72873140   38.72610458
     atom    7 type  1   force =     3.33427739    1.44017914   -1.22453452
     atom    8 type  2   force =     1.19460803   -1.91245990  -36.55395512
     atom    9 type  2   force =    -0.29860872   -0.47737086   38.72010620
     atom   10 type  1   force =     0.93473382    0.88091958   -4.23656932
     atom   11 type  2   force =     0.70905910    1.54286496  -38.71275463
     atom   12 type  2   force =    -0.27419234   -0.66188646   38.08462709
     atom   13 type  1   force =    -0.57918376   -0.36865898   -1.61069630
     atom   14 type  2   force =     0.38111407    0.53176432  -38.12048519
     atom   15 type  2   force =    -0.07401690    0.19463910   37.16696089
     atom   16 type  1   force =     1.02331975   -4.24761383    1.30503316
     atom   17 type  2   force =    -0.84112281   -1.46216608  -37.40155556
     atom   18 type  2   force =     0.12511131    0.71366619   38.89685769
     atom   19 type  1   force =    -2.88202247    1.70651337    0.44653550
     atom   20 type  2   force =    -0.11333587    0.00531501   38.89155166
     atom   21 type  1   force =     0.16292493    0.27111714   -0.43469545
     atom   22 type  2   force =    -0.49095609    1.69090861  -38.09126404
     atom   23 type  2   force =     0.02998752   -0.64918781   38.47028008
     atom   24 type  1   force =    -1.00862683    1.08794298   -2.22115234
     atom   25 type  2   force =    -1.04328382    0.45999125  -38.74744261
     atom   26 type  2   force =     0.09944660    0.13899516   37.68055678
     atom   27 type  1   force =    -1.49791534   -0.61895637    4.54027463
     atom   28 type  2   force =    -5.67611912   -1.14976572  -33.77609182
     atom   29 type  2   force =    -0.05789537    0.56255035   38.16258020
     atom   30 type  1   force =    -0.14618268   -0.43971820    1.43593440
     atom   31 type  2   force =    -1.74746857   -0.60063601  -36.96087375
     atom   32 type  2   force =     0.30893572   -0.24368569   39.09633608
     atom   33 type  1   force =    -0.87877758    0.96141197   -1.24925288
     atom   34 type  2   force =    -0.32984745    1.20229145  -38.88030198
     atom   35 type  2   force =     0.18898373   -0.49864601   38.01845711
     atom   36 type  3   force =     1.51223716   -0.45965605  -45.97297679
     The core correction contribution to forces
     atom    1 type  1   force =     0.00000000    0.00000000    0.00000000
     atom    2 type  2   force =     0.00031848    0.00083321    0.02094392
     atom    3 type  2   force =     0.00053633    0.00014542   -0.02067515
     atom    4 type  1   force =     0.00000000    0.00000000    0.00000000
     atom    5 type  2   force =    -0.00214365    0.00137311    0.01873947
     atom    6 type  2   force =     0.00022683   -0.00109704   -0.02081407
     atom    7 type  1   force =     0.00000000    0.00000000    0.00000000
     atom    8 type  2   force =    -0.00019955   -0.00071043    0.02093297
     atom    9 type  2   force =     0.00004793    0.00084744   -0.02101028
     atom   10 type  1   force =     0.00000000    0.00000000    0.00000000
     atom   11 type  2   force =    -0.00061324   -0.00047345    0.02064224
     atom   12 type  2   force =     0.00099491    0.00141228   -0.02078256
     atom   13 type  1   force =     0.00000000    0.00000000    0.00000000
     atom   14 type  2   force =    -0.00042921    0.00010012    0.02082269
     atom   15 type  2   force =     0.00064105    0.00037843   -0.02064056
     atom   16 type  1   force =     0.00000000    0.00000000    0.00000000
     atom   17 type  2   force =    -0.00047680    0.00152361    0.02030385
     atom   18 type  2   force =     0.00019338   -0.00055411   -0.02098965
     atom   19 type  1   force =     0.00000000    0.00000000    0.00000000
     atom   20 type  2   force =     0.00011442    0.00058675   -0.02103883
     atom   21 type  1   force =     0.00000000    0.00000000    0.00000000
     atom   22 type  2   force =     0.00006347   -0.00041641    0.02075125
     atom   23 type  2   force =    -0.00056813    0.00121485   -0.02078702
     atom   24 type  1   force =     0.00000000    0.00000000    0.00000000
     atom   25 type  2   force =    -0.00013328   -0.00045848    0.02090369
     atom   26 type  2   force =    -0.00032060    0.00063040   -0.02080817
     atom   27 type  1   force =     0.00000000    0.00000000    0.00000000
     atom   28 type  2   force =     0.02446107   -0.00213239    0.00229397
     atom   29 type  2   force =    -0.00058079   -0.00073903   -0.02031702
     atom   30 type  1   force =     0.00000000    0.00000000    0.00000000
     atom   31 type  2   force =     0.00056896    0.00022970    0.02072837
     atom   32 type  2   force =    -0.00026460    0.00083658   -0.02098441
     atom   33 type  1   force =     0.00000000    0.00000000    0.00000000
     atom   34 type  2   force =     0.00034598    0.00094812    0.02130814
     atom   35 type  2   force =    -0.00012458    0.00109372   -0.02095575
     atom   36 type  3   force =    -0.01549134    0.00013350    0.00991360
     The Hubbard contrib.    to forces
     atom    1 type  1   force =     0.00000000    0.00000000    0.00000000
     atom    2 type  2   force =     0.00000000    0.00000000    0.00000000
     atom    3 type  2   force =     0.00000000    0.00000000    0.00000000
     atom    4 type  1   force =     0.00000000    0.00000000    0.00000000
     atom    5 type  2   force =     0.00000000    0.00000000    0.00000000
     atom    6 type  2   force =     0.00000000    0.00000000    0.00000000
     atom    7 type  1   force =     0.00000000    0.00000000    0.00000000
     atom    8 type  2   force =     0.00000000    0.00000000    0.00000000
     atom    9 type  2   force =     0.00000000    0.00000000    0.00000000
     atom   10 type  1   force =     0.00000000    0.00000000    0.00000000
     atom   11 type  2   force =     0.00000000    0.00000000    0.00000000
     atom   12 type  2   force =     0.00000000    0.00000000    0.00000000
     atom   13 type  1   force =     0.00000000    0.00000000    0.00000000
     atom   14 type  2   force =     0.00000000    0.00000000    0.00000000
     atom   15 type  2   force =     0.00000000    0.00000000    0.00000000
     atom   16 type  1   force =     0.00000000    0.00000000    0.00000000
     atom   17 type  2   force =     0.00000000    0.00000000    0.00000000
     atom   18 type  2   force =     0.00000000    0.00000000    0.00000000
     atom   19 type  1   force =     0.00000000    0.00000000    0.00000000
     atom   20 type  2   force =     0.00000000    0.00000000    0.00000000
     atom   21 type  1   force =     0.00000000    0.00000000    0.00000000
     atom   22 type  2   force =     0.00000000    0.00000000    0.00000000
     atom   23 type  2   force =     0.00000000    0.00000000    0.00000000
     atom   24 type  1   force =     0.00000000    0.00000000    0.00000000
     atom   25 type  2   force =     0.00000000    0.00000000    0.00000000
     atom   26 type  2   force =     0.00000000    0.00000000    0.00000000
     atom   27 type  1   force =     0.00000000    0.00000000    0.00000000
     atom   28 type  2   force =     0.00000000    0.00000000    0.00000000
     atom   29 type  2   force =     0.00000000    0.00000000    0.00000000
     atom   30 type  1   force =     0.00000000    0.00000000    0.00000000
     atom   31 type  2   force =     0.00000000    0.00000000    0.00000000
     atom   32 type  2   force =     0.00000000    0.00000000    0.00000000
     atom   33 type  1   force =     0.00000000    0.00000000    0.00000000
     atom   34 type  2   force =     0.00000000    0.00000000    0.00000000
     atom   35 type  2   force =     0.00000000    0.00000000    0.00000000
     atom   36 type  3   force =     0.00000000    0.00000000    0.00000000
     The SCF correction term to forces
     atom    1 type  1   force =    -0.00019583    0.00033198   -0.00052975
     atom    2 type  2   force =     0.00018352   -0.00004328   -0.00028056
     atom    3 type  2   force =     0.00008045    0.00006078    0.00007926
     atom    4 type  1   force =     0.00033025   -0.00045360   -0.00019975
     atom    5 type  2   force =    -0.00016800    0.00000682   -0.00042364
     atom    6 type  2   force =    -0.00008311   -0.00003684    0.00017931
     atom    7 type  1   force =    -0.00021289    0.00014016   -0.00019502
     atom    8 type  2   force =     0.00008562    0.00002542   -0.00021535
     atom    9 type  2   force =     0.00005637   -0.00000830   -0.00000665
     atom   10 type  1   force =     0.00031977    0.00001666   -0.00000204
     atom   11 type  2   force =     0.00004056   -0.00000980   -0.00025022
     atom   12 type  2   force =    -0.00001702   -0.00003325    0.00005670
     atom   13 type  1   force =    -0.00023885    0.00044927   -0.00012141
     atom   14 type  2   force =    -0.00008919    0.00009709   -0.00027450
     atom   15 type  2   force =    -0.00001005    0.00012188    0.00010410
     atom   16 type  1   force =    -0.00044088   -0.00020904   -0.00029690
     atom   17 type  2   force =    -0.00013497    0.00001992   -0.00037498
     atom   18 type  2   force =    -0.00001706    0.00005789    0.00026005
     atom   19 type  1   force =    -0.00009812   -0.00028973   -0.00016031
     atom   20 type  2   force =    -0.00009937   -0.00007915    0.00008859
     atom   21 type  1   force =    -0.00000130   -0.00005814   -0.00022376
     atom   22 type  2   force =    -0.00004972   -0.00005783   -0.00026101
     atom   23 type  2   force =    -0.00002580   -0.00006371    0.00006009
     atom   24 type  1   force =     0.00041588    0.00027863   -0.00013947
     atom   25 type  2   force =    -0.00009432    0.00012932   -0.00034565
     atom   26 type  2   force =    -0.00005025    0.00011071    0.00020442
     atom   27 type  1   force =     0.00001779   -0.00034739    0.00012831
     atom   28 type  2   force =     0.00033373   -0.00004608   -0.00054364
     atom   29 type  2   force =     0.00009928   -0.00004037    0.00026220
     atom   30 type  1   force =     0.00032839   -0.00002849   -0.00017838
     atom   31 type  2   force =     0.00001453   -0.00013922   -0.00026121
     atom   32 type  2   force =     0.00003559   -0.00005207    0.00011576
     atom   33 type  1   force =    -0.00029295    0.00017397   -0.00007285
     atom   34 type  2   force =    -0.00000429    0.00007880   -0.00029657
     atom   35 type  2   force =     0.00004238   -0.00001562    0.00009925
     atom   36 type  3   force =     0.00022528   -0.00000040   -0.00030707

     Total force =     0.164193     Total SCF correction =     0.002107
     Energy error            =      4.5E-02 Ry
     Gradient error          =      9.1E-02 Ry/Bohr

     number of scf cycles    =   2
     number of bfgs steps    =   1

     energy             old  =   -2246.1914856656 Ry
     energy             new  =   -2246.2362788137 Ry

     CASE: energy            _new < energy            _old

     new trust radius        =       0.3274782628 bohr
     new conv_thr            =       0.0000000909 Ry


ATOMIC_POSITIONS (angstrom)
Mo            6.5953777219        1.7549510389        2.8301702131
S             8.1524978822        0.8327019827        4.4314525776
S             8.1712224512        0.8276088854        1.2653914286
Mo            8.0876998676        4.5528742879        2.6298078059
S             6.4087879419        3.7094982290        4.2657409033
S             6.5491974846        3.5284521784        1.1193560179
Mo            6.5066592037        7.1988986243        2.6633324463
S             8.0821376408        6.3423058868        4.2671725202
S             8.0972385887        6.3108379574        1.0921900473
Mo            8.1482046337        9.9122464820        2.8079455238
S             6.5049609968        8.9410666950        4.3677227375
S             6.6135848584        9.0503286610        1.1473064436
Mo            3.4264396932        1.7537658071        2.7738003978
S             4.9879843406        0.8140385679        4.3721350814
S             5.0365102656        0.8512996152        1.2094529827
Mo            4.9582921181        4.5308462233        2.6328831183
S             3.4521658929        3.6697048429        4.2820939294
S             3.4304307161        3.5425054497        1.0789162015
Mo            3.4571256443        7.2024693580        2.6165272810
S             4.9893321323        6.3219844626        1.0293359746
Mo            5.0020238748        9.9100183394        2.7445216894
S             3.4667018006        8.9395528121        4.3215140427
S             3.4091009453        9.0689185048        1.1124145520
Mo            0.2804567928        1.7317750086        2.8131790668
S             1.8803539808        0.8175904177        4.4066087282
S             1.8503465758        0.8507606775        1.1966998807
Mo            1.8529191971        4.5521531740        2.6525287497
S             0.2935776652        3.5527654455        4.3182021572
S             0.2406795018        3.5308314244        1.1595318396
Mo            0.2704983484        7.2160389942        2.6964689109
S             1.9074253440        6.3216640119        4.2540086291
S             1.8517505657        6.3220042553        1.0512282785
Mo            1.8637105867        9.9335841176        2.7638217702
S             0.2978679453        9.0165036811        4.3924382248
S             0.2636205698        9.0609395193        1.1719060192
O             8.4914721321        3.6504274581        5.3529414059



     Writing config-only to output data dir ./MoS2-V-O.save/
     NEW-OLD atomic charge density approx. for the potential

     negative rho (up, down):  2.164E-04 0.000E+00

     total cpu time spent up to now is      253.1 secs

     Self-consistent Calculation

     iteration #  1     ecut=    80.00 Ry     beta= 0.70
     Davidson diagonalization with overlap
     c_bands:  2 eigenvalues not converged
     ethr =  1.00E-06,  avg # of iterations = 20.0

     negative rho (up, down):  7.808E-04 0.000E+00

     total cpu time spent up to now is      272.6 secs

     total energy              =   -2246.26593189 Ry
     estimated scf accuracy    <       0.06027828 Ry

     iteration #  2     ecut=    80.00 Ry     beta= 0.70
     Davidson diagonalization with overlap
     ethr =  1.93E-05,  avg # of iterations =  6.0

     negative rho (up, down):  1.292E-03 0.000E+00

     total cpu time spent up to now is      285.9 secs

     total energy              =   -2246.28228389 Ry
     estimated scf accuracy    <       0.06225649 Ry

     iteration #  3     ecut=    80.00 Ry     beta= 0.70
     Davidson diagonalization with overlap
     ethr =  1.93E-05,  avg # of iterations =  3.0

     negative rho (up, down):  2.231E-03 0.000E+00

     total cpu time spent up to now is      302.1 secs

     total energy              =   -2246.28502067 Ry
     estimated scf accuracy    <       0.00462061 Ry

     iteration #  4     ecut=    80.00 Ry     beta= 0.70
     Davidson diagonalization with overlap
     ethr =  1.48E-06,  avg # of iterations =  5.0

     negative rho (up, down):  2.717E-03 0.000E+00

     total cpu time spent up to now is      316.7 secs

     total energy              =   -2246.28591453 Ry
     estimated scf accuracy    <       0.00101165 Ry

     iteration #  5     ecut=    80.00 Ry     beta= 0.70
     Davidson diagonalization with overlap
     ethr =  3.24E-07,  avg # of iterations =  2.0

     negative rho (up, down):  2.756E-03 0.000E+00

     total cpu time spent up to now is      328.3 secs

     total energy              =   -2246.28586746 Ry
     estimated scf accuracy    <       0.00053829 Ry

     iteration #  6     ecut=    80.00 Ry     beta= 0.70
     Davidson diagonalization with overlap
     ethr =  1.73E-07,  avg # of iterations =  3.0

     negative rho (up, down):  2.544E-03 0.000E+00

     total cpu time spent up to now is      340.2 secs

     total energy              =   -2246.28588788 Ry
     estimated scf accuracy    <       0.00008319 Ry

     iteration #  7     ecut=    80.00 Ry     beta= 0.70
     Davidson diagonalization with overlap
     ethr =  2.67E-08,  avg # of iterations =  5.0

     negative rho (up, down):  2.046E-03 0.000E+00

     total cpu time spent up to now is      350.8 secs

     total energy              =   -2246.28589486 Ry
     estimated scf accuracy    <       0.00005302 Ry

     iteration #  8     ecut=    80.00 Ry     beta= 0.70
     Davidson diagonalization with overlap
     ethr =  1.70E-08,  avg # of iterations =  3.0

     negative rho (up, down):  1.429E-03 0.000E+00

     total cpu time spent up to now is      362.2 secs

     total energy              =   -2246.28589728 Ry
     estimated scf accuracy    <       0.00000446 Ry

     iteration #  9     ecut=    80.00 Ry     beta= 0.70
     Davidson diagonalization with overlap
     ethr =  1.43E-09,  avg # of iterations = 10.0

     negative rho (up, down):  1.124E-03 0.000E+00

     total cpu time spent up to now is      373.3 secs

     total energy              =   -2246.28589601 Ry
     estimated scf accuracy    <       0.00000575 Ry

     iteration # 10     ecut=    80.00 Ry     beta= 0.70
     Davidson diagonalization with overlap
     ethr =  1.43E-09,  avg # of iterations =  3.0

     negative rho (up, down):  5.549E-04 0.000E+00

     total cpu time spent up to now is      383.3 secs

     total energy              =   -2246.28589393 Ry
     estimated scf accuracy    <       0.00000075 Ry

     iteration # 11     ecut=    80.00 Ry     beta= 0.70
     Davidson diagonalization with overlap
     ethr =  2.40E-10,  avg # of iterations =  4.0

     negative rho (up, down):  4.263E-04 0.000E+00

     total cpu time spent up to now is      395.4 secs

     total energy              =   -2246.28589358 Ry
     estimated scf accuracy    <       0.00000037 Ry

     iteration # 12     ecut=    80.00 Ry     beta= 0.70
     Davidson diagonalization with overlap
     ethr =  1.19E-10,  avg # of iterations =  4.0

     negative rho (up, down):  2.004E-04 0.000E+00

     total cpu time spent up to now is      399.5 secs

     End of self-consistent calculation

          k = 0.0000 0.0000 0.0000 (105382 PWs)   bands (ev):

   -63.1162 -62.9847 -62.9711 -62.9402 -62.9266 -62.9137 -62.9086 -62.8978
   -62.8868 -62.8797 -62.8631 -62.8444 -37.4067 -37.3440 -37.2858 -37.2693
   -37.2451 -37.2278 -37.2141 -37.1960 -37.1893 -37.1748 -37.1640 -37.1519
   -37.1445 -37.1337 -37.1210 -37.1170 -37.1043 -37.1012 -37.0827 -37.0753
   -37.0655 -37.0605 -37.0511 -37.0347 -37.0276 -37.0247 -37.0128 -37.0066
   -36.9983 -36.9886 -36.9745 -36.9539 -36.9378 -36.9190 -36.8422 -36.8261
   -21.0357 -16.0426 -15.2751 -15.2354 -15.0992 -14.9990 -14.8575 -14.6491
   -14.5964 -14.5813 -14.5187 -14.4723 -14.4510 -14.4297 -14.3423 -14.2675
   -14.2300 -14.2171 -14.1435 -14.0358 -14.0129 -13.9504 -13.8868 -13.6915
    -7.9234  -7.8321  -7.5903  -7.4543  -7.4169  -7.3804  -7.3546  -7.2832
    -7.2499  -7.0523  -6.9551  -6.9220  -6.8430  -6.7655  -6.7303  -6.6103
    -6.5818  -6.5237  -6.3816  -6.3562  -6.1913  -6.1258  -6.0103  -5.9857
    -5.9339  -5.8671  -5.8634  -5.8277  -5.7871  -5.7575  -5.7132  -5.6917
    -5.5669  -5.5258  -5.5053  -5.3143  -5.2779  -5.2433  -5.1503  -5.1419
    -5.1104  -5.0509  -4.9603  -4.7912  -4.6958  -4.6428  -4.4687  -4.4210
    -4.3871  -4.3157  -4.2310  -4.1850  -4.0941  -4.0407  -3.9447  -3.9318
    -3.8595  -3.7496  -3.7223  -3.7146  -3.6626  -3.6190  -3.5981  -3.5641
    -3.5316  -3.4490  -3.3967  -3.2455  -3.0747  -3.0123  -2.9620  -2.9353
    -2.8839  -2.8660  -2.8177  -2.7823  -2.7513  -2.6951  -2.5713  -2.4939
    -2.1713  -2.0859  -2.0392  -1.5756  -1.0465  -0.8522  -0.7586  -0.3307
    -0.2638  -0.1714  -0.0929  -0.0093   0.0445   0.1179   0.1470   0.1573
     0.2034   0.2663   0.3231   0.3986   0.4500   0.4588   0.4871   0.5294
     0.5942   0.6496   0.6621   0.6795   0.7160   0.7948   0.8650   0.8826
     0.9375   0.9594   1.1685

     the Fermi energy is    -1.3111 ev

!    total energy              =   -2246.28589342 Ry
     estimated scf accuracy    <       0.00000007 Ry
     smearing contrib. (-TS)   =      -0.00025766 Ry
     internal energy E=F+TS    =   -2246.28563576 Ry

     The total energy is F=E-TS. E is the sum of the following terms:
     one-electron contribution =  -18461.81593777 Ry
     hartree contribution      =    9218.73947888 Ry
     xc contribution           =    -392.07939378 Ry
     ewald contribution        =    7398.73487014 Ry
     one-center paw contrib.   =      -9.86465324 Ry

     convergence has been achieved in  12 iterations

     negative rho (up, down):  2.004E-04 0.000E+00

     Forces acting on atoms (cartesian axes, Ry/au):

     atom    1 type  1   force =    -0.01807859    0.00317330   -0.01969174
     atom    2 type  2   force =     0.00079604    0.00000973   -0.00240602
     atom    3 type  2   force =    -0.00855657    0.00186565   -0.01809134
     atom    4 type  1   force =     0.00671035   -0.02416998    0.02424636
     atom    5 type  2   force =     0.02802664    0.00636625   -0.00992020
     atom    6 type  2   force =    -0.00896082   -0.00212086   -0.00774528
     atom    7 type  1   force =     0.00006950    0.00419419    0.00425761
     atom    8 type  2   force =     0.00287120   -0.01369625   -0.00097633
     atom    9 type  2   force =     0.00483656    0.02231300   -0.02228738
     atom   10 type  1   force =     0.00250954    0.00545740    0.01165874
     atom   11 type  2   force =     0.00309214   -0.00059276   -0.01027353
     atom   12 type  2   force =    -0.00604202   -0.00043607   -0.00311145
     atom   13 type  1   force =     0.00237521    0.00113167    0.00077883
     atom   14 type  2   force =     0.00244587   -0.00187911    0.00240960
     atom   15 type  2   force =    -0.00228147    0.00064461   -0.00062848
     atom   16 type  1   force =    -0.00930361    0.00764800   -0.01482917
     atom   17 type  2   force =    -0.00580356    0.00683726   -0.00350397
     atom   18 type  2   force =    -0.00712035   -0.00061620    0.00150353
     atom   19 type  1   force =     0.00165545    0.00059519    0.00684265
     atom   20 type  2   force =     0.00307596   -0.00049938   -0.00902265
     atom   21 type  1   force =    -0.00008571   -0.00179405    0.00289859
     atom   22 type  2   force =     0.00044095   -0.00335938   -0.00237966
     atom   23 type  2   force =     0.00176628   -0.00047680   -0.00229670
     atom   24 type  1   force =    -0.00370911   -0.01425759    0.00217258
     atom   25 type  2   force =     0.00217160    0.00201049   -0.00810747
     atom   26 type  2   force =     0.00326923   -0.00214477   -0.00587092
     atom   27 type  1   force =    -0.00343973   -0.00983693    0.03032770
     atom   28 type  2   force =    -0.10031407    0.00580015    0.02835467
     atom   29 type  2   force =     0.00434777    0.00820468   -0.00968365
     atom   30 type  1   force =    -0.00155211   -0.00776952    0.01070409
     atom   31 type  2   force =    -0.00121478    0.00399655    0.00717855
     atom   32 type  2   force =    -0.00113901    0.00801962   -0.00911305
     atom   33 type  1   force =    -0.00290807    0.00401170    0.00983390
     atom   34 type  2   force =    -0.00251271   -0.00935038   -0.01428659
     atom   35 type  2   force =    -0.00002355    0.00555755   -0.00125764
     atom   36 type  3   force =     0.11258551   -0.00483697    0.03231584
     The non-local contrib.  to forces
     atom    1 type  1   force =     0.00045442    0.02121893   -0.01770833
     atom    2 type  2   force =    -0.00043077   -0.01977860   -0.27015293
     atom    3 type  2   force =    -0.00695625   -0.01116841    0.25554160
     atom    4 type  1   force =    -0.00191448    0.01253524    0.03117183
     atom    5 type  2   force =     0.03829452   -0.02238571   -0.21301821
     atom    6 type  2   force =    -0.00646502    0.00454664    0.26441319
     atom    7 type  1   force =    -0.00984795   -0.00765842   -0.02197951
     atom    8 type  2   force =     0.00802315    0.01630163   -0.26553335
     atom    9 type  2   force =     0.00131090   -0.00060465    0.25493316
     atom   10 type  1   force =    -0.00369349    0.00679058   -0.00157438
     atom   11 type  2   force =     0.01224655    0.00382767   -0.26348766
     atom   12 type  2   force =    -0.01247472   -0.01906981    0.26074969
[...]
     atom   28 type  2   force =    -0.00242123    0.00954590    0.29535644
     atom   29 type  2   force =    -0.00040772   -0.00820142    0.27771364
     atom   30 type  1   force =    -0.00028563    0.01792970    0.00418466
     atom   31 type  2   force =    -0.00646224    0.00210057   -0.26908860
     atom   32 type  2   force =     0.00625682   -0.01416183    0.26728561
     atom   33 type  1   force =     0.00177502    0.00422952    0.00224845
     atom   34 type  2   force =     0.00146604   -0.00906749   -0.27607758
     atom   35 type  2   force =    -0.00123584   -0.01407428    0.26766798
     atom   36 type  3   force =     0.02625255   -0.04149282   -2.32285522
     The ionic contribution  to forces
     atom    1 type  1   force =    -0.68979705    0.08442326    0.81654894
     atom    2 type  2   force =    -0.79831022   -0.87636704   38.22916580
     atom    3 type  2   force =    -0.03444274   -0.16937496  -38.36003124
     atom    4 type  1   force =    -1.05825989    0.83816061   -3.84346516
     atom    5 type  2   force =    -1.77688701    1.12611556   37.58821962
     atom    6 type  2   force =     0.15140594   -0.37559360  -38.93439948
     atom    7 type  1   force =    -3.16484596   -1.43552388    1.46838742
     atom    8 type  2   force =    -1.78084376    1.13646868   37.61505423
     atom    9 type  2   force =     0.31319791    0.21148097  -38.77357407
     atom   10 type  1   force =    -0.64433534   -0.91335349    1.82159811
     atom   11 type  2   force =    -0.58294955   -1.40533817   38.39142759
     atom   12 type  2   force =     0.11507609    0.30829553  -38.36250027
     atom   13 type  1   force =     0.67290856    0.11746614    1.21045418
     atom   14 type  2   force =     0.02474851   -0.30452588   38.33142917
     atom   15 type  2   force =    -0.02312414   -0.27172083  -37.95507488
     atom   16 type  1   force =    -0.00011793    3.87937780    0.19901483
     atom   17 type  2   force =     1.77529101    1.13208007   37.63660154
     atom   18 type  2   force =    -0.17889590   -0.40069542  -38.85921976
     atom   19 type  1   force =     3.19850535   -1.46827037    2.06932335
     atom   20 type  2   force =    -0.02869472    0.12956890  -38.95755901
     atom   21 type  1   force =     0.01344303   -0.44132487    0.59404721
     atom   22 type  2   force =     0.61496208   -1.39450153   38.54850875
     atom   23 type  2   force =    -0.14649323    0.29765209  -38.23788424
     atom   24 type  1   force =     0.01345812   -0.67233601   -1.74435734
     atom   25 type  2   force =     0.78145801   -0.84969912   38.35719731
     atom   26 type  2   force =     0.05836930   -0.17880524  -38.23558945
     atom   27 type  1   force =     1.06404389    0.82231241   -3.57681499
     atom   28 type  2   force =     0.07261963    0.27847106   27.80465872
     atom   29 type  2   force =     0.02779317   -0.14213718  -38.24094602
     atom   30 type  1   force =     0.00188293    0.30440152    0.67890465
     atom   31 type  2   force =     1.73899595    1.12958299   37.68944027
     atom   32 type  2   force =    -0.29235769    0.21293614  -38.68461111
     atom   33 type  1   force =     0.64057208   -0.92340011    2.62711211
     atom   34 type  2   force =    -0.03452261   -0.44002973   38.63464677
     atom   35 type  2   force =     0.03006479    0.15212452  -37.83750796
     atom   36 type  3   force =    -0.07391862    0.50207919   50.29179441
     The local contribution  to forces
     atom    1 type  1   force =     0.69173551   -0.10925569   -0.80972834
     atom    2 type  2   force =     0.79784965    0.88526138  -37.97980048
     atom    3 type  2   force =     0.03675456    0.17791067   38.11480024
     atom    4 type  1   force =     1.04802245   -0.83427988    3.82132730
     atom    5 type  2   force =     1.77373507   -1.10745427  -37.35100009
     atom    6 type  2   force =    -0.15112394    0.37813835   38.69202088
     atom    7 type  1   force =     3.17973869    1.43212612   -1.44866487
     atom    8 type  2   force =     1.77397826   -1.13934676  -37.36751654
     atom    9 type  2   force =    -0.30718975   -0.19882425   38.52697091
     atom   10 type  1   force =     0.64608071    0.90839542   -1.82460604
     atom   11 type  2   force =     0.57640128    1.40698358  -38.15018061
     atom   12 type  2   force =    -0.10736109   -0.29483077   38.11904734
     atom   13 type  1   force =    -0.67388699   -0.14213656   -1.20334448
     atom   14 type  2   force =    -0.02402585    0.31285933  -38.08223189
     atom   15 type  2   force =     0.02263161    0.27952961   37.71177998
     atom   16 type  1   force =    -0.00015865   -3.91326391   -0.17637987
     atom   17 type  2   force =    -1.77109117   -1.11346956  -37.39909843
     atom   18 type  2   force =     0.17815215    0.40307195   38.61641720
     atom   19 type  1   force =    -3.21317575    1.46397564   -2.04930367
     atom   20 type  2   force =     0.02830958   -0.11375459   38.71247892
     atom   21 type  1   force =    -0.01331073    0.41155089   -0.59624678
     atom   22 type  2   force =    -0.60768866    1.39569719  -38.30795240
     atom   23 type  2   force =     0.13810119   -0.28396837   37.99457599
     atom   24 type  1   force =    -0.01381361    0.65123090    1.72985736
     atom   25 type  2   force =    -0.78139472    0.85895048  -38.10810742
     atom   26 type  2   force =    -0.06026533    0.18741443   37.98999127
     atom   27 type  1   force =    -1.05556887   -0.81967830    3.55604684
     atom   28 type  2   force =    -0.07165216   -0.28739652  -28.08906039
     atom   29 type  2   force =    -0.02750350    0.15028303   37.98558526
     atom   30 type  1   force =    -0.00128282   -0.32249390   -0.68326773
     atom   31 type  2   force =    -1.73272651   -1.13234716  -37.44189898
     atom   32 type  2   force =     0.28662670   -0.20011598   38.43787923
     atom   33 type  1   force =    -0.64228476    0.91980703   -2.63014986
     atom   34 type  2   force =     0.03381389    0.44889797  -38.38035465
     atom   35 type  2   force =    -0.02929146   -0.13810961   37.59146636
     atom   36 type  3   force =     0.04919332   -0.46101906  -47.99509297
     The core correction contribution to forces
     atom    1 type  1   force =     0.00000000    0.00000000    0.00000000
     atom    2 type  2   force =    -0.00008832    0.00046744    0.02117706
     atom    3 type  2   force =     0.00010970    0.00042863   -0.02089868
     atom    4 type  1   force =     0.00000000    0.00000000    0.00000000
     atom    5 type  2   force =    -0.00030725    0.00083680    0.02078144
     atom    6 type  2   force =     0.00015197   -0.00039357   -0.02077447
     atom    7 type  1   force =     0.00000000    0.00000000    0.00000000
     atom    8 type  2   force =    -0.00036380    0.00014162    0.02121501
     atom    9 type  2   force =     0.00070630    0.00080740   -0.02093595
     atom   10 type  1   force =     0.00000000    0.00000000    0.00000000
     atom   11 type  2   force =    -0.00012473   -0.00019778    0.02077027
     atom   12 type  2   force =     0.00064631    0.00097865   -0.02089771
     atom   13 type  1   force =     0.00000000    0.00000000    0.00000000
     atom   14 type  2   force =     0.00005677    0.00012423    0.02099732
     atom   15 type  2   force =    -0.00005360    0.00036635   -0.02071991
     atom   16 type  1   force =     0.00000000    0.00000000    0.00000000
     atom   17 type  2   force =     0.00036665    0.00084780    0.02075049
     atom   18 type  2   force =    -0.00016960   -0.00040798   -0.02075687
     atom   19 type  1   force =     0.00000000    0.00000000    0.00000000
     atom   20 type  2   force =    -0.00008320    0.00075825   -0.02126677
     atom   21 type  1   force =     0.00000000    0.00000000    0.00000000
     atom   22 type  2   force =     0.00024489   -0.00018956    0.02078840
     atom   23 type  2   force =    -0.00073835    0.00101303   -0.02089628
     atom   24 type  1   force =     0.00000000    0.00000000    0.00000000
     atom   25 type  2   force =     0.00001504    0.00051386    0.02119843
     atom   26 type  2   force =    -0.00004425    0.00030757   -0.02087604
     atom   27 type  1   force =     0.00000000    0.00000000    0.00000000
     atom   28 type  2   force =     0.00014757   -0.00030906   -0.00986028
     atom   29 type  2   force =     0.00004176    0.00017531   -0.02118395
     atom   30 type  1   force =     0.00000000    0.00000000    0.00000000
     atom   31 type  2   force =     0.00027461    0.00014558    0.02120757
     atom   32 type  2   force =    -0.00063251    0.00085920   -0.02092408
     atom   33 type  1   force =     0.00000000    0.00000000    0.00000000
     atom   34 type  2   force =    -0.00011262    0.00036095    0.02129578
     atom   35 type  2   force =     0.00010285    0.00082666   -0.02093160
     atom   36 type  3   force =    -0.00028427    0.00042673    0.02463302
     The Hubbard contrib.    to forces
     atom    1 type  1   force =     0.00000000    0.00000000    0.00000000
     atom    2 type  2   force =     0.00000000    0.00000000    0.00000000
     atom    3 type  2   force =     0.00000000    0.00000000    0.00000000
     atom    4 type  1   force =     0.00000000    0.00000000    0.00000000
     atom    5 type  2   force =     0.00000000    0.00000000    0.00000000
     atom    6 type  2   force =     0.00000000    0.00000000    0.00000000
     atom    7 type  1   force =     0.00000000    0.00000000    0.00000000
     atom    8 type  2   force =     0.00000000    0.00000000    0.00000000
     atom    9 type  2   force =     0.00000000    0.00000000    0.00000000
     atom   10 type  1   force =     0.00000000    0.00000000    0.00000000
     atom   11 type  2   force =     0.00000000    0.00000000    0.00000000
     atom   12 type  2   force =     0.00000000    0.00000000    0.00000000
     atom   13 type  1   force =     0.00000000    0.00000000    0.00000000
     atom   14 type  2   force =     0.00000000    0.00000000    0.00000000
     atom   15 type  2   force =     0.00000000    0.00000000    0.00000000
     atom   16 type  1   force =     0.00000000    0.00000000    0.00000000
     atom   17 type  2   force =     0.00000000    0.00000000    0.00000000
     atom   18 type  2   force =     0.00000000    0.00000000    0.00000000
     atom   19 type  1   force =     0.00000000    0.00000000    0.00000000
     atom   20 type  2   force =     0.00000000    0.00000000    0.00000000
     atom   21 type  1   force =     0.00000000    0.00000000    0.00000000
     atom   22 type  2   force =     0.00000000    0.00000000    0.00000000
     atom   23 type  2   force =     0.00000000    0.00000000    0.00000000
     atom   24 type  1   force =     0.00000000    0.00000000    0.00000000
     atom   25 type  2   force =     0.00000000    0.00000000    0.00000000
     atom   26 type  2   force =     0.00000000    0.00000000    0.00000000
     atom   27 type  1   force =     0.00000000    0.00000000    0.00000000
     atom   28 type  2   force =     0.00000000    0.00000000    0.00000000
     atom   29 type  2   force =     0.00000000    0.00000000    0.00000000
     atom   30 type  1   force =     0.00000000    0.00000000    0.00000000
     atom   31 type  2   force =     0.00000000    0.00000000    0.00000000
     atom   32 type  2   force =     0.00000000    0.00000000    0.00000000
     atom   33 type  1   force =     0.00000000    0.00000000    0.00000000
     atom   34 type  2   force =     0.00000000    0.00000000    0.00000000
     atom   35 type  2   force =     0.00000000    0.00000000    0.00000000
     atom   36 type  3   force =     0.00000000    0.00000000    0.00000000
     The SCF correction term to forces
     atom    1 type  1   force =     0.00002128    0.00001587    0.00006211
     atom    2 type  2   force =     0.00001014    0.00001869    0.00003937
     atom    3 type  2   force =     0.00000353   -0.00000127    0.00000756
     atom    4 type  1   force =     0.00001763   -0.00001445    0.00007863
     atom    5 type  2   force =     0.00003169   -0.00000085    0.00004444
     atom    6 type  2   force =     0.00001480    0.00000598    0.00000522
     atom    7 type  1   force =     0.00001203   -0.00000106    0.00002450
     atom    8 type  2   force =     0.00000647   -0.00002428    0.00003479
     atom    9 type  2   force =     0.00000160   -0.00000724    0.00000218
     atom   10 type  1   force =     0.00000103    0.00000175    0.00004277
     atom   11 type  2   force =     0.00000426    0.00000418    0.00002182
     atom   12 type  2   force =    -0.00000113    0.00000050   -0.00000271
     atom   13 type  1   force =    -0.00000853   -0.00000835    0.00004554
     atom   14 type  2   force =     0.00000397    0.00000032    0.00002632
     atom   15 type  2   force =    -0.00000034   -0.00000648    0.00000564
     atom   16 type  1   force =     0.00002028    0.00000133    0.00004768
     atom   17 type  2   force =    -0.00001325   -0.00000036    0.00002475
     atom   18 type  2   force =    -0.00001017    0.00000149    0.00000282
     atom   19 type  1   force =    -0.00001308    0.00001168    0.00004101
     atom   20 type  2   force =    -0.00000369    0.00001120   -0.00000515
     atom   21 type  1   force =    -0.00000788   -0.00000825    0.00003159
     atom   22 type  2   force =    -0.00000343   -0.00000332    0.00001351
     atom   23 type  2   force =     0.00000106   -0.00000500    0.00001188
     atom   24 type  1   force =    -0.00001011    0.00002729    0.00007178
     atom   25 type  2   force =    -0.00001268    0.00000091    0.00002351
     atom   26 type  2   force =    -0.00000260   -0.00000203    0.00001442
     atom   27 type  1   force =    -0.00003881   -0.00000367    0.00004762
     atom   28 type  2   force =    -0.00003154   -0.00000177    0.00004533
     atom   29 type  2   force =    -0.00000219    0.00000678    0.00002221
     atom   30 type  1   force =    -0.00000408   -0.00001118    0.00003900
     atom   31 type  2   force =    -0.00000459   -0.00000668    0.00001991
     atom   32 type  2   force =     0.00000322    0.00000038    0.00000959
     atom   33 type  1   force =    -0.00000728   -0.00000920    0.00004509
     atom   34 type  2   force =     0.00000406    0.00000416    0.00002286
     atom   35 type  2   force =     0.00000420    0.00000070    0.00000594
     atom   36 type  3   force =    -0.00010745   -0.00001628    0.00004322

     Total force =     0.005362     Total SCF correction =     0.000255
     Energy error            =      7.1E-05 Ry
     Gradient error          =      1.5E-03 Ry/Bohr

     bfgs converged in  24 scf cycles and  23 bfgs steps
     (criteria: energy <  1.0E-04 Ry, force <  1.0E-02 Ry/Bohr)

     End of BFGS Geometry Optimization

     Final energy             =   -2246.4528378427 Ry

     File ./MoS2-V-O.bfgs deleted, as requested
Begin final coordinates

ATOMIC_POSITIONS (angstrom)
Mo            6.5277030165        1.7579591029        2.7468520873
S             8.0974256996        0.8526716769        4.3605638560
S             8.0945823490        0.8337178462        1.1543079191
Mo            8.0622622620        4.5170642682        2.6853097738
S             6.4914648069        3.6686859922        4.2933363499
S             6.5110632136        3.5536619364        1.0878792339
Mo            6.4851699174        7.1891401865        2.6612150362
S             8.0438628076        6.3062701397        4.3004534109
S             8.1051774918        6.3462389331        1.0933062413
Mo            8.0966986990        9.9405790920        2.7620313131
S             6.4890288676        8.9502343768        4.3210662327
S             6.5512113553        9.0338549832        1.1218213259
Mo            3.3890512235        1.7569858947        2.7545015813
S             4.9608189430        0.8197381860        4.3395364527
S             4.9555713178        0.8380984968        1.1635567083
Mo            4.9606360689        4.5248075491        2.6443363135
S             3.4303760139        3.6716001195        4.2962296366
S             3.4081408776        3.5526272135        1.0938615838
Mo            3.4342629903        7.1907433247        2.6724052505
S             4.9544034803        6.3170528976        1.0463254069
Mo            4.9592499151        9.9061887413        2.7303220114
S             3.4368580244        8.9512532359        4.3341014285
S             3.3631768884        9.0338955953        1.1327314960
Mo            0.2318402536        1.7078673683        2.7455193655
S             1.8161442347        0.8540307227        4.3712921582
S             1.8276651613        0.8243462390        1.1649032840
Mo            1.8597011853        4.5202541417        2.6903921130
S             0.2311450528        3.6099913572        4.2080608937
S             0.2356785148        3.5602870535        1.1514927203
Mo            0.2290947894        7.2152189524        2.7363816923
S             1.8679242067        6.3086798005        4.3062643917
S             1.8180964244        6.3499173371        1.1005884611
Mo            1.8213890490        9.9373763711        2.7764093257
S             0.2234781589        9.0255108625        4.3621725137
S             0.2352616371        9.0551603065        1.1749950924
O             9.6727410037        3.6422027762        5.7062249153
End final coordinates



     Writing all to output data dir ./MoS2-V-O.save/
 
     init_run     :      4.64s CPU      5.17s WALL (       1 calls)
     electrons    :   2239.00s CPU   2554.25s WALL (      24 calls)
     update_pot   :     75.44s CPU     80.99s WALL (      23 calls)
     forces       :     70.70s CPU     82.17s WALL (      24 calls)

     Called by init_run:
     wfcinit      :      0.49s CPU      0.55s WALL (       1 calls)
     potinit      :      2.37s CPU      2.65s WALL (       1 calls)
     hinit0       :      0.45s CPU      0.47s WALL (       1 calls)

     Called by electrons:
     c_bands      :    335.63s CPU    344.22s WALL (     222 calls)
     sum_band     :    137.76s CPU    189.70s WALL (     222 calls)
     v_of_rho     :    262.77s CPU    320.93s WALL (     239 calls)
     newd         :     85.87s CPU    129.37s WALL (     239 calls)
     PAW_pot      :      9.49s CPU      9.53s WALL (     262 calls)
     mix_rho      :   1435.59s CPU   1592.90s WALL (     222 calls)

     Called by c_bands:
     init_us_2    :      5.10s CPU      5.52s WALL (     468 calls)
     init_us_2:cp :      5.10s CPU      5.52s WALL (     468 calls)
     regterg      :    318.88s CPU    327.05s WALL (     222 calls)

     Called by *egterg:
     rdiaghg      :     21.71s CPU     21.94s WALL (    1213 calls)
     h_psi        :    206.15s CPU    208.09s WALL (    1244 calls)
     s_psi        :     18.94s CPU     19.02s WALL (    1244 calls)
     g_psi        :      1.02s CPU      1.03s WALL (    1021 calls)

     Called by h_psi:
     h_psi:calbec :     22.03s CPU     22.13s WALL (    1244 calls)
     vloc_psi     :    162.63s CPU    164.34s WALL (    1244 calls)
     add_vuspsi   :     18.90s CPU     19.00s WALL (    1244 calls)

     General routines
     calbec       :     31.76s CPU     31.91s WALL (    1585 calls)
     fft          :    183.34s CPU    206.82s WALL (   15977 calls)
     ffts         :    645.09s CPU    796.34s WALL (  349740 calls)
     fftw         :    101.73s CPU    102.70s WALL (  137934 calls)
     interpolate  :      2.98s CPU      3.42s WALL (     239 calls)
 
     Parallel routines
 
     PWSCF        :  40m 1.34s CPU  45m39.93s WALL

 
   This run was terminated on:  16:31:24   1Nov2023            

=------------------------------------------------------------------------------=
   JOB DONE.
=------------------------------------------------------------------------------=
