
     Program PWSCF v.7.2 starts on  1Nov2023 at 21:47:49 

     This program is part of the open-source Quantum ESPRESSO suite
     for quantum simulation of materials; please cite
         "P. Giannozzi et al., J. Phys.:Condens. Matter 21 395502 (2009);
         "P. Giannozzi et al., J. Phys.:Condens. Matter 29 465901 (2017);
         "P. Giannozzi et al., J. Chem. Phys. 152 154105 (2020);
          URL http://www.quantum-espresso.org", 
     in publications or presentations arising from this work. More details at
     http://www.quantum-espresso.org/quote

     Parallel version (MPI & OpenMP), running on      48 processor cores
     Number of MPI processes:                48
     Threads/MPI process:                     1

     MPI processes distributed on     1 nodes
     44220 MiB available memory on the printing compute node when the environment starts
 
     Waiting for input...
     Reading input from standard input
Warning: card &CELL ignored
Warning: card CELL_DYNAMICS = 'BFGS', ignored
Warning: card CELL_DOFREE = '2DXY' ignored
Warning: card / ignored

     Current dimensions of program PWSCF are:
     Max number of different atomic species (ntypx) = 10
     Max number of k-points (npk) =  40000
     Max angular momentum in pseudopotentials (lmaxx) =  4
     file O.pbe-n-kjpaw_psl.0.1.UPF: wavefunction(s)  2P renormalized

     IMPORTANT: XC functional enforced from input :
     Exchange-correlation= RVV10
                           (   1   4  13   4  26   0   0)
     Any further DFT definition will be discarded
     Please, verify this is what you really want


     gamma-point specific algorithms are used
     signal trapping enabled: kill the code with -SIGUSR1 to stop cleanly the simulation 
 
     R & G space division:  proc/nbgrp/npool/nimage =      48
     Subspace diagonalization in iterative solution of the eigenvalue problem:
     one sub-group per band group will be used
     scalapack distributed-memory algorithm (size of sub-group:  2*  2 procs)

 
     Parallelization info
     --------------------
     sticks:   dense  smooth     PW     G-vecs:    dense   smooth      PW
     Min         396     194     47               101632    35090    4376
     Max         398     196     50               101674    35128    4410
     Sum       19091    9389   2349              4879585  1685513  210763
 
     Using Slab Decomposition
 


     bravais-lattice index     =            0
     lattice parameter (alat)  =      17.8707  a.u.
     unit-cell volume          =   17436.2743 (a.u.)^3
     number of atoms/cell      =           36
     number of atomic types    =            3
     number of electrons       =       312.00
     number of Kohn-Sham states=          187
     kinetic-energy cutoff     =      80.0000  Ry
     charge density cutoff     =     650.0000  Ry
     scf convergence threshold =      1.0E-06
     mixing beta               =       0.7000
     number of iterations used =            8  local-TF  mixing
     energy convergence thresh.=      1.0E-04
     force convergence thresh. =      1.0E-02
     Exchange-correlation= RVV10
                           (   1   4  13   4  26   0   0)
     nstep                     =          200


     celldm(1)=  17.870686  celldm(2)=   0.000000  celldm(3)=   0.000000
     celldm(4)=   0.000000  celldm(5)=   0.000000  celldm(6)=   0.000000

     crystal axes: (cart. coord. in units of alat)
               a(1) = (   1.000000   0.000000   0.000000 )  
               a(2) = (   0.000000   1.155671   0.000000 )  
               a(3) = (   0.000000   0.000000   2.643601 )  

     reciprocal axes: (cart. coord. in units 2 pi/alat)
               b(1) = (  1.000000  0.000000  0.000000 )  
               b(2) = (  0.000000  0.865298  0.000000 )  
               b(3) = (  0.000000  0.000000  0.378272 )  


     PseudoPot. # 1 for Mo read from file:
     ../pseudo/Mo_ONCV_PBE-1.0.oncvpsp.upf
     MD5 check sum: 1b5d28e075c9ccadda658a603575cd1f
     Pseudo is Norm-conserving, Zval = 14.0
     Generated using ONCVPSP code by D. R. Hamann
     Using radial grid of 1526 points,  6 beta functions with: 
                l(1) =   0
                l(2) =   0
                l(3) =   1
                l(4) =   1
                l(5) =   2
                l(6) =   2

     PseudoPot. # 2 for S  read from file:
     ../pseudo/s_pbe_v1.4.uspp.F.UPF
     MD5 check sum: 88d86576ff6df21479756cfb9bdac1df
     Pseudo is Ultrasoft + core correction, Zval =  6.0
     Generated by new atomic code, or converted to UPF format
     Using radial grid of  907 points,  6 beta functions with: 
                l(1) =   0
                l(2) =   0
                l(3) =   1
                l(4) =   1
                l(5) =   2
                l(6) =   2
     Q(r) pseudized with  8 coefficients,  rinner =    1.300   1.300   1.300
                                                       1.300   1.300

     PseudoPot. # 3 for O  read from file:
     ../pseudo/O.pbe-n-kjpaw_psl.0.1.UPF
     MD5 check sum: 0234752ac141de4415c5fc33072bef88
     Pseudo is Projector augmented-wave + core cor, Zval =  6.0
     Generated using "atomic" code by A. Dal Corso  v.5.0.99 svn rev. 10869
     Shape of augmentation charge: BESSEL
     Using radial grid of 1095 points,  4 beta functions with: 
                l(1) =   0
                l(2) =   0
                l(3) =   1
                l(4) =   1
     Q(r) pseudized with 0 coefficients 


     atomic species   valence    mass     pseudopotential
        Mo            14.00    95.94000     Mo( 1.00)
        S              6.00    32.06500     S ( 1.00)
        O              6.00    15.99940     O ( 1.00)

     No symmetry found



   Cartesian axes

     site n.     atom                  positions (alat units)
         1           Mo  tau(   1) = (   0.6952221   0.1890506   0.2985846  )
         2           S   tau(   2) = (   0.8646417   0.0856217   0.4689279  )
         3           S   tau(   3) = (   0.8663890   0.0857843   0.1351291  )
         4           Mo  tau(   4) = (   0.8560186   0.4753274   0.2873942  )
         5           S   tau(   5) = (   0.6873294   0.3936244   0.4596353  )
         6           S   tau(   6) = (   0.6929804   0.3713468   0.1185692  )
         7           Mo  tau(   7) = (   0.6862796   0.7633098   0.2825370  )
         8           S   tau(   8) = (   0.8545980   0.6708292   0.4486168  )
         9           S   tau(   9) = (   0.8545123   0.6666874   0.1146125  )
        10           Mo  tau(  10) = (   0.8629403   1.0471007   0.3006803  )
        11           S   tau(  11) = (   0.6868280   0.9456650   0.4634891  )
        12           S   tau(  12) = (   0.6998113   0.9568511   0.1205389  )
        13           Mo  tau(  13) = (   0.3618216   0.1847309   0.2935964  )
        14           S   tau(  14) = (   0.5260962   0.0863870   0.4600448  )
        15           S   tau(  15) = (   0.5348379   0.0894875   0.1297123  )
        16           Mo  tau(  16) = (   0.5265817   0.4772436   0.2784130  )
        17           S   tau(  17) = (   0.3624753   0.3882513   0.4525556  )
        18           S   tau(  18) = (   0.3635411   0.3752055   0.1119148  )
        19           Mo  tau(  19) = (   0.3652268   0.7630864   0.2781795  )
        20           S   tau(  20) = (   0.5269494   0.6690381   0.1096838  )
        21           Mo  tau(  21) = (   0.5300192   1.0470394   0.2900995  )
        22           S   tau(  22) = (   0.3670346   0.9457522   0.4574073  )
        23           S   tau(  23) = (   0.3604225   0.9585725   0.1159032  )
        24           Mo  tau(  24) = (   0.0313099   0.1847895   0.3013130  )
        25           S   tau(  25) = (   0.1956761   0.0838230   0.4650863  )
        26           S   tau(  26) = (   0.1967693   0.0903508   0.1278874  )
        27           Mo  tau(  27) = (   0.1967578   0.4753919   0.2813011  )
        28           S   tau(  28) = (   0.0287851   0.3864324   0.4586755  )
        29           S   tau(  29) = (   0.0244514   0.3729871   0.1239344  )
        30           Mo  tau(  30) = (   0.0286728   0.7631204   0.2856894  )
        31           S   tau(  31) = (   0.2011512   0.6675435   0.4465001  )
        32           S   tau(  32) = (   0.1969214   0.6672839   0.1104564  )
        33           Mo  tau(  33) = (   0.1950294   1.0511147   0.2932237  )
        34           S   tau(  34) = (   0.0312912   0.9612169   0.4667423  )
        35           S   tau(  35) = (   0.0292670   0.9563028   0.1216485  )
        36           O   tau(  36) = (   0.3333333   1.0272628   0.5792558  )

     number of k points=     1  Gaussian smearing, width (Ry)=  0.0100
                       cart. coord. in units 2pi/alat
        k(    1) = (   0.0000000   0.0000000   0.0000000), wk =   2.0000000

     Dense  grid:  2439793 G-vectors     FFT dimensions: ( 150, 180, 384)

     Smooth grid:   842757 G-vectors     FFT dimensions: ( 108, 120, 270)

     Estimated max dynamical RAM per process >     269.22 MB

     Estimated total dynamical RAM >      12.62 GB

     Initial potential from superposition of free atoms

     starting charge     311.9873, renormalised to     312.0000

     negative rho (up, down):  2.757E-04 0.000E+00


---------------------------------------------------------------------------------
Carrying out rVV10 run using the following parameters:
Nqs =      20    Nr_points =    1024   r_max =   100.000
b_value =  6.30000    beta =  0.00901
     q_mesh =  0.00010000  0.00030000  0.00058939  0.00100810
               0.00161396  0.00249058  0.00375900  0.00559430
               0.00824984  0.01209221  0.01765183  0.02569619
               0.03733578  0.05417739  0.07854596  0.11380545
               0.16482331  0.23864234  0.34545298  0.50000000

Gradients computed in Reciprocal space

---------------------------------------------------------------------------------


     Starting wfcs are  216 randomized atomic wfcs
     Checking if some PAW data can be deallocated... 

     total cpu time spent up to now is        6.1 secs

     Self-consistent Calculation

     iteration #  1     ecut=    80.00 Ry     beta= 0.70
     Davidson diagonalization with overlap
     ethr =  1.00E-02,  avg # of iterations =  2.0

     Threshold (ethr) on eigenvalues was too large:
     Diagonalizing with lowered threshold

     Davidson diagonalization with overlap
     ethr =  4.44E-04,  avg # of iterations =  4.0

     negative rho (up, down):  4.297E-08 0.000E+00

     total cpu time spent up to now is       22.8 secs

     total energy              =   -2246.30806987 Ry
     estimated scf accuracy    <       1.63118136 Ry

     iteration #  2     ecut=    80.00 Ry     beta= 0.70
     Davidson diagonalization with overlap
     ethr =  5.23E-04,  avg # of iterations =  3.0

     total cpu time spent up to now is       27.7 secs

     total energy              =   -2246.30145751 Ry
     estimated scf accuracy    <       0.55338691 Ry

     iteration #  3     ecut=    80.00 Ry     beta= 0.70
     Davidson diagonalization with overlap
     ethr =  1.77E-04,  avg # of iterations =  2.0

     total cpu time spent up to now is       32.0 secs

     total energy              =   -2246.31239805 Ry
     estimated scf accuracy    <       0.12054684 Ry

     iteration #  4     ecut=    80.00 Ry     beta= 0.70
     Davidson diagonalization with overlap
     ethr =  3.86E-05,  avg # of iterations = 10.0

     total cpu time spent up to now is       36.9 secs

     total energy              =   -2246.33212711 Ry
     estimated scf accuracy    <       0.02327519 Ry

     iteration #  5     ecut=    80.00 Ry     beta= 0.70
     Davidson diagonalization with overlap
     c_bands:  1 eigenvalues not converged
     ethr =  7.46E-06,  avg # of iterations = 20.0

     total cpu time spent up to now is       41.7 secs

     total energy              =   -2246.33179726 Ry
     estimated scf accuracy    <       0.01429667 Ry

     iteration #  6     ecut=    80.00 Ry     beta= 0.70
     Davidson diagonalization with overlap
     c_bands:  1 eigenvalues not converged
     ethr =  4.58E-06,  avg # of iterations = 20.0

     total cpu time spent up to now is       46.4 secs

     total energy              =   -2246.33096957 Ry
     estimated scf accuracy    <       0.00930955 Ry

     iteration #  7     ecut=    80.00 Ry     beta= 0.70
     Davidson diagonalization with overlap
     ethr =  2.98E-06,  avg # of iterations = 19.0

     negative rho (up, down):  1.909E-05 0.000E+00

     total cpu time spent up to now is       53.1 secs

     total energy              =   -2246.33006188 Ry
     estimated scf accuracy    <       0.00556937 Ry

     iteration #  8     ecut=    80.00 Ry     beta= 0.70
     Davidson diagonalization with overlap
     ethr =  1.79E-06,  avg # of iterations =  2.0

     negative rho (up, down):  1.577E-02 0.000E+00

     total cpu time spent up to now is       59.6 secs

     total energy              =   -2246.32939325 Ry
     estimated scf accuracy    <       0.00319370 Ry

     iteration #  9     ecut=    80.00 Ry     beta= 0.70
     Davidson diagonalization with overlap
     ethr =  1.02E-06,  avg # of iterations =  2.0

     negative rho (up, down):  2.569E-02 0.000E+00

     total cpu time spent up to now is       66.2 secs

     total energy              =   -2246.32923956 Ry
     estimated scf accuracy    <       0.00161309 Ry

     iteration # 10     ecut=    80.00 Ry     beta= 0.70
     Davidson diagonalization with overlap
     ethr =  5.17E-07,  avg # of iterations =  2.0

     negative rho (up, down):  2.181E-02 0.000E+00

     total cpu time spent up to now is       72.9 secs

     total energy              =   -2246.32928800 Ry
     estimated scf accuracy    <       0.00054707 Ry

     iteration # 11     ecut=    80.00 Ry     beta= 0.70
     Davidson diagonalization with overlap
     ethr =  1.75E-07,  avg # of iterations =  4.0

     negative rho (up, down):  1.047E-02 0.000E+00

     total cpu time spent up to now is       80.9 secs

     total energy              =   -2246.32926583 Ry
     estimated scf accuracy    <       0.00007666 Ry

     iteration # 12     ecut=    80.00 Ry     beta= 0.70
     Davidson diagonalization with overlap
     ethr =  2.46E-08,  avg # of iterations = 13.0

     negative rho (up, down):  2.727E-03 0.000E+00

     total cpu time spent up to now is       89.5 secs

     total energy              =   -2246.32931673 Ry
     estimated scf accuracy    <       0.00002711 Ry

     iteration # 13     ecut=    80.00 Ry     beta= 0.70
     Davidson diagonalization with overlap
     ethr =  8.69E-09,  avg # of iterations =  2.0

     negative rho (up, down):  6.882E-04 0.000E+00

     total cpu time spent up to now is      100.0 secs

     total energy              =   -2246.32932168 Ry
     estimated scf accuracy    <       0.00000621 Ry

     iteration # 14     ecut=    80.00 Ry     beta= 0.70
     Davidson diagonalization with overlap
     ethr =  1.99E-09,  avg # of iterations =  2.0

     negative rho (up, down):  3.126E-04 0.000E+00

     total cpu time spent up to now is      108.0 secs

     total energy              =   -2246.32932327 Ry
     estimated scf accuracy    <       0.00000180 Ry

     iteration # 15     ecut=    80.00 Ry     beta= 0.70
     Davidson diagonalization with overlap
     ethr =  5.76E-10,  avg # of iterations =  2.0

     negative rho (up, down):  2.076E-04 0.000E+00

     total cpu time spent up to now is      112.2 secs

     End of self-consistent calculation

          k = 0.0000 0.0000 0.0000 (105382 PWs)   bands (ev):

   -62.9825 -62.9549 -62.9494 -62.9302 -62.9088 -62.9015 -62.8922 -62.8779
   -62.8745 -62.8682 -62.8171 -62.6975 -37.3322 -37.2773 -37.2428 -37.2303
   -37.1953 -37.1745 -37.1680 -37.1595 -37.1365 -37.1280 -37.1217 -37.1121
   -37.1035 -37.0914 -37.0840 -37.0806 -37.0683 -37.0666 -37.0639 -37.0620
   -37.0565 -37.0448 -37.0267 -37.0238 -36.9999 -36.9936 -36.9820 -36.9564
   -36.9450 -36.9357 -36.9093 -36.8871 -36.8733 -36.8643 -36.8146 -36.7730
   -23.7263 -16.0004 -15.2230 -15.2028 -15.0124 -14.9656 -14.8078 -14.5707
   -14.5268 -14.5141 -14.4901 -14.4400 -14.3967 -14.3787 -14.2983 -14.1975
   -14.1870 -14.1591 -14.1033 -13.9642 -13.9269 -13.9181 -13.8847 -13.5663
    -8.3176  -8.1858  -7.8146  -7.5706  -7.4943  -7.3474  -7.3058  -7.2756
    -7.1753  -7.1058  -7.0676  -6.8630  -6.8207  -6.7712  -6.6850  -6.6577
    -6.5550  -6.5028  -6.3972  -6.3356  -6.1190  -6.0973  -6.0322  -5.9233
    -5.8646  -5.8350  -5.8089  -5.7936  -5.7533  -5.7032  -5.6490  -5.5997
    -5.5755  -5.5656  -5.4557  -5.3210  -5.3061  -5.1978  -5.1676  -5.0841
    -5.0599  -4.9883  -4.9493  -4.9216  -4.7806  -4.6792  -4.5056  -4.3883
    -4.3403  -4.3008  -4.2680  -4.1680  -4.0412  -3.9949  -3.9253  -3.8420
    -3.8078  -3.7604  -3.7265  -3.6586  -3.6418  -3.5795  -3.5494  -3.5039
    -3.4534  -3.4457  -3.3485  -3.2761  -3.2396  -3.0999  -3.0277  -2.8859
    -2.8685  -2.8033  -2.7801  -2.7250  -2.7149  -2.6891  -2.5455  -2.3496
    -2.3253  -2.0935  -2.0306  -1.8833  -1.1033  -0.8438  -0.3543  -0.2181
    -0.1653  -0.1449  -0.0792   0.0186   0.0978   0.1181   0.1719   0.2158
     0.3126   0.3244   0.3413   0.4007   0.4741   0.4929   0.5463   0.5639
     0.6118   0.6665   0.6927   0.7222   0.7663   0.7770   0.8158   0.9002
     0.9484   1.0402   1.2450

     the Fermi energy is    -1.4933 ev

!    total energy              =   -2246.32932489 Ry
     estimated scf accuracy    <       0.00000069 Ry
     smearing contrib. (-TS)   =      -0.00000305 Ry
     internal energy E=F+TS    =   -2246.32932184 Ry

     The total energy is F=E-TS. E is the sum of the following terms:
     one-electron contribution =  -18439.50145065 Ry
     hartree contribution      =    9207.68162108 Ry
     xc contribution           =    -392.21935201 Ry
     ewald contribution        =    7387.56152131 Ry
     one-center paw contrib.   =      -9.85166157 Ry

     convergence has been achieved in  15 iterations

     negative rho (up, down):  2.076E-04 0.000E+00

     Forces acting on atoms (cartesian axes, Ry/au):

     atom    1 type  1   force =     0.01366334   -0.02573543    0.00499480
     atom    2 type  2   force =    -0.01417873    0.01694780    0.00172676
     atom    3 type  2   force =    -0.01179702    0.00908329   -0.00321637
     atom    4 type  1   force =     0.00507892    0.00416118   -0.00152067
     atom    5 type  2   force =    -0.00303167   -0.00608738   -0.00927395
     atom    6 type  2   force =    -0.00021448    0.01048002    0.00058833
     atom    7 type  1   force =     0.00225641   -0.00928832   -0.01139025
     atom    8 type  2   force =     0.00090922   -0.00394708    0.01672907
     atom    9 type  2   force =     0.01241297    0.00651860    0.01277702
     atom   10 type  1   force =    -0.00937426    0.00746474   -0.03044058
     atom   11 type  2   force =     0.00515138   -0.00353338   -0.00401108
     atom   12 type  2   force =     0.00350961   -0.00181469    0.00692463
     atom   13 type  1   force =     0.00463766    0.00042492   -0.00453026
     atom   14 type  2   force =     0.00973858   -0.00055958    0.01266780
     atom   15 type  2   force =    -0.01378548    0.00520198   -0.01076979
     atom   16 type  1   force =    -0.00026858    0.00886300    0.00828474
     atom   17 type  2   force =     0.00517185   -0.00040988    0.00060070
     atom   18 type  2   force =    -0.00047278   -0.00386000    0.01157359
     atom   19 type  1   force =     0.00550573   -0.03021733    0.01514575
     atom   20 type  2   force =     0.00076084   -0.00186883   -0.00131743
     atom   21 type  1   force =    -0.00311161    0.00582009   -0.00877665
     atom   22 type  2   force =     0.02837125   -0.02776399   -0.19901266
     atom   23 type  2   force =    -0.00087788    0.00180784    0.01209474
     atom   24 type  1   force =    -0.00894401    0.00075486   -0.02403895
     atom   25 type  2   force =     0.00793285    0.02597942    0.00162916
     atom   26 type  2   force =    -0.01045450    0.00077890   -0.00284137
     atom   27 type  1   force =     0.00071754    0.00221846    0.01060362
     atom   28 type  2   force =     0.00074577   -0.00221158   -0.00433351
     atom   29 type  2   force =     0.00326852    0.00074486   -0.00082941
     atom   30 type  1   force =    -0.00671773    0.01337297   -0.00428945
     atom   31 type  2   force =    -0.00403207   -0.00471836    0.01519874
     atom   32 type  2   force =    -0.00781918    0.00605081    0.00373884
     atom   33 type  1   force =    -0.00016830   -0.01048200   -0.05849189
     atom   34 type  2   force =     0.00380931   -0.04401073   -0.00835665
     atom   35 type  2   force =    -0.00878536    0.00734127    0.01662488
     atom   36 type  3   force =    -0.00960807    0.04249353    0.23553776
     The non-local contrib.  to forces
     atom    1 type  1   force =    -0.00138007    0.03348862   -0.01276972
     atom    2 type  2   force =    -0.01050041    0.00198687   -0.27347470
     atom    3 type  2   force =    -0.01587570   -0.00704908    0.27092160
     atom    4 type  1   force =     0.00461068    0.00242478    0.00617699
     atom    5 type  2   force =     0.00505576   -0.03222468   -0.25330333
     atom    6 type  2   force =    -0.00348626    0.01273240    0.26018480
     atom    7 type  1   force =    -0.01026432    0.00288074   -0.01839765
     atom    8 type  2   force =     0.00250888    0.00066197   -0.25801012
     atom    9 type  2   force =     0.00593103   -0.00527880    0.27909550
     atom   10 type  1   force =     0.00785231    0.00406766    0.00735550
     atom   11 type  2   force =     0.00621862    0.00795204   -0.26289530
     atom   12 type  2   force =    -0.00995430   -0.02094575    0.26114301
     atom   13 type  1   force =    -0.00217889    0.01709478   -0.00383107
     atom   14 type  2   force =     0.01702576    0.00221142   -0.26764647
     atom   15 type  2   force =    -0.01419906   -0.00356386    0.25923748
     atom   16 type  1   force =     0.00342525    0.01653160   -0.03471526
     atom   17 type  2   force =     0.00309714   -0.02836524   -0.25128162
     atom   18 type  2   force =    -0.00506647   -0.00134128    0.27361950
     atom   19 type  1   force =     0.01749502    0.01061623   -0.00428499
     atom   20 type  2   force =    -0.00517410   -0.02280427    0.26895899
     atom   21 type  1   force =    -0.01629133    0.00309194    0.02990328
     atom   22 type  2   force =    -0.04178040    0.11996122    0.12244480
     atom   23 type  2   force =     0.00846072   -0.01595862    0.27077927
     atom   24 type  1   force =     0.00821129    0.00784588   -0.00477482
     atom   25 type  2   force =     0.00313801    0.03441560   -0.26399083
     atom   26 type  2   force =    -0.00009594   -0.00945957    0.26137018
     atom   27 type  1   force =    -0.00834951    0.00008231    0.00996346
     atom   28 type  2   force =    -0.00030900   -0.02136489   -0.27707540
     atom   29 type  2   force =     0.00802351    0.00560807    0.26045445
     atom   30 type  1   force =    -0.00195397    0.01807049    0.00937460
     atom   31 type  2   force =     0.00087474    0.00427807   -0.25596499
     atom   32 type  2   force =     0.00346685   -0.01148591    0.27693177
     atom   33 type  1   force =     0.01489060   -0.00292744    0.03040549
     atom   34 type  2   force =    -0.00934013   -0.03817736   -0.27851561
     atom   35 type  2   force =    -0.00380697   -0.01357917    0.27074275
     atom   36 type  3   force =     0.60470395   -1.40057528   -1.75360293
     The ionic contribution  to forces
     atom    1 type  1   force =     0.86308841    0.95291032    4.40993687
     atom    2 type  2   force =    -0.79460970    0.78427903   38.97936703
     atom    3 type  2   force =    -0.19653480    0.15211206  -36.69279739
     atom    4 type  1   force =     0.05450749    0.50946141   -0.25602503
     atom    5 type  2   force =    -0.82415867    1.61608118   38.53647967
     atom    6 type  2   force =     0.39606578   -0.44225179  -38.51376143
     atom    7 type  1   force =    -2.02989234   -3.52276646    1.08841881
     atom    8 type  2   force =    -1.02950864   -0.29358650   37.12351771
     atom    9 type  2   force =     0.32957283   -0.15376741  -38.52513013
     atom   10 type  1   force =    -1.33775683   -0.23864267    4.07782908
     atom   11 type  2   force =     0.43519891   -1.92916570   38.57561939
     atom   12 type  2   force =     0.58946575    0.63013494  -38.57819502
     atom   13 type  1   force =     0.63383424    2.68393875    0.59784945
     atom   14 type  2   force =     1.30587686    1.46865949   37.57725284
     atom   15 type  2   force =     0.32737795    0.16480814  -37.61540558
     atom   16 type  1   force =     0.23488703    3.81814867   -0.64180220
     atom   17 type  2   force =     0.84943682    1.77123171   37.62928211
     atom   18 type  2   force =    -0.14833477   -0.56157449  -39.12876906
     atom   19 type  1   force =     2.92654666   -4.22801057   -2.07201415
     atom   20 type  2   force =     0.32139709   -0.37934567  -39.10735090
     atom   21 type  1   force =     2.03183815    0.27532448   -2.65466833
     atom   22 type  2   force =     2.65655039   -7.06595105   30.31614070
     atom   23 type  2   force =    -0.04460329    0.54565351  -39.42892408
     atom   24 type  1   force =    -1.19725288    2.03225135    4.39680876
     atom   25 type  2   force =    -0.66850907    2.39494129   38.01463193
     atom   26 type  2   force =    -0.42742796    0.32226803  -38.20744767
     atom   27 type  1   force =    -0.18824708    0.26863158   -3.41677410
     atom   28 type  2   force =    -0.12510201    1.16224204   37.98086401
     atom   29 type  2   force =    -0.32861516   -0.36406016  -37.76634960
     atom   30 type  1   force =    -1.08450675   -1.79076213   -1.66723541
     atom   31 type  2   force =     0.86691800   -1.01567277   36.80390135
     atom   32 type  2   force =    -0.55657083   -0.20501313  -39.28999577
     atom   33 type  1   force =    -1.17047892   -0.49123392   -2.83431062
     atom   34 type  2   force =    -1.31225072   -1.84144714   38.56944616
     atom   35 type  2   force =    -0.49754130    0.40363029  -38.61212626
     atom   36 type  3   force =    -0.86066063    2.56654328   50.33173688
     The local contribution  to forces
     atom    1 type  1   force =    -0.84815302   -1.01225007   -4.39305974
     atom    2 type  2   force =     0.79063547   -0.76924431  -38.72519948
     atom    3 type  2   force =     0.19985131   -0.13627114   36.43896225
     atom    4 type  1   force =    -0.05393338   -0.50772180    0.24730952
     atom    5 type  2   force =     0.81656639   -1.59175135  -38.31302896
     atom    6 type  2   force =    -0.39319877    0.44115990   38.27428192
     atom    7 type  1   force =     2.04244737    3.51066611   -1.08233324
     atom    8 type  2   force =     1.02798590    0.28869433  -36.86951744
     atom    9 type  2   force =    -0.32297828    0.16521577   38.27930599
     atom   10 type  1   force =     1.32051786    0.24205530   -4.11649665
     atom   11 type  2   force =    -0.43614042    1.91830537  -38.33758928
     atom   12 type  2   force =    -0.57696361   -0.61255860   38.34410760
     atom   13 type  1   force =    -0.62693584   -2.70063726   -0.59945820
     atom   14 type  2   force =    -1.31217153   -1.47084801  -37.31812156
     atom   15 type  2   force =    -0.32773826   -0.15628447   37.36523848
     atom   16 type  1   force =    -0.23867015   -3.82585267    0.68380292
     atom   17 type  2   force =    -0.84727998   -1.74475645  -37.39789532
     atom   18 type  2   force =     0.15286372    0.55969128   38.88716944
     atom   19 type  1   force =    -2.93866396    4.18725890    2.09049439
     atom   20 type  2   force =    -0.31591130    0.39937913   38.85776469
     atom   21 type  1   force =    -2.01871757   -0.27248011    2.61503524
     atom   22 type  2   force =    -2.58858567    6.92455093  -30.63872261
     atom   23 type  2   force =     0.03589276   -0.52923102   39.19073606
     atom   24 type  1   force =     1.18011947   -2.03946298   -4.41694228
     atom   25 type  2   force =     0.67286594   -2.40119256  -37.77032584
     atom   26 type  2   force =     0.41738253   -0.31248310   37.96333658
     atom   27 type  1   force =     0.19731844   -0.26640774    3.41639920
     atom   28 type  2   force =     0.12608148   -1.14470368  -37.72936565
     atom   29 type  2   force =     0.32449501    0.36003211   37.52486137
     atom   30 type  1   force =     1.07979902    1.78608678    1.65262340
     atom   31 type  2   force =    -0.87175848    1.00693700  -36.55349036
     atom   32 type  2   force =     0.54573245    0.22189648   39.03739564
     atom   33 type  1   force =     1.15545020    0.48366393    2.74446453
     atom   34 type  2   force =     1.32461846    1.83425466  -38.32088307
     atom   35 type  2   force =     0.49251083   -0.38384622   38.37845132
     atom   36 type  3   force =     0.25266382   -1.13792635  -48.35977711
     The core correction contribution to forces
     atom    1 type  1   force =     0.00000000    0.00000000    0.00000000
     atom    2 type  2   force =     0.00028782   -0.00012714    0.02092209
     atom    3 type  2   force =     0.00074585    0.00024452   -0.02091887
     atom    4 type  1   force =     0.00000000    0.00000000    0.00000000
     atom    5 type  2   force =    -0.00051884    0.00176275    0.02043476
     atom    6 type  2   force =     0.00039132   -0.00120064   -0.02075488
     atom    7 type  1   force =     0.00000000    0.00000000    0.00000000
     atom    8 type  2   force =    -0.00002781    0.00032086    0.02059786
     atom    9 type  2   force =    -0.00004768    0.00033828   -0.02111959
     atom   10 type  1   force =     0.00000000    0.00000000    0.00000000
     atom   11 type  2   force =    -0.00010409   -0.00056515    0.02076526
     atom   12 type  2   force =     0.00097600    0.00163571   -0.02076750
     atom   13 type  1   force =     0.00000000    0.00000000    0.00000000
     atom   14 type  2   force =    -0.00098138   -0.00058793    0.02105053
     atom   15 type  2   force =     0.00077092    0.00022169   -0.02045937
     atom   16 type  1   force =     0.00000000    0.00000000    0.00000000
     atom   17 type  2   force =    -0.00007078    0.00143173    0.02034281
     atom   18 type  2   force =     0.00007721   -0.00066472   -0.02105968
     atom   19 type  1   force =     0.00000000    0.00000000    0.00000000
     atom   20 type  2   force =     0.00038706    0.00088449   -0.02134460
     atom   21 type  1   force =     0.00000000    0.00000000    0.00000000
     atom   22 type  2   force =     0.00219422   -0.00638807    0.00098488
     atom   23 type  2   force =    -0.00064837    0.00135738   -0.02109554
     atom   24 type  1   force =     0.00000000    0.00000000    0.00000000
     atom   25 type  2   force =     0.00044899   -0.00219547    0.02121194
     atom   26 type  2   force =    -0.00029483    0.00041804   -0.02073720
     atom   27 type  1   force =     0.00000000    0.00000000    0.00000000
     atom   28 type  2   force =     0.00009270    0.00161131    0.02109498
     atom   29 type  2   force =    -0.00064194   -0.00082496   -0.02043397
     atom   30 type  1   force =     0.00000000    0.00000000    0.00000000
     atom   31 type  2   force =    -0.00004834   -0.00020516    0.02060896
     atom   32 type  2   force =    -0.00044951    0.00067074   -0.02117661
     atom   33 type  1   force =     0.00000000    0.00000000    0.00000000
     atom   34 type  2   force =     0.00077285    0.00136028    0.02147717
     atom   35 type  2   force =     0.00005428    0.00115032   -0.02105853
     atom   36 type  3   force =    -0.00628862    0.01440232    0.01697721
     The Hubbard contrib.    to forces
     atom    1 type  1   force =     0.00000000    0.00000000    0.00000000
     atom    2 type  2   force =     0.00000000    0.00000000    0.00000000
     atom    3 type  2   force =     0.00000000    0.00000000    0.00000000
     atom    4 type  1   force =     0.00000000    0.00000000    0.00000000
     atom    5 type  2   force =     0.00000000    0.00000000    0.00000000
     atom    6 type  2   force =     0.00000000    0.00000000    0.00000000
     atom    7 type  1   force =     0.00000000    0.00000000    0.00000000
     atom    8 type  2   force =     0.00000000    0.00000000    0.00000000
     atom    9 type  2   force =     0.00000000    0.00000000    0.00000000
     atom   10 type  1   force =     0.00000000    0.00000000    0.00000000
     atom   11 type  2   force =     0.00000000    0.00000000    0.00000000
     atom   12 type  2   force =     0.00000000    0.00000000    0.00000000
     atom   13 type  1   force =     0.00000000    0.00000000    0.00000000
     atom   14 type  2   force =     0.00000000    0.00000000    0.00000000
     atom   15 type  2   force =     0.00000000    0.00000000    0.00000000
     atom   16 type  1   force =     0.00000000    0.00000000    0.00000000
     atom   17 type  2   force =     0.00000000    0.00000000    0.00000000
     atom   18 type  2   force =     0.00000000    0.00000000    0.00000000
     atom   19 type  1   force =     0.00000000    0.00000000    0.00000000
     atom   20 type  2   force =     0.00000000    0.00000000    0.00000000
     atom   21 type  1   force =     0.00000000    0.00000000    0.00000000
     atom   22 type  2   force =     0.00000000    0.00000000    0.00000000
     atom   23 type  2   force =     0.00000000    0.00000000    0.00000000
     atom   24 type  1   force =     0.00000000    0.00000000    0.00000000
     atom   25 type  2   force =     0.00000000    0.00000000    0.00000000
     atom   26 type  2   force =     0.00000000    0.00000000    0.00000000
     atom   27 type  1   force =     0.00000000    0.00000000    0.00000000
     atom   28 type  2   force =     0.00000000    0.00000000    0.00000000
     atom   29 type  2   force =     0.00000000    0.00000000    0.00000000
     atom   30 type  1   force =     0.00000000    0.00000000    0.00000000
     atom   31 type  2   force =     0.00000000    0.00000000    0.00000000
     atom   32 type  2   force =     0.00000000    0.00000000    0.00000000
     atom   33 type  1   force =     0.00000000    0.00000000    0.00000000
     atom   34 type  2   force =     0.00000000    0.00000000    0.00000000
     atom   35 type  2   force =     0.00000000    0.00000000    0.00000000
     atom   36 type  3   force =     0.00000000    0.00000000    0.00000000
     The SCF correction term to forces
     atom    1 type  1   force =     0.00010825    0.00011486    0.00086008
     atom    2 type  2   force =     0.00000832    0.00005249    0.00008451
     atom    3 type  2   force =     0.00001657    0.00004607    0.00058872
     atom    4 type  1   force =    -0.00010563   -0.00000406    0.00099053
     atom    5 type  2   force =     0.00002392    0.00004387    0.00011659
     atom    6 type  2   force =     0.00001368    0.00003931    0.00061062
     atom    7 type  1   force =    -0.00003406   -0.00006956    0.00089451
     atom    8 type  2   force =    -0.00004887   -0.00003858    0.00011373
     atom    9 type  2   force =    -0.00006469    0.00000992    0.00059791
     atom   10 type  1   force =     0.00001263   -0.00001639    0.00084417
     atom   11 type  2   force =    -0.00002141   -0.00006079    0.00006153
     atom   12 type  2   force =    -0.00001400   -0.00008184    0.00060922
     atom   13 type  1   force =    -0.00008162    0.00002780    0.00088224
     atom   14 type  2   force =    -0.00001090    0.00000460    0.00010514
     atom   15 type  2   force =     0.00000321    0.00001964    0.00059188
     atom   16 type  1   force =     0.00008953    0.00003455    0.00097196
     atom   17 type  2   force =    -0.00001112    0.00004752    0.00012540
     atom   18 type  2   force =    -0.00001225    0.00002835    0.00058606
     atom   19 type  1   force =     0.00012824   -0.00008275    0.00092318
     atom   20 type  2   force =     0.00006233    0.00001663    0.00062707
     atom   21 type  1   force =     0.00005938   -0.00011706    0.00092585
     atom   22 type  2   force =    -0.00000704    0.00006214    0.00011226
     atom   23 type  2   force =     0.00002053   -0.00001425    0.00057171
     atom   24 type  1   force =    -0.00002165    0.00011975    0.00084207
     atom   25 type  2   force =    -0.00001080    0.00000971    0.00007464
     atom   26 type  2   force =    -0.00001808    0.00003466    0.00060942
     atom   27 type  1   force =    -0.00000408   -0.00008854    0.00098775
     atom   28 type  2   force =    -0.00001715    0.00000279    0.00012123
     atom   29 type  2   force =     0.00000734   -0.00001104    0.00061102
     atom   30 type  1   force =    -0.00005579   -0.00002302    0.00092064
     atom   31 type  2   force =    -0.00001775   -0.00005634    0.00011647
     atom   32 type  2   force =     0.00000209   -0.00001821    0.00055648
     atom   33 type  1   force =    -0.00002994    0.00001458    0.00092139
     atom   34 type  2   force =     0.00000909   -0.00000202    0.00009137
     atom   35 type  2   force =    -0.00000196   -0.00001480    0.00058828
     atom   36 type  3   force =    -0.00002634    0.00004873    0.00017639

     Total force =     0.336404     Total SCF correction =     0.003826

     BFGS Geometry Optimization
     Energy error            =      0.0E+00 Ry
     Gradient error          =      2.4E-01 Ry/Bohr

     number of scf cycles    =   1
     number of bfgs steps    =   0

     energy             new  =   -2246.3293248914 Ry

     new trust radius        =       0.2395329863 bohr
     new conv_thr            =       0.0000010000 Ry


ATOMIC_POSITIONS (angstrom)
Mo            6.5817787357        1.7741876275        2.8262861687
S             8.1692062779        0.8186724153        4.4354521139
S             8.1869903720        0.8160484162        1.2761813960
Mo            8.0978502152        4.4972589462        2.7170136873
S             6.4983049656        3.7191901863        4.3417530856
S             6.5532362988        3.5172833458        1.1215915606
Mo            6.4911757345        7.2135221149        2.6658570230
S             8.0822088660        6.3417822885        4.2513142079
S             8.0874863064        6.3081518126        1.0906243040
Mo            8.1556584044        9.9061305827        2.8273532978
S             6.4978935875        8.9410570325        4.3809829609
S             6.6198044033        9.0477509187        1.1435716586
Mo            3.4241138073        1.7471807103        2.7740738514
S             4.9803189232        0.8166450916        4.3572366014
S             5.0505387931        0.8490148794        1.2209593344
Mo            4.9796145540        4.5178681025        2.6372686425
S             3.4305784853        3.6713827874        4.2800274552
S             3.4376703955        3.5461860738        1.0644761597
Mo            3.4567752443        7.2003342148        2.6386916500
S             4.9836368106        6.3259433412        1.0365565780
Mo            5.0106173251        9.9046799079        2.7387565576
S             3.4859715380        8.9290591993        4.2202783487
S             3.4079646132        9.0659466504        1.1024685589
Mo            0.2913575219        1.7479089861        2.8367238462
S             1.8546600937        0.8064417246        4.3990715528
S             1.8552677497        0.8548380959        1.2078972677
Mo            1.8610710140        4.4968407215        2.6658085759
S             0.2726084929        3.6532285089        4.3352909035
S             0.2329608335        3.5276433898        1.1715789774
Mo            0.2675972839        7.2237227669        2.6994265475
S             1.9001045675        6.3103019844        4.2304869499
S             1.8581004818        6.3135457622        1.0465377895
Mo            1.8442576043        9.9345923184        2.7419936766
S             0.2979286989        9.0667083526        4.4094473185
S             0.2721223860        9.0474105453        1.1591982885
O             3.1471689604        9.7370643858        5.6025246410



     Writing config-only to output data dir ./MoS2-V-O.save/
     NEW-OLD atomic charge density approx. for the potential

     negative rho (up, down):  1.838E-04 0.000E+00

     total cpu time spent up to now is      120.2 secs

     Self-consistent Calculation

     iteration #  1     ecut=    80.00 Ry     beta= 0.70
     Davidson diagonalization with overlap
     c_bands:  1 eigenvalues not converged
     ethr =  1.00E-06,  avg # of iterations = 20.0

     negative rho (up, down):  2.208E-03 0.000E+00

     total cpu time spent up to now is      136.4 secs

     total energy              =   -2246.35224048 Ry
     estimated scf accuracy    <       0.02637583 Ry

     iteration #  2     ecut=    80.00 Ry     beta= 0.70
     Davidson diagonalization with overlap
     ethr =  8.45E-06,  avg # of iterations =  4.0

     negative rho (up, down):  4.133E-03 0.000E+00

     total cpu time spent up to now is      149.1 secs

     total energy              =   -2246.35213647 Ry
     estimated scf accuracy    <       0.00985283 Ry

     iteration #  3     ecut=    80.00 Ry     beta= 0.70
     Davidson diagonalization with overlap
     ethr =  3.16E-06,  avg # of iterations =  3.0

     negative rho (up, down):  6.311E-03 0.000E+00

     total cpu time spent up to now is      160.0 secs

     total energy              =   -2246.35240054 Ry
     estimated scf accuracy    <       0.00238366 Ry

     iteration #  4     ecut=    80.00 Ry     beta= 0.70
     Davidson diagonalization with overlap
     ethr =  7.64E-07,  avg # of iterations =  3.0

     negative rho (up, down):  6.896E-03 0.000E+00

     total cpu time spent up to now is      173.0 secs

     total energy              =   -2246.35242308 Ry
     estimated scf accuracy    <       0.00093006 Ry

     iteration #  5     ecut=    80.00 Ry     beta= 0.70
     Davidson diagonalization with overlap
     ethr =  2.98E-07,  avg # of iterations =  5.0

     negative rho (up, down):  6.368E-03 0.000E+00

     total cpu time spent up to now is      184.0 secs

     total energy              =   -2246.35245425 Ry
     estimated scf accuracy    <       0.00016115 Ry

     iteration #  6     ecut=    80.00 Ry     beta= 0.70
     Davidson diagonalization with overlap
     ethr =  5.16E-08,  avg # of iterations =  6.0

     negative rho (up, down):  5.342E-03 0.000E+00

     total cpu time spent up to now is      195.7 secs

     total energy              =   -2246.35246458 Ry
     estimated scf accuracy    <       0.00007979 Ry

     iteration #  7     ecut=    80.00 Ry     beta= 0.70
     Davidson diagonalization with overlap
     ethr =  2.56E-08,  avg # of iterations =  4.0

     negative rho (up, down):  3.518E-03 0.000E+00

     total cpu time spent up to now is      205.8 secs

     total energy              =   -2246.35245351 Ry
     estimated scf accuracy    <       0.00001428 Ry

     iteration #  8     ecut=    80.00 Ry     beta= 0.70
     Davidson diagonalization with overlap
     ethr =  4.58E-09,  avg # of iterations =  5.0

     negative rho (up, down):  2.537E-03 0.000E+00

     total cpu time spent up to now is      217.1 secs

     total energy              =   -2246.35244585 Ry
     estimated scf accuracy    <       0.00001908 Ry

     iteration #  9     ecut=    80.00 Ry     beta= 0.70
     Davidson diagonalization with overlap
     ethr =  4.58E-09,  avg # of iterations =  4.0

     negative rho (up, down):  1.143E-03 0.000E+00

     total cpu time spent up to now is      226.2 secs

     total energy              =   -2246.35243747 Ry
     estimated scf accuracy    <       0.00000280 Ry

     iteration # 10     ecut=    80.00 Ry     beta= 0.70
     Davidson diagonalization with overlap
     ethr =  8.99E-10,  avg # of iterations =  5.0

     negative rho (up, down):  6.395E-04 0.000E+00

     total cpu time spent up to now is      237.4 secs

     total energy              =   -2246.35243474 Ry
     estimated scf accuracy    <       0.00000150 Ry

     iteration # 11     ecut=    80.00 Ry     beta= 0.70
     Davidson diagonalization with overlap
     ethr =  4.82E-10,  avg # of iterations =  4.0

     negative rho (up, down):  1.906E-04 0.000E+00

     total cpu time spent up to now is      241.6 secs

     End of self-consistent calculation

          k = 0.0000 0.0000 0.0000 (105382 PWs)   bands (ev):

   -63.0553 -63.0263 -63.0131 -62.9937 -62.9867 -62.9672 -62.9568 -62.9452
   -62.9426 -62.9319 -62.9270 -62.8198 -37.4089 -37.3558 -37.3129 -37.3024
   -37.2695 -37.2464 -37.2409 -37.2334 -37.2094 -37.1998 -37.1933 -37.1838
   -37.1755 -37.1646 -37.1575 -37.1531 -37.1423 -37.1369 -37.1335 -37.1309
   -37.1212 -37.1158 -37.1066 -37.1036 -37.0949 -37.0723 -37.0578 -37.0434
   -37.0299 -37.0131 -36.9993 -36.9785 -36.9513 -36.9372 -36.9160 -36.8879
   -20.8234 -16.0773 -15.3185 -15.2693 -15.0894 -15.0385 -14.8736 -14.6334
   -14.6257 -14.5763 -14.5564 -14.5298 -14.4562 -14.4439 -14.3773 -14.2721
   -14.2529 -14.2386 -14.1688 -14.0898 -14.0097 -13.9892 -13.9524 -13.9356
    -7.9460  -7.7412  -7.6128  -7.5410  -7.4856  -7.4168  -7.3655  -7.3059
    -7.2311  -7.0486  -7.0134  -6.9313  -6.8814  -6.7845  -6.7209  -6.6875
    -6.6277  -6.5367  -6.4394  -6.4083  -6.1449  -6.1152  -6.0863  -5.9891
    -5.9262  -5.8884  -5.8716  -5.8571  -5.8189  -5.7752  -5.7194  -5.6606
    -5.6300  -5.5931  -5.5047  -5.3437  -5.3163  -5.2398  -5.2026  -5.1396
    -5.1054  -5.0514  -5.0074  -4.9002  -4.7880  -4.7233  -4.5131  -4.4706
    -4.3872  -4.3582  -4.2486  -4.2029  -4.0754  -3.9901  -3.9230  -3.8990
    -3.8691  -3.7952  -3.7708  -3.7241  -3.6988  -3.6607  -3.6280  -3.5653
    -3.5194  -3.5150  -3.3507  -3.3186  -3.2408  -3.1253  -3.0591  -2.9685
    -2.9522  -2.8826  -2.8484  -2.8074  -2.7779  -2.7731  -2.5493  -2.4215
    -2.3403  -2.1515  -2.1150  -1.9758  -1.1654  -0.9327  -0.4128  -0.2934
    -0.2319  -0.1987  -0.1274  -0.0404   0.0215   0.0505   0.1186   0.1538
     0.2465   0.2503   0.2798   0.3374   0.3990   0.4232   0.4827   0.5003
     0.5339   0.5973   0.6145   0.6496   0.6840   0.7009   0.7500   0.8445
     0.8717   0.9545   1.1814

     the Fermi energy is    -1.5706 ev

!    total energy              =   -2246.35243378 Ry
     estimated scf accuracy    <       0.00000027 Ry
     smearing contrib. (-TS)   =      -0.00000159 Ry
     internal energy E=F+TS    =   -2246.35243220 Ry

     The total energy is F=E-TS. E is the sum of the following terms:
     one-electron contribution =  -18428.58848252 Ry
     hartree contribution      =    9201.70187601 Ry
     xc contribution           =    -392.03261096 Ry
     ewald contribution        =    7382.43161306 Ry
     one-center paw contrib.   =      -9.86482779 Ry

     convergence has been achieved in  11 iterations

     negative rho (up, down):  1.906E-04 0.000E+00

     Forces acting on atoms (cartesian axes, Ry/au):

     atom    1 type  1   force =     0.00234161   -0.01234707   -0.00142279
     atom    2 type  2   force =    -0.00798971    0.01014539   -0.00073136
     atom    3 type  2   force =    -0.01081462    0.00741389   -0.01025596
     atom    4 type  1   force =     0.00443356    0.00290077    0.00019672
     atom    5 type  2   force =    -0.00059289   -0.00668883   -0.00747443
     atom    6 type  2   force =     0.00002150    0.00704518    0.00301773
     atom    7 type  1   force =     0.00451764   -0.00849022   -0.00098769
     atom    8 type  2   force =     0.00061730   -0.00281005    0.01161142
     atom    9 type  2   force =     0.01062958    0.00550318    0.00729890
     atom   10 type  1   force =    -0.00429965    0.00462104   -0.00925638
     atom   11 type  2   force =     0.00414619   -0.00257171   -0.00828358
     atom   12 type  2   force =     0.00103043   -0.00185556   -0.00014649
     atom   13 type  1   force =     0.00358735    0.00080143   -0.00010102
     atom   14 type  2   force =     0.00616743   -0.00325309    0.00903519
     atom   15 type  2   force =    -0.00923645    0.00452073   -0.00955748
     atom   16 type  1   force =     0.00015769    0.00621401    0.00380404
     atom   17 type  2   force =     0.00505805   -0.00070963    0.00215795
     atom   18 type  2   force =     0.00020307   -0.00186327    0.01025595
     atom   19 type  1   force =     0.00642333   -0.03782253   -0.01077181
     atom   20 type  2   force =     0.00140401   -0.00395775   -0.00292849
     atom   21 type  1   force =     0.01257432    0.01425660   -0.01524619
     atom   22 type  2   force =    -0.04835803    0.12524583    0.11817076
     atom   23 type  2   force =     0.00208709   -0.00412235    0.00058812
     atom   24 type  1   force =    -0.00585755    0.00243833   -0.01187352
     atom   25 type  2   force =     0.00727120    0.00981368   -0.00612745
     atom   26 type  2   force =    -0.00747959    0.00319241   -0.00843064
     atom   27 type  1   force =    -0.00103304    0.00222500    0.00583193
     atom   28 type  2   force =     0.00010888   -0.00304642   -0.00432503
     atom   29 type  2   force =     0.00318896    0.00274083   -0.00248416
     atom   30 type  1   force =    -0.00400426    0.00386016    0.00313500
     atom   31 type  2   force =    -0.00428220   -0.00249807    0.01508032
     atom   32 type  2   force =    -0.00752174    0.00427458    0.00492869
     atom   33 type  1   force =    -0.00570517    0.00284630   -0.01694012
     atom   34 type  2   force =     0.00372652   -0.02952821   -0.01671536
     atom   35 type  2   force =    -0.01078469    0.00576678    0.00292985
     atom   36 type  3   force =     0.04826388   -0.10426135   -0.05398261
     The non-local contrib.  to forces
     atom    1 type  1   force =    -0.00085113    0.03014589   -0.01200441
     atom    2 type  2   force =    -0.00700376   -0.00227272   -0.27434274
     atom    3 type  2   force =    -0.01339744   -0.01003285    0.26529717
     atom    4 type  1   force =     0.00543939    0.00340713    0.00563329
     atom    5 type  2   force =     0.00680173   -0.03298818   -0.25442822
     atom    6 type  2   force =    -0.00333765    0.00980161    0.26362201
     atom    7 type  1   force =    -0.00937485    0.00368685   -0.01951412
     atom    8 type  2   force =     0.00265890    0.00125664   -0.26203069
     atom    9 type  2   force =     0.00391828   -0.00589666    0.27674174
     atom   10 type  1   force =     0.00840086    0.00350315    0.00552082
     atom   11 type  2   force =     0.00776989    0.00753683   -0.26898962
     atom   12 type  2   force =    -0.01228407   -0.02092816    0.25916450
     atom   13 type  1   force =    -0.00192680    0.01791144   -0.00465394
     atom   14 type  2   force =     0.01323201    0.00125376   -0.27359195
     atom   15 type  2   force =    -0.01146350   -0.00557882    0.25929852
     atom   16 type  1   force =     0.00436710    0.01597669   -0.03503582
     atom   17 type  2   force =     0.00276437   -0.02840130   -0.25186415
     atom   18 type  2   force =    -0.00404075    0.00001388    0.27348320
     atom   19 type  1   force =     0.01513166    0.01121343   -0.00708606
     atom   20 type  2   force =    -0.00287914   -0.02312709    0.26629927
     atom   21 type  1   force =    -0.00938032    0.00857428    0.02317584
     atom   22 type  2   force =    -0.08839137    0.20380887    0.34960795
     atom   23 type  2   force =     0.01004184   -0.01965672    0.26797000
     atom   24 type  1   force =     0.00798242    0.00856910   -0.00392320
     atom   25 type  2   force =     0.00814197    0.01797168   -0.27202498
     atom   26 type  2   force =     0.00205147   -0.01072025    0.25936688
     atom   27 type  1   force =    -0.00891774   -0.00022721    0.00894875
     atom   28 type  2   force =    -0.00111867   -0.02086881   -0.27874503
     atom   29 type  2   force =     0.00784514    0.00590056    0.26122034
     atom   30 type  1   force =    -0.00294758    0.02017594    0.00805889
     atom   31 type  2   force =    -0.00034537    0.00534988   -0.25892771
     atom   32 type  2   force =     0.00184497   -0.01267504    0.27613446
     atom   33 type  1   force =     0.00541399    0.00206284    0.02568537
     atom   34 type  2   force =    -0.01265341   -0.02916581   -0.28846710
     atom   35 type  2   force =    -0.00379001   -0.01326739    0.26276802
     atom   36 type  3   force =     0.45260817   -1.03324692   -1.55739407
     The ionic contribution  to forces
     atom    1 type  1   force =     0.58399360    1.25219665    4.55457327
     atom    2 type  2   force =    -0.57873343    0.62725610   39.06639010
     atom    3 type  2   force =    -0.19541377    0.19909818  -36.79195969
     atom    4 type  1   force =    -0.00039678    0.42895873   -0.19835866
     atom    5 type  2   force =    -0.80125291    1.57556528   38.45230973
     atom    6 type  2   force =     0.34808981   -0.48954813  -38.40753059
     atom    7 type  1   force =    -2.00129720   -3.39788080    0.99013570
     atom    8 type  2   force =    -1.04050653   -0.26559948   37.25060543
     atom    9 type  2   force =     0.32899676   -0.21156927  -38.49247316
     atom   10 type  1   force =    -1.11803773   -0.21075717    3.85978476
     atom   11 type  2   force =     0.40738228   -1.89654015   38.57968810
     atom   12 type  2   force =     0.50042881    0.58398238  -38.56232472
     atom   13 type  1   force =     0.58838521    2.52730579    0.74633784
     atom   14 type  2   force =     1.14296142    1.35969581   37.67312271
     atom   15 type  2   force =     0.34237652    0.23927721  -37.64822999
     atom   16 type  1   force =     0.33803255    3.55697747   -0.39757852
     atom   17 type  2   force =     0.84305276    1.68285199   37.65848768
     atom   18 type  2   force =    -0.13661117   -0.53419739  -39.04067970
     atom   19 type  1   force =     2.85469223   -4.33743605   -1.65569077
     atom   20 type  2   force =     0.29290339   -0.38465192  -39.18573714
     atom   21 type  1   force =     2.13546455    0.47553217   -2.58501665
     atom   22 type  2   force =     1.75530481   -5.16864365   31.28222093
     atom   23 type  2   force =     0.05760996    0.39387310  -39.41602826
     atom   24 type  1   force =    -0.96743622    1.85275856    4.12902913
     atom   25 type  2   force =    -0.67255780    2.03128177   37.90517561
     atom   26 type  2   force =    -0.36045805    0.43373476  -38.16593287
     atom   27 type  1   force =    -0.24012771    0.20730625   -3.10822234
     atom   28 type  2   force =    -0.13162377    1.07370285   37.97720818
     atom   29 type  2   force =    -0.29619325   -0.29201878  -37.77034627
     atom   30 type  1   force =    -0.97623738   -1.92745524   -1.54222837
     atom   31 type  2   force =     0.79818057   -0.90125494   36.97028508
     atom   32 type  2   force =    -0.53951288   -0.23606197  -39.25526642
     atom   33 type  1   force =    -1.22534099   -0.10145544   -3.30950583
     atom   34 type  2   force =    -1.14298755   -1.55340285   38.51140651
     atom   35 type  2   force =    -0.53683071    0.34037748  -38.60340630
     atom   36 type  3   force =    -0.35629939    1.06674070   48.52975547
     The local contribution  to forces
     atom    1 type  1   force =    -0.58075371   -1.29461520   -4.54416019
     atom    2 type  2   force =     0.57747462   -0.61475830  -38.81376846
     atom    3 type  2   force =     0.19736887   -0.18204617   36.53694456
     atom    4 type  1   force =    -0.00059746   -0.42953861    0.19263590
     atom    5 type  2   force =     0.79443306   -1.55101219  -38.22580058
     atom    6 type  2   force =    -0.34506426    0.48793520   38.16750694
     atom    7 type  1   force =     2.01518848    3.38553641   -0.97190376
     atom    8 type  2   force =     1.03851705    0.26115282  -36.99771503
     atom    9 type  2   force =    -0.32233577    0.22259162   38.24385378
     atom   10 type  1   force =     1.10535821    0.21193089   -3.87485752
     atom   11 type  2   force =    -0.41083194    1.88697610  -38.34003868
     atom   12 type  2   force =    -0.48810980   -0.56648332   38.32346728
     atom   13 type  1   force =    -0.58282311   -2.54431150   -0.74187578
     atom   14 type  2   force =    -1.14908127   -1.36350624  -37.41190094
     atom   15 type  2   force =    -0.34079075   -0.22953482   37.39961115
     atom   16 type  1   force =    -0.34224464   -3.56670824    0.43619971
     atom   17 type  2   force =    -0.84068902   -1.65652874  -37.42485199
     atom   18 type  2   force =     0.14083603    0.53305885   38.79828066
     atom   19 type  1   force =    -2.86342157    4.28821763    1.65188435
     atom   20 type  2   force =    -0.28886628    0.40283598   38.93755236
     atom   21 type  1   force =    -2.11346578   -0.46974098    2.54647158
     atom   22 type  2   force =    -1.72034420    5.10229498  -31.50126155
     atom   23 type  2   force =    -0.06497825   -0.37969964   39.16934557
     atom   24 type  1   force =     0.95350392   -1.85873171   -4.13721361
     atom   25 type  2   force =     0.67146211   -2.03769279  -37.66078567
     atom   26 type  2   force =     0.35123581   -0.42040760   37.91854991
     atom   27 type  1   force =     0.24800107   -0.20485217    3.10486601
     atom   28 type  2   force =     0.13272514   -1.05737765  -37.72395581
     atom   29 type  2   force =     0.29211472    0.28965102   37.52688312
     atom   30 type  1   force =     0.97519647    1.91103941    1.53703485
     atom   31 type  2   force =    -0.80200569    0.89355395  -36.71706390
     atom   32 type  2   force =     0.53050189    0.25223595   39.00494642
     atom   33 type  1   force =     1.21415934    0.10223953    3.26678571
     atom   34 type  2   force =     1.15830812    1.55191425  -38.26161893
     atom   35 type  2   force =     0.52984958   -0.32240190   38.36416847
     atom   36 type  3   force =    -0.04287387   -0.14945376  -47.04327226
     The core correction contribution to forces
     atom    1 type  1   force =     0.00000000    0.00000000    0.00000000
     atom    2 type  2   force =     0.00025988   -0.00002307    0.02102899
     atom    3 type  2   force =     0.00062224    0.00043274   -0.02078808
     atom    4 type  1   force =     0.00000000    0.00000000    0.00000000
     atom    5 type  2   force =    -0.00058412    0.00174901    0.02047346
     atom    6 type  2   force =     0.00035212   -0.00111835   -0.02082203
     atom    7 type  1   force =     0.00000000    0.00000000    0.00000000
     atom    8 type  2   force =    -0.00003809    0.00031264    0.02077497
     atom    9 type  2   force =     0.00006430    0.00032746   -0.02109200
     atom   10 type  1   force =     0.00000000    0.00000000    0.00000000
     atom   11 type  2   force =    -0.00021604   -0.00053021    0.02111494
     atom   12 type  2   force =     0.00103406    0.00158429   -0.02073731
     atom   13 type  1   force =     0.00000000    0.00000000    0.00000000
     atom   14 type  2   force =    -0.00096729   -0.00068954    0.02147205
     atom   15 type  2   force =     0.00067703    0.00039132   -0.02047987
     atom   16 type  1   force =     0.00000000    0.00000000    0.00000000
     atom   17 type  2   force =    -0.00005648    0.00139134    0.02040764
     atom   18 type  2   force =     0.00002551   -0.00069301   -0.02107182
     atom   19 type  1   force =     0.00000000    0.00000000    0.00000000
     atom   20 type  2   force =     0.00024716    0.00090999   -0.02128543
     atom   21 type  1   force =     0.00000000    0.00000000    0.00000000
     atom   22 type  2   force =     0.00501444   -0.01214403   -0.01213318
     atom   23 type  2   force =    -0.00059062    0.00134021   -0.02098998
     atom   24 type  1   force =     0.00000000    0.00000000    0.00000000
     atom   25 type  2   force =     0.00025982   -0.00175571    0.02159890
     atom   26 type  2   force =    -0.00034084    0.00062837   -0.02068244
     atom   27 type  1   force =     0.00000000    0.00000000    0.00000000
     atom   28 type  2   force =     0.00011855    0.00150822    0.02120460
     atom   29 type  2   force =    -0.00060458   -0.00077537   -0.02048988
     atom   30 type  1   force =     0.00000000    0.00000000    0.00000000
     atom   31 type  2   force =    -0.00008408   -0.00015925    0.02082368
     atom   32 type  2   force =    -0.00037000    0.00072169   -0.02113502
     atom   33 type  1   force =     0.00000000    0.00000000    0.00000000
     atom   34 type  2   force =     0.00112208    0.00112338    0.02202337
     atom   35 type  2   force =    -0.00005010    0.00104755   -0.02086621
     atom   36 type  3   force =    -0.00514887    0.01166680    0.01700535
     The Hubbard contrib.    to forces
     atom    1 type  1   force =     0.00000000    0.00000000    0.00000000
     atom    2 type  2   force =     0.00000000    0.00000000    0.00000000
     atom    3 type  2   force =     0.00000000    0.00000000    0.00000000
     atom    4 type  1   force =     0.00000000    0.00000000    0.00000000
     atom    5 type  2   force =     0.00000000    0.00000000    0.00000000
     atom    6 type  2   force =     0.00000000    0.00000000    0.00000000
     atom    7 type  1   force =     0.00000000    0.00000000    0.00000000
     atom    8 type  2   force =     0.00000000    0.00000000    0.00000000
     atom    9 type  2   force =     0.00000000    0.00000000    0.00000000
     atom   10 type  1   force =     0.00000000    0.00000000    0.00000000
     atom   11 type  2   force =     0.00000000    0.00000000    0.00000000
     atom   12 type  2   force =     0.00000000    0.00000000    0.00000000
     atom   13 type  1   force =     0.00000000    0.00000000    0.00000000
     atom   14 type  2   force =     0.00000000    0.00000000    0.00000000
     atom   15 type  2   force =     0.00000000    0.00000000    0.00000000
     atom   16 type  1   force =     0.00000000    0.00000000    0.00000000
     atom   17 type  2   force =     0.00000000    0.00000000    0.00000000
     atom   18 type  2   force =     0.00000000    0.00000000    0.00000000
     atom   19 type  1   force =     0.00000000    0.00000000    0.00000000
     atom   20 type  2   force =     0.00000000    0.00000000    0.00000000
     atom   21 type  1   force =     0.00000000    0.00000000    0.00000000
     atom   22 type  2   force =     0.00000000    0.00000000    0.00000000
     atom   23 type  2   force =     0.00000000    0.00000000    0.00000000
     atom   24 type  1   force =     0.00000000    0.00000000    0.00000000
     atom   25 type  2   force =     0.00000000    0.00000000    0.00000000
     atom   26 type  2   force =     0.00000000    0.00000000    0.00000000
     atom   27 type  1   force =     0.00000000    0.00000000    0.00000000
     atom   28 type  2   force =     0.00000000    0.00000000    0.00000000
     atom   29 type  2   force =     0.00000000    0.00000000    0.00000000
     atom   30 type  1   force =     0.00000000    0.00000000    0.00000000
     atom   31 type  2   force =     0.00000000    0.00000000    0.00000000
     atom   32 type  2   force =     0.00000000    0.00000000    0.00000000
     atom   33 type  1   force =     0.00000000    0.00000000    0.00000000
     atom   34 type  2   force =     0.00000000    0.00000000    0.00000000
     atom   35 type  2   force =     0.00000000    0.00000000    0.00000000
     atom   36 type  3   force =     0.00000000    0.00000000    0.00000000
     The SCF correction term to forces
     atom    1 type  1   force =    -0.00004824   -0.00007456    0.00017174
     atom    2 type  2   force =     0.00001189   -0.00005678   -0.00003605
     atom    3 type  2   force =     0.00000441   -0.00003816    0.00025328
     atom    4 type  1   force =    -0.00001267    0.00007336    0.00028940
     atom    5 type  2   force =     0.00000827   -0.00000290   -0.00002562
     atom    6 type  2   force =    -0.00001960   -0.00002531    0.00024460
     atom    7 type  1   force =     0.00000013    0.00016716    0.00029768
     atom    8 type  2   force =    -0.00001511    0.00006716   -0.00002006
     atom    9 type  2   force =    -0.00001506    0.00004987    0.00027173
     atom   10 type  1   force =    -0.00002208   -0.00005598    0.00029875
     atom   11 type  2   force =     0.00004091   -0.00001444   -0.00005511
     atom   12 type  2   force =    -0.00003966   -0.00001091    0.00028697
     atom   13 type  1   force =    -0.00004903   -0.00010445    0.00009406
     atom   14 type  2   force =     0.00002147   -0.00000703   -0.00006348
     atom   15 type  2   force =    -0.00003683   -0.00003431    0.00024592
     atom   16 type  1   force =     0.00000160   -0.00003207    0.00022186
     atom   17 type  2   force =    -0.00001466   -0.00002309   -0.00001803
     atom   18 type  2   force =    -0.00000763   -0.00004575    0.00024680
     atom   19 type  1   force =     0.00001992    0.00018232    0.00012387
     atom   20 type  2   force =    -0.00000220    0.00007514    0.00024566
     atom   21 type  1   force =    -0.00004522   -0.00010903    0.00012625
     atom   22 type  2   force =     0.00005721   -0.00007050   -0.00026020
     atom   23 type  2   force =     0.00000307    0.00002054    0.00029399
     atom   24 type  1   force =     0.00009125   -0.00015779    0.00023737
     atom   25 type  2   force =    -0.00003597    0.00000858   -0.00008813
     atom   26 type  2   force =     0.00003094   -0.00004304    0.00027108
     atom   27 type  1   force =     0.00001026   -0.00000203    0.00024271
     atom   28 type  2   force =     0.00000655   -0.00001119   -0.00003378
     atom   29 type  2   force =     0.00002584   -0.00001675    0.00025173
     atom   30 type  1   force =    -0.00001686    0.00009989    0.00027282
     atom   31 type  2   force =    -0.00002872    0.00001214   -0.00003364
     atom   32 type  2   force =     0.00001319    0.00005379    0.00025245
     atom   33 type  1   force =     0.00006140   -0.00000079    0.00009783
     atom   34 type  2   force =    -0.00006382    0.00000265   -0.00005602
     atom   35 type  2   force =     0.00003547    0.00001088    0.00026907
     atom   36 type  3   force =    -0.00002323    0.00003167   -0.00007390

     Total force =     0.234423     Total SCF correction =     0.001306
     Energy error            =      2.3E-02 Ry
     Gradient error          =      1.3E-01 Ry/Bohr

     number of scf cycles    =   2
     number of bfgs steps    =   1

     energy             old  =   -2246.3293248914 Ry
     energy             new  =   -2246.3524337847 Ry

     CASE: energy            _new < energy            _old

     new trust radius        =       0.1041537419 bohr
     new conv_thr            =       0.0000001252 Ry


ATOMIC_POSITIONS (angstrom)
Mo            6.5842104406        1.7664661204        2.8262731603
S             8.1644822814        0.8245546203        4.4353528277
S             8.1814105980        0.8199832866        1.2717678176
Mo            8.1001644215        4.4988653891        2.7169240625
S             6.4977363872        3.7158722697        4.3377732562
S             6.5532211846        3.5212261146        1.1228507804
Mo            6.4932123445        7.2091386495        2.6642115608
S             8.0825533374        6.3402353316        4.2577525788
S             8.0930606840        6.3110479420        1.0949204882
Mo            8.1529241082        9.9087817697        2.8203368584
S             6.5001020337        8.9396499755        4.3772625256
S             6.6205988001        9.0468166132        1.1442763634
Mo            3.4260444819        1.7475447206        2.7735349014
S             4.9838326157        0.8152958801        4.3622079848
S             5.0453646489        0.8513771416        1.2159902779
Mo            4.9796473874        4.5213037936        2.6396867735
S             3.4331500982        3.6710567714        4.2809477344
S             3.4376986979        3.5450234460        1.0698102025
Mo            3.4599240127        7.1820358445        2.6360963204
S             4.9842763172        6.3241710246        1.0352523767
Mo            5.0152515416        9.9109637202        2.7317554278
S             3.4699561976        8.9755737215        4.2451310756
S             3.4086939975        9.0645141346        1.1040334625
Mo            0.2880539934        1.7489572215        2.8293766211
S             1.8584117763        0.8131873888        4.3968257354
S             1.8511558501        0.8561874433        1.2042474574
Mo            1.8607411650        4.4979657216        2.6692847521
S             0.2727337273        3.6517791459        4.3331017546
S             0.2345830247        3.5288102545        1.1705043903
Mo            0.2652724966        7.2267235332        2.7001949391
S             1.8979655704        6.3087935624        4.2381297621
S             1.8542621551        6.3159040871        1.0489003683
Mo            1.8419809557        9.9345643925        2.7288464093
S             0.2998232203        9.0501736673        4.4019109475
S             0.2668861623        9.0505016164        1.1621890062
O             3.1652136301        9.7004778730        5.6071005761



     Writing config-only to output data dir ./MoS2-V-O.save/
     NEW-OLD atomic charge density approx. for the potential

     negative rho (up, down):  1.895E-04 0.000E+00

     total cpu time spent up to now is      249.6 secs

     Self-consistent Calculation

     iteration #  1     ecut=    80.00 Ry     beta= 0.70
     Davidson diagonalization with overlap
     ethr =  1.00E-06,  avg # of iterations =  8.0

     negative rho (up, down):  9.849E-05 0.000E+00

     total cpu time spent up to now is      267.4 secs

     total energy              =   -2246.37976084 Ry
     estimated scf accuracy    <       0.00342187 Ry

     iteration #  2     ecut=    80.00 Ry     beta= 0.70
     Davidson diagonalization with overlap
     ethr =  1.10E-06,  avg # of iterations =  4.0

     negative rho (up, down):  7.580E-05 0.000E+00

     total cpu time spent up to now is      278.9 secs

     total energy              =   -2246.38005213 Ry
     estimated scf accuracy    <       0.00124192 Ry

     iteration #  3     ecut=    80.00 Ry     beta= 0.70
     Davidson diagonalization with overlap
     ethr =  3.98E-07,  avg # of iterations =  2.0

     negative rho (up, down):  4.779E-05 0.000E+00

     total cpu time spent up to now is      293.1 secs

     total energy              =   -2246.38005936 Ry
     estimated scf accuracy    <       0.00029852 Ry

     iteration #  4     ecut=    80.00 Ry     beta= 0.70
     Davidson diagonalization with overlap
     ethr =  9.57E-08,  avg # of iterations =  5.0

     negative rho (up, down):  4.435E-05 0.000E+00

     total cpu time spent up to now is      307.6 secs

     total energy              =   -2246.38009440 Ry
     estimated scf accuracy    <       0.00003636 Ry

     iteration #  5     ecut=    80.00 Ry     beta= 0.70
     Davidson diagonalization with overlap
     ethr =  1.17E-08,  avg # of iterations =  5.0

     negative rho (up, down):  4.281E-05 0.000E+00

     total cpu time spent up to now is      320.3 secs

     total energy              =   -2246.38010117 Ry
     estimated scf accuracy    <       0.00001312 Ry

     iteration #  6     ecut=    80.00 Ry     beta= 0.70
     Davidson diagonalization with overlap
     ethr =  4.20E-09,  avg # of iterations =  2.0

     negative rho (up, down):  4.439E-05 0.000E+00

     total cpu time spent up to now is      332.6 secs

     total energy              =   -2246.38010123 Ry
     estimated scf accuracy    <       0.00000738 Ry

     iteration #  7     ecut=    80.00 Ry     beta= 0.70
     Davidson diagonalization with overlap
     ethr =  2.37E-09,  avg # of iterations =  2.0

     negative rho (up, down):  5.656E-05 0.000E+00

     total cpu time spent up to now is      342.4 secs

     total energy              =   -2246.38010230 Ry
     estimated scf accuracy    <       0.00000126 Ry

     iteration #  8     ecut=    80.00 Ry     beta= 0.70
     Davidson diagonalization with overlap
     ethr =  4.04E-10,  avg # of iterations = 12.0

     negative rho (up, down):  6.904E-05 0.000E+00

     total cpu time spent up to now is      353.1 secs

     total energy              =   -2246.38010295 Ry
     estimated scf accuracy    <       0.00000043 Ry

     iteration #  9     ecut=    80.00 Ry     beta= 0.70
     Davidson diagonalization with overlap
     ethr =  1.38E-10,  avg # of iterations =  2.0

     negative rho (up, down):  1.036E-04 0.000E+00

     total cpu time spent up to now is      366.9 secs

     total energy              =   -2246.38010313 Ry
     estimated scf accuracy    <       0.00000014 Ry

     iteration # 10     ecut=    80.00 Ry     beta= 0.70
     Davidson diagonalization with overlap
     ethr =  4.35E-11,  avg # of iterations =  5.0

     negative rho (up, down):  1.910E-04 0.000E+00

     total cpu time spent up to now is      371.3 secs

     End of self-consistent calculation

          k = 0.0000 0.0000 0.0000 (105382 PWs)   bands (ev):

   -63.0448 -63.0183 -63.0004 -62.9803 -62.9738 -62.9622 -62.9509 -62.9408
   -62.9319 -62.9299 -62.9180 -62.8074 -37.3896 -37.3432 -37.3020 -37.2938
   -37.2532 -37.2364 -37.2296 -37.2222 -37.2030 -37.1909 -37.1840 -37.1698
   -37.1658 -37.1566 -37.1472 -37.1422 -37.1337 -37.1286 -37.1268 -37.1214
   -37.1156 -37.1116 -37.0974 -37.0938 -37.0855 -37.0633 -37.0498 -37.0362
   -37.0226 -37.0047 -36.9902 -36.9659 -36.9408 -36.9323 -36.9055 -36.8806
   -21.5500 -16.0701 -15.3071 -15.2592 -15.0743 -15.0263 -14.8685 -14.6211
   -14.5938 -14.5664 -14.5501 -14.5239 -14.4529 -14.4374 -14.3614 -14.2638
   -14.2484 -14.2249 -14.1635 -14.0386 -14.0049 -13.9851 -13.9487 -13.8594
    -7.9654  -7.7669  -7.6337  -7.5496  -7.4940  -7.4101  -7.3598  -7.3239
    -7.2371  -7.0704  -7.0247  -6.9253  -6.8802  -6.8012  -6.7200  -6.6981
    -6.6215  -6.5291  -6.4428  -6.4044  -6.1400  -6.1157  -6.0832  -5.9766
    -5.9217  -5.8808  -5.8731  -5.8360  -5.8110  -5.7808  -5.7209  -5.6571
    -5.6239  -5.5900  -5.4807  -5.3342  -5.3144  -5.2266  -5.2009  -5.1400
    -5.1062  -5.0536  -5.0096  -4.9148  -4.7948  -4.7126  -4.5097  -4.4698
    -4.3747  -4.3534  -4.2632  -4.2278  -4.0772  -3.9839  -3.9660  -3.8939
    -3.8670  -3.7978  -3.7744  -3.7160  -3.6966  -3.6565  -3.6136  -3.5602
    -3.5233  -3.5062  -3.3710  -3.3231  -3.2590  -3.1067  -3.0854  -2.9628
    -2.9448  -2.8697  -2.8467  -2.8050  -2.7751  -2.7600  -2.5872  -2.4163
    -2.4093  -2.1434  -2.1104  -2.0144  -1.1051  -0.9293  -0.4035  -0.2861
    -0.2245  -0.1782  -0.1040  -0.0198   0.0190   0.0657   0.1371   0.1729
     0.2485   0.2670   0.2895   0.3485   0.4107   0.4385   0.4969   0.5254
     0.5387   0.6004   0.6228   0.6662   0.6974   0.7087   0.7685   0.8672
     0.8771   0.9525   1.1985

     the Fermi energy is    -1.5597 ev

!    total energy              =   -2246.38010309 Ry
     estimated scf accuracy    <       0.00000004 Ry
     smearing contrib. (-TS)   =      -0.00000016 Ry
     internal energy E=F+TS    =   -2246.38010293 Ry

     The total energy is F=E-TS. E is the sum of the following terms:
     one-electron contribution =  -18426.14488598 Ry
     hartree contribution      =    9200.54434159 Ry
     xc contribution           =    -392.07115430 Ry
     ewald contribution        =    7381.15319628 Ry
     one-center paw contrib.   =      -9.86160051 Ry

     convergence has been achieved in  10 iterations

     negative rho (up, down):  1.910E-04 0.000E+00

     Forces acting on atoms (cartesian axes, Ry/au):

     atom    1 type  1   force =    -0.00282110   -0.00549959   -0.00402206
     atom    2 type  2   force =    -0.00460602    0.00685670   -0.00212168
     atom    3 type  2   force =    -0.00939867    0.00618920   -0.01189616
     atom    4 type  1   force =     0.00409534    0.00178295    0.00119330
     atom    5 type  2   force =     0.00078128   -0.00643474   -0.00604441
     atom    6 type  2   force =     0.00035925    0.00524830    0.00385272
     atom    7 type  1   force =     0.00294040   -0.00750906    0.00166702
     atom    8 type  2   force =     0.00026254   -0.00298265    0.00923241
     atom    9 type  2   force =     0.00912661    0.00462532    0.00442785
     atom   10 type  1   force =    -0.00138692    0.00364468   -0.00141919
     atom   11 type  2   force =     0.00239663   -0.00178356   -0.01005012
     atom   12 type  2   force =     0.00111928   -0.00272485   -0.00362504
     atom   13 type  1   force =     0.00293607    0.00049395   -0.00011789
     atom   14 type  2   force =     0.00584085   -0.00241333    0.00563759
     atom   15 type  2   force =    -0.00656132    0.00447769   -0.00907429
     atom   16 type  1   force =    -0.00016491    0.00479151    0.00179945
     atom   17 type  2   force =     0.00472745   -0.00029449    0.00278179
     atom   18 type  2   force =     0.00017626   -0.00074875    0.00910891
     atom   19 type  1   force =     0.00436885   -0.01178453    0.00506602
     atom   20 type  2   force =     0.00279820   -0.00531743   -0.00464040
     atom   21 type  1   force =     0.00442220    0.01090106   -0.00383848
     atom   22 type  2   force =    -0.03713089    0.08105525    0.06017237
     atom   23 type  2   force =     0.00380489   -0.00749339    0.00163120
     atom   24 type  1   force =    -0.00437821    0.00096806   -0.00598069
     atom   25 type  2   force =     0.00337549    0.00754940   -0.00936683
     atom   26 type  2   force =    -0.00483491    0.00475629   -0.01006195
     atom   27 type  1   force =    -0.00169466    0.00063966    0.00457895
     atom   28 type  2   force =    -0.00031627   -0.00319354   -0.00405173
     atom   29 type  2   force =     0.00287095    0.00381793   -0.00311177
     atom   30 type  1   force =    -0.00073436   -0.00122816    0.00555673
     atom   31 type  2   force =    -0.00221802   -0.00127892    0.01203735
     atom   32 type  2   force =    -0.00592854    0.00306523    0.00507515
     atom   33 type  1   force =    -0.00421445    0.00705090   -0.00207273
     atom   34 type  2   force =     0.00213366   -0.02135049   -0.01803888
     atom   35 type  2   force =    -0.01156676    0.00368169   -0.00295122
     atom   36 type  3   force =     0.03941978   -0.07955829   -0.02133329
     The non-local contrib.  to forces
     atom    1 type  1   force =    -0.00016943    0.02790203   -0.01234464
     atom    2 type  2   force =    -0.00437985   -0.00471298   -0.27406143
     atom    3 type  2   force =    -0.01126537   -0.01158580    0.26391790
     atom    4 type  1   force =     0.00557004    0.00454962    0.00502118
     atom    5 type  2   force =     0.00769409   -0.03302104   -0.25479265
     atom    6 type  2   force =    -0.00263474    0.00811930    0.26492942
     atom    7 type  1   force =    -0.01110234    0.00331068   -0.02179603
     atom    8 type  2   force =     0.00270947    0.00133938   -0.26298674
     atom    9 type  2   force =     0.00250497   -0.00688155    0.27437951
     atom   10 type  1   force =     0.00766787    0.00399513    0.00513644
     atom   11 type  2   force =     0.00573374    0.00842083   -0.26899658
     atom   12 type  2   force =    -0.01132930   -0.02217955    0.25741239
     atom   13 type  1   force =    -0.00091963    0.01794896   -0.00591204
     atom   14 type  2   force =     0.01266528    0.00198416   -0.27471894
     atom   15 type  2   force =    -0.00904011   -0.00644278    0.25901535
[...]
     atom   28 type  2   force =     0.00169767   -0.01146163   -0.27722005
     atom   29 type  2   force =    -0.00041594   -0.00868962    0.26861359
     atom   30 type  1   force =    -0.00103196    0.02090773    0.00326041
     atom   31 type  2   force =    -0.00229862    0.00569482   -0.27117462
     atom   32 type  2   force =     0.00814344   -0.01385555    0.26831939
     atom   33 type  1   force =     0.00825094    0.00519628    0.01925272
     atom   34 type  2   force =    -0.00069190   -0.00756120   -0.27874569
     atom   35 type  2   force =    -0.00018186   -0.01273287    0.26307577
     atom   36 type  3   force =    -0.01971062   -0.05226232   -2.31327035
     The ionic contribution  to forces
     atom    1 type  1   force =     0.28423370    1.25623862    0.77747870
     atom    2 type  2   force =    -0.19389827    0.40391400   38.38835911
     atom    3 type  2   force =     0.09060788    0.08489126  -38.09049507
     atom    4 type  1   force =    -0.16716250    0.14642428    0.13018796
     atom    5 type  2   force =    -0.66327513    1.07476252   38.11559808
     atom    6 type  2   force =     0.28410565   -0.25316826  -38.42912546
     atom    7 type  1   force =    -2.12300707   -2.53299965    1.37687952
     atom    8 type  2   force =    -1.18777864   -0.18060471   38.07927322
     atom    9 type  2   force =     0.35955460   -0.14161267  -38.22653692
     atom   10 type  1   force =    -0.46545015   -0.05588185    1.21342213
     atom   11 type  2   force =     0.59677475   -1.43758529   37.69769775
     atom   12 type  2   force =     0.22529183    0.20963038  -38.73835983
     atom   13 type  1   force =     0.13647536    1.61791255    0.99969371
     atom   14 type  2   force =     0.59068311    1.04348226   37.85014414
     atom   15 type  2   force =     0.02406971    0.10070150  -38.49577783
     atom   16 type  1   force =     0.40548563    2.93212924    0.98828990
     atom   17 type  2   force =     0.84950338    1.01043484   38.13455585
     atom   18 type  2   force =    -0.24865561   -0.29916872  -38.41294478
     atom   19 type  1   force =     2.85674945   -2.83359888   -0.63730180
     atom   20 type  2   force =     0.11314068   -0.10949848  -39.28519148
     atom   21 type  1   force =     1.05769528    0.25005524   -3.45834477
     atom   22 type  2   force =     0.45671638   -1.63874439   28.45867463
     atom   23 type  2   force =    -0.23043907    0.17470170  -38.55548100
     atom   24 type  1   force =    -0.47708893    1.04895046    0.87051894
     atom   25 type  2   force =    -0.35065934    1.13254803   38.21701500
     atom   26 type  2   force =    -0.08996404    0.14591306  -38.41772503
     atom   27 type  1   force =    -0.22915068   -0.23545520    0.28561724
     atom   28 type  2   force =    -0.16237697    0.42129805   38.02502906
     atom   29 type  2   force =    -0.03662030   -0.01493382  -37.96216685
     atom   30 type  1   force =    -0.61380317   -1.31236525    1.32629033
     atom   31 type  2   force =     0.52250868   -0.90388961   37.86137165
     atom   32 type  2   force =    -0.47680999   -0.10693700  -38.54018933
     atom   33 type  1   force =    -0.61317868    0.24577194   -1.53042525
     atom   34 type  2   force =    -1.04753924   -0.42749530   38.19656067
     atom   35 type  2   force =    -0.05632108    0.00896478  -38.31893153
     atom   36 type  3   force =     0.57958280   -0.82478563   50.10633934
     The local contribution  to forces
     atom    1 type  1   force =    -0.28111205   -1.28023486   -0.77237975
     atom    2 type  2   force =     0.19414853   -0.39288591  -38.13843210
     atom    3 type  2   force =    -0.08792418   -0.07208494   37.84222536
     atom    4 type  1   force =     0.16146517   -0.15217082   -0.13173193
     atom    5 type  2   force =     0.65956618   -1.05467284  -37.87912582
     atom    6 type  2   force =    -0.28469577    0.25619234   38.18404431
     atom    7 type  1   force =     2.13692058    2.52629191   -1.35400317
     atom    8 type  2   force =     1.17961112    0.17754664  -37.83259774
     atom    9 type  2   force =    -0.35353464    0.15197115   37.97715906
     atom   10 type  1   force =     0.46237283    0.04836803   -1.22259111
     atom   11 type  2   force =    -0.60093118    1.43222161  -37.45348357
     atom   12 type  2   force =    -0.21792431   -0.19531771   38.49506371
     atom   13 type  1   force =    -0.13973778   -1.63711227   -0.99304890
     atom   14 type  2   force =    -0.59001978   -1.03748323  -37.59817014
     atom   15 type  2   force =    -0.02370975   -0.09084895   38.25529228
     atom   16 type  1   force =    -0.41073715   -2.95970753   -0.95499059
     atom   17 type  2   force =    -0.84451982   -0.98858893  -37.89831768
     atom   18 type  2   force =     0.24881087    0.30393699   38.16622073
     atom   19 type  1   force =    -2.87243641    2.81770696    0.64738355
     atom   20 type  2   force =    -0.11200479    0.12234234   39.04241359
     atom   21 type  1   force =    -1.04792303   -0.26140715    3.43412231
     atom   22 type  2   force =    -0.47225263    1.62156881  -28.74667096
     atom   23 type  2   force =     0.22286381   -0.16204386   38.30139084
     atom   24 type  1   force =     0.47757061   -1.06501733   -0.87365419
     atom   25 type  2   force =     0.34879290   -1.12324948  -37.96633748
     atom   26 type  2   force =     0.08838332   -0.13553152   38.17513588
     atom   27 type  1   force =     0.23676059    0.23100626   -0.28724667
     atom   28 type  2   force =     0.16079670   -0.41001574  -37.76903916
     atom   29 type  2   force =     0.03682818    0.02391454   37.71483152
     atom   30 type  1   force =     0.61513234    1.29107625   -1.33022858
     atom   31 type  2   force =    -0.52112097    0.89754804  -37.61155560
     atom   32 type  2   force =     0.46966706    0.12025539   38.29261120
     atom   33 type  1   force =     0.60464556   -0.25052127    1.51152322
     atom   34 type  2   force =     1.04877678    0.43439988  -37.93959451
     atom   35 type  2   force =     0.05678438    0.00323542   38.07732966
     atom   36 type  3   force =    -0.55970898    0.87493205  -47.81969310
     The core correction contribution to forces
     atom    1 type  1   force =     0.00000000    0.00000000    0.00000000
     atom    2 type  2   force =    -0.00001931    0.00047210    0.02100739
     atom    3 type  2   force =     0.00015924    0.00056141   -0.02096308
     atom    4 type  1   force =     0.00000000    0.00000000    0.00000000
     atom    5 type  2   force =    -0.00033238    0.00086155    0.02052920
     atom    6 type  2   force =     0.00018300   -0.00018201   -0.02084449
     atom    7 type  1   force =     0.00000000    0.00000000    0.00000000
     atom    8 type  2   force =    -0.00047532    0.00009460    0.02101641
     atom    9 type  2   force =     0.00067858    0.00069721   -0.02102044
     atom   10 type  1   force =     0.00000000    0.00000000    0.00000000
     atom   11 type  2   force =    -0.00009501   -0.00039647    0.02103913
     atom   12 type  2   force =     0.00063224    0.00092223   -0.02082924
     atom   13 type  1   force =     0.00000000    0.00000000    0.00000000
     atom   14 type  2   force =     0.00007054    0.00001473    0.02131629
     atom   15 type  2   force =    -0.00008878    0.00049215   -0.02070811
     atom   16 type  1   force =     0.00000000    0.00000000    0.00000000
     atom   17 type  2   force =     0.00046785    0.00101548    0.02053058
     atom   18 type  2   force =    -0.00024119   -0.00018791   -0.02090854
     atom   19 type  1   force =     0.00000000    0.00000000    0.00000000
     atom   20 type  2   force =     0.00010854    0.00060471   -0.02119156
     atom   21 type  1   force =     0.00000000    0.00000000    0.00000000
     atom   22 type  2   force =    -0.00097633   -0.00119496   -0.00999385
     atom   23 type  2   force =    -0.00067367    0.00073554   -0.02125538
     atom   24 type  1   force =     0.00000000    0.00000000    0.00000000
     atom   25 type  2   force =    -0.00007319    0.00042636    0.02131526
     atom   26 type  2   force =    -0.00003036    0.00048316   -0.02081296
     atom   27 type  1   force =     0.00000000    0.00000000    0.00000000
     atom   28 type  2   force =    -0.00009296    0.00068717    0.02130499
     atom   29 type  2   force =     0.00005690    0.00030890   -0.02085958
     atom   30 type  1   force =     0.00000000    0.00000000    0.00000000
     atom   31 type  2   force =     0.00008872    0.00001489    0.02126940
     atom   32 type  2   force =    -0.00078794    0.00075255   -0.02099466
     atom   33 type  1   force =     0.00000000    0.00000000    0.00000000
     atom   34 type  2   force =     0.00005112    0.00035476    0.02164446
     atom   35 type  2   force =    -0.00001086    0.00060456   -0.02080625
     atom   36 type  3   force =     0.00019690    0.00053352    0.02454387
     The Hubbard contrib.    to forces
     atom    1 type  1   force =     0.00000000    0.00000000    0.00000000
     atom    2 type  2   force =     0.00000000    0.00000000    0.00000000
     atom    3 type  2   force =     0.00000000    0.00000000    0.00000000
     atom    4 type  1   force =     0.00000000    0.00000000    0.00000000
     atom    5 type  2   force =     0.00000000    0.00000000    0.00000000
     atom    6 type  2   force =     0.00000000    0.00000000    0.00000000
     atom    7 type  1   force =     0.00000000    0.00000000    0.00000000
     atom    8 type  2   force =     0.00000000    0.00000000    0.00000000
     atom    9 type  2   force =     0.00000000    0.00000000    0.00000000
     atom   10 type  1   force =     0.00000000    0.00000000    0.00000000
     atom   11 type  2   force =     0.00000000    0.00000000    0.00000000
     atom   12 type  2   force =     0.00000000    0.00000000    0.00000000
     atom   13 type  1   force =     0.00000000    0.00000000    0.00000000
     atom   14 type  2   force =     0.00000000    0.00000000    0.00000000
     atom   15 type  2   force =     0.00000000    0.00000000    0.00000000
     atom   16 type  1   force =     0.00000000    0.00000000    0.00000000
     atom   17 type  2   force =     0.00000000    0.00000000    0.00000000
     atom   18 type  2   force =     0.00000000    0.00000000    0.00000000
     atom   19 type  1   force =     0.00000000    0.00000000    0.00000000
     atom   20 type  2   force =     0.00000000    0.00000000    0.00000000
     atom   21 type  1   force =     0.00000000    0.00000000    0.00000000
     atom   22 type  2   force =     0.00000000    0.00000000    0.00000000
     atom   23 type  2   force =     0.00000000    0.00000000    0.00000000
     atom   24 type  1   force =     0.00000000    0.00000000    0.00000000
     atom   25 type  2   force =     0.00000000    0.00000000    0.00000000
     atom   26 type  2   force =     0.00000000    0.00000000    0.00000000
     atom   27 type  1   force =     0.00000000    0.00000000    0.00000000
     atom   28 type  2   force =     0.00000000    0.00000000    0.00000000
     atom   29 type  2   force =     0.00000000    0.00000000    0.00000000
     atom   30 type  1   force =     0.00000000    0.00000000    0.00000000
     atom   31 type  2   force =     0.00000000    0.00000000    0.00000000
     atom   32 type  2   force =     0.00000000    0.00000000    0.00000000
     atom   33 type  1   force =     0.00000000    0.00000000    0.00000000
     atom   34 type  2   force =     0.00000000    0.00000000    0.00000000
     atom   35 type  2   force =     0.00000000    0.00000000    0.00000000
     atom   36 type  3   force =     0.00000000    0.00000000    0.00000000
     The SCF correction term to forces
     atom    1 type  1   force =     0.00000040    0.00000316   -0.00008914
     atom    2 type  2   force =    -0.00000421    0.00000392   -0.00003761
     atom    3 type  2   force =     0.00000050    0.00000138   -0.00002799
     atom    4 type  1   force =    -0.00000021    0.00000029   -0.00007161
     atom    5 type  2   force =    -0.00000134   -0.00000835   -0.00004155
     atom    6 type  2   force =     0.00000361   -0.00001407   -0.00000928
     atom    7 type  1   force =    -0.00000219    0.00001239   -0.00009448
     atom    8 type  2   force =     0.00000692   -0.00000522   -0.00004974
     atom    9 type  2   force =     0.00000633    0.00000440   -0.00000968
     atom   10 type  1   force =     0.00002093    0.00002126   -0.00009316
     atom   11 type  2   force =    -0.00000395   -0.00000051   -0.00005450
     atom   12 type  2   force =    -0.00000208   -0.00000781   -0.00001450
     atom   13 type  1   force =     0.00001296   -0.00001131   -0.00006860
     atom   14 type  2   force =    -0.00000410    0.00000286   -0.00004345
     atom   15 type  2   force =     0.00000177    0.00000521   -0.00001315
     atom   16 type  1   force =     0.00000429   -0.00002235   -0.00007477
     atom   17 type  2   force =     0.00000449   -0.00001034   -0.00004003
     atom   18 type  2   force =    -0.00000033   -0.00000840   -0.00001104
     atom   19 type  1   force =     0.00000733    0.00003610   -0.00008497
     atom   20 type  2   force =     0.00001315    0.00000903   -0.00000476
     atom   21 type  1   force =    -0.00002558   -0.00000500   -0.00008072
     atom   22 type  2   force =     0.00000401    0.00000844   -0.00007973
     atom   23 type  2   force =     0.00000132   -0.00000794    0.00000105
     atom   24 type  1   force =     0.00001826   -0.00000829   -0.00008869
     atom   25 type  2   force =     0.00000083    0.00000363   -0.00005050
     atom   26 type  2   force =    -0.00001006   -0.00000330   -0.00001285
     atom   27 type  1   force =    -0.00002425   -0.00002185   -0.00008936
     atom   28 type  2   force =    -0.00000320   -0.00000416   -0.00004134
     atom   29 type  2   force =     0.00000100   -0.00000889   -0.00001843
     atom   30 type  1   force =    -0.00001219    0.00000148   -0.00009476
     atom   31 type  2   force =    -0.00000865    0.00000185   -0.00006394
     atom   32 type  2   force =    -0.00000758    0.00001391   -0.00000045
     atom   33 type  1   force =     0.00003099    0.00000424   -0.00009939
     atom   34 type  2   force =    -0.00000269   -0.00000144   -0.00005057
     atom   35 type  2   force =    -0.00000001    0.00000220   -0.00002095
     atom   36 type  3   force =    -0.00000047    0.00005078   -0.00007423

     Total force =     0.006710     Total SCF correction =     0.000371
     Energy error            =      8.1E-05 Ry
     Gradient error          =      2.2E-03 Ry/Bohr

     bfgs converged in  20 scf cycles and  19 bfgs steps
     (criteria: energy <  1.0E-04 Ry, force <  1.0E-02 Ry/Bohr)

     End of BFGS Geometry Optimization

     Final energy             =   -2246.4456804907 Ry

     File ./MoS2-V-O.bfgs deleted, as requested
Begin final coordinates

ATOMIC_POSITIONS (angstrom)
Mo            6.5517556531        1.7748133998        2.7471455329
S             8.1226556523        0.8683853708        4.3571497506
S             8.1333076244        0.8600249717        1.1676020785
Mo            8.1183808246        4.5181678346        2.7242062449
S             6.5185861314        3.6742140956        4.3112160549
S             6.5557778044        3.5898015930        1.1168790331
Mo            6.5122925057        7.2040624779        2.6774026843
S             8.0754264844        6.3281219669        4.3183737762
S             8.1408073194        6.3506376353        1.1292432322
Mo            8.1257329776        9.9492931913        2.7628401810
S             6.5025426965        8.9776619813        4.3205065153
S             6.5932968960        9.0354623723        1.1177008735
Mo            3.4177949069        1.7731965983        2.7590868568
S             4.9915678813        0.8328569430        4.3417081907
S             4.9822642246        0.8729086218        1.1450106955
Mo            4.9894246332        4.5511917131        2.6645590825
S             3.4653531174        3.6801875363        4.3182464264
S             3.4264846100        3.5892135992        1.1219879659
Mo            3.4686594106        7.1702760890        2.6713634721
S             5.0010838563        6.3219663632        1.0479384694
Mo            4.9997677679        9.9443770955        2.7101272080
S             3.4348927510        8.9907555423        4.2397895243
S             3.3875112758        9.0404740389        1.1427626453
Mo            0.2593996110        1.7683218190        2.7613034030
S             1.8387369902        0.8747840271        4.3699394888
S             1.8395148431        0.8800634733        1.1596557490
Mo            1.8620020857        4.5223120005        2.7317315354
S             0.2586770804        3.6243696538        4.3260108636
S             0.2630866203        3.5903263970        1.1575943584
Mo            0.2666416320        7.2388510802        2.7575692152
S             1.9174156978        6.3301326083        4.3332357178
S             1.8351092283        6.3382887550        1.1228763510
Mo            1.8163196661        9.9780251580        2.7527489802
S             0.2561462267        9.0584847419        4.3639675385
S             0.2465159729        9.0584949617        1.1660751330
O             3.4496676862        9.0350184813        5.7392067088
End final coordinates



     Writing all to output data dir ./MoS2-V-O.save/
 
     init_run     :      5.41s CPU      5.92s WALL (       1 calls)
     electrons    :   1746.00s CPU   1990.44s WALL (      20 calls)
     update_pot   :     60.32s CPU     64.75s WALL (      19 calls)
     forces       :     58.79s CPU     68.39s WALL (      20 calls)

     Called by init_run:
     wfcinit      :      0.50s CPU      0.56s WALL (       1 calls)
     potinit      :      3.14s CPU      3.38s WALL (       1 calls)
     hinit0       :      0.44s CPU      0.47s WALL (       1 calls)

     Called by electrons:
     c_bands      :    263.47s CPU    270.41s WALL (     179 calls)
     sum_band     :    109.38s CPU    151.77s WALL (     179 calls)
     v_of_rho     :    209.16s CPU    254.96s WALL (     190 calls)
     newd         :     68.32s CPU    102.61s WALL (     190 calls)
     PAW_pot      :      7.58s CPU      7.61s WALL (     209 calls)
     mix_rho      :   1112.43s CPU   1230.65s WALL (     179 calls)

     Called by c_bands:
     init_us_2    :      4.14s CPU      4.44s WALL (     378 calls)
     init_us_2:cp :      4.14s CPU      4.44s WALL (     378 calls)
     regterg      :    250.05s CPU    256.66s WALL (     179 calls)

     Called by *egterg:
     rdiaghg      :     17.40s CPU     17.59s WALL (     975 calls)
     h_psi        :    161.69s CPU    163.31s WALL (    1004 calls)
     s_psi        :     15.17s CPU     15.23s WALL (    1004 calls)
     g_psi        :      0.87s CPU      0.88s WALL (     824 calls)

     Called by h_psi:
     h_psi:calbec :     17.54s CPU     17.64s WALL (    1004 calls)
     vloc_psi     :    126.93s CPU    128.34s WALL (    1004 calls)
     add_vuspsi   :     15.15s CPU     15.23s WALL (    1004 calls)

     General routines
     calbec       :     25.43s CPU     25.59s WALL (    1282 calls)
     fft          :    146.81s CPU    165.21s WALL (   12758 calls)
     ffts         :    499.49s CPU    613.17s WALL (  270759 calls)
     fftw         :     80.82s CPU     81.66s WALL (  110094 calls)
     interpolate  :      2.37s CPU      2.73s WALL (     190 calls)
 
     Parallel routines
 
     PWSCF        :  31m20.18s CPU  35m44.19s WALL

 
   This run was terminated on:  22:23:33   1Nov2023            

=------------------------------------------------------------------------------=
   JOB DONE.
=------------------------------------------------------------------------------=
