
     Program PWSCF v.7.2 starts on  1Nov2023 at 20:56:38 

     This program is part of the open-source Quantum ESPRESSO suite
     for quantum simulation of materials; please cite
         "P. Giannozzi et al., J. Phys.:Condens. Matter 21 395502 (2009);
         "P. Giannozzi et al., J. Phys.:Condens. Matter 29 465901 (2017);
         "P. Giannozzi et al., J. Chem. Phys. 152 154105 (2020);
          URL http://www.quantum-espresso.org", 
     in publications or presentations arising from this work. More details at
     http://www.quantum-espresso.org/quote

     Parallel version (MPI & OpenMP), running on      48 processor cores
     Number of MPI processes:                48
     Threads/MPI process:                     1

     MPI processes distributed on     1 nodes
     150601 MiB available memory on the printing compute node when the environment starts
 
     Waiting for input...
     Reading input from standard input
Warning: card &CELL ignored
Warning: card CELL_DYNAMICS = 'BFGS', ignored
Warning: card CELL_DOFREE = '2DXY' ignored
Warning: card / ignored

     Current dimensions of program PWSCF are:
     Max number of different atomic species (ntypx) = 10
     Max number of k-points (npk) =  40000
     Max angular momentum in pseudopotentials (lmaxx) =  4
     file O.pbe-n-kjpaw_psl.0.1.UPF: wavefunction(s)  2P renormalized

     IMPORTANT: XC functional enforced from input :
     Exchange-correlation= RVV10
                           (   1   4  13   4  26   0   0)
     Any further DFT definition will be discarded
     Please, verify this is what you really want


     gamma-point specific algorithms are used
     signal trapping enabled: kill the code with -SIGUSR1 to stop cleanly the simulation 
 
     R & G space division:  proc/nbgrp/npool/nimage =      48
     Subspace diagonalization in iterative solution of the eigenvalue problem:
     one sub-group per band group will be used
     scalapack distributed-memory algorithm (size of sub-group:  2*  2 procs)

 
     Parallelization info
     --------------------
     sticks:   dense  smooth     PW     G-vecs:    dense   smooth      PW
     Min         396     194     47               101632    35090    4376
     Max         398     196     50               101674    35128    4410
     Sum       19091    9389   2349              4879585  1685513  210763
 
     Using Slab Decomposition
 


     bravais-lattice index     =            0
     lattice parameter (alat)  =      17.8707  a.u.
     unit-cell volume          =   17436.2743 (a.u.)^3
     number of atoms/cell      =           36
     number of atomic types    =            3
     number of electrons       =       312.00
     number of Kohn-Sham states=          187
     kinetic-energy cutoff     =      80.0000  Ry
     charge density cutoff     =     650.0000  Ry
     scf convergence threshold =      1.0E-06
     mixing beta               =       0.7000
     number of iterations used =            8  local-TF  mixing
     energy convergence thresh.=      1.0E-04
     force convergence thresh. =      1.0E-02
     Exchange-correlation= RVV10
                           (   1   4  13   4  26   0   0)
     nstep                     =          200


     celldm(1)=  17.870686  celldm(2)=   0.000000  celldm(3)=   0.000000
     celldm(4)=   0.000000  celldm(5)=   0.000000  celldm(6)=   0.000000

     crystal axes: (cart. coord. in units of alat)
               a(1) = (   1.000000   0.000000   0.000000 )  
               a(2) = (   0.000000   1.155671   0.000000 )  
               a(3) = (   0.000000   0.000000   2.643601 )  

     reciprocal axes: (cart. coord. in units 2 pi/alat)
               b(1) = (  1.000000  0.000000  0.000000 )  
               b(2) = (  0.000000  0.865298  0.000000 )  
               b(3) = (  0.000000  0.000000  0.378272 )  


     PseudoPot. # 1 for Mo read from file:
     ../pseudo/Mo_ONCV_PBE-1.0.oncvpsp.upf
     MD5 check sum: 1b5d28e075c9ccadda658a603575cd1f
     Pseudo is Norm-conserving, Zval = 14.0
     Generated using ONCVPSP code by D. R. Hamann
     Using radial grid of 1526 points,  6 beta functions with: 
                l(1) =   0
                l(2) =   0
                l(3) =   1
                l(4) =   1
                l(5) =   2
                l(6) =   2

     PseudoPot. # 2 for S  read from file:
     ../pseudo/s_pbe_v1.4.uspp.F.UPF
     MD5 check sum: 88d86576ff6df21479756cfb9bdac1df
     Pseudo is Ultrasoft + core correction, Zval =  6.0
     Generated by new atomic code, or converted to UPF format
     Using radial grid of  907 points,  6 beta functions with: 
                l(1) =   0
                l(2) =   0
                l(3) =   1
                l(4) =   1
                l(5) =   2
                l(6) =   2
     Q(r) pseudized with  8 coefficients,  rinner =    1.300   1.300   1.300
                                                       1.300   1.300

     PseudoPot. # 3 for O  read from file:
     ../pseudo/O.pbe-n-kjpaw_psl.0.1.UPF
     MD5 check sum: 0234752ac141de4415c5fc33072bef88
     Pseudo is Projector augmented-wave + core cor, Zval =  6.0
     Generated using "atomic" code by A. Dal Corso  v.5.0.99 svn rev. 10869
     Shape of augmentation charge: BESSEL
     Using radial grid of 1095 points,  4 beta functions with: 
                l(1) =   0
                l(2) =   0
                l(3) =   1
                l(4) =   1
     Q(r) pseudized with 0 coefficients 


     atomic species   valence    mass     pseudopotential
        Mo            14.00    95.94000     Mo( 1.00)
        S              6.00    32.06500     S ( 1.00)
        O              6.00    15.99940     O ( 1.00)

     No symmetry found



   Cartesian axes

     site n.     atom                  positions (alat units)
         1           Mo  tau(   1) = (   0.6952221   0.1890506   0.2985846  )
         2           S   tau(   2) = (   0.8646417   0.0856217   0.4689279  )
         3           S   tau(   3) = (   0.8663890   0.0857843   0.1351291  )
         4           Mo  tau(   4) = (   0.8560186   0.4753274   0.2873942  )
         5           S   tau(   5) = (   0.6873294   0.3936244   0.4596353  )
         6           S   tau(   6) = (   0.6929804   0.3713468   0.1185692  )
         7           Mo  tau(   7) = (   0.6862796   0.7633098   0.2825370  )
         8           S   tau(   8) = (   0.8545980   0.6708292   0.4486168  )
         9           S   tau(   9) = (   0.8545123   0.6666874   0.1146125  )
        10           Mo  tau(  10) = (   0.8629403   1.0471007   0.3006803  )
        11           S   tau(  11) = (   0.6868280   0.9456650   0.4634891  )
        12           S   tau(  12) = (   0.6998113   0.9568511   0.1205389  )
        13           Mo  tau(  13) = (   0.3618216   0.1847309   0.2935964  )
        14           S   tau(  14) = (   0.5260962   0.0863870   0.4600448  )
        15           S   tau(  15) = (   0.5348379   0.0894875   0.1297123  )
        16           Mo  tau(  16) = (   0.5265817   0.4772436   0.2784130  )
        17           S   tau(  17) = (   0.3624753   0.3882513   0.4525556  )
        18           S   tau(  18) = (   0.3635411   0.3752055   0.1119148  )
        19           Mo  tau(  19) = (   0.3652268   0.7630864   0.2781795  )
        20           S   tau(  20) = (   0.5269494   0.6690381   0.1096838  )
        21           Mo  tau(  21) = (   0.5300192   1.0470394   0.2900995  )
        22           S   tau(  22) = (   0.3670346   0.9457522   0.4574073  )
        23           S   tau(  23) = (   0.3604225   0.9585725   0.1159032  )
        24           Mo  tau(  24) = (   0.0313099   0.1847895   0.3013130  )
        25           S   tau(  25) = (   0.1956761   0.0838230   0.4650863  )
        26           S   tau(  26) = (   0.1967693   0.0903508   0.1278874  )
        27           Mo  tau(  27) = (   0.1967578   0.4753919   0.2813011  )
        28           S   tau(  28) = (   0.0287851   0.3864324   0.4586755  )
        29           S   tau(  29) = (   0.0244514   0.3729871   0.1239344  )
        30           Mo  tau(  30) = (   0.0286728   0.7631204   0.2856894  )
        31           S   tau(  31) = (   0.2011512   0.6675435   0.4465001  )
        32           S   tau(  32) = (   0.1969214   0.6672839   0.1104564  )
        33           Mo  tau(  33) = (   0.1950294   1.0511147   0.2932237  )
        34           S   tau(  34) = (   0.0312912   0.9612169   0.4667423  )
        35           S   tau(  35) = (   0.0292670   0.9563028   0.1216485  )
        36           O   tau(  36) = (   0.6666667   0.8988550   0.5656742  )

     number of k points=     1  Gaussian smearing, width (Ry)=  0.0100
                       cart. coord. in units 2pi/alat
        k(    1) = (   0.0000000   0.0000000   0.0000000), wk =   2.0000000

     Dense  grid:  2439793 G-vectors     FFT dimensions: ( 150, 180, 384)

     Smooth grid:   842757 G-vectors     FFT dimensions: ( 108, 120, 270)

     Estimated max dynamical RAM per process >     269.22 MB

     Estimated total dynamical RAM >      12.62 GB

     Initial potential from superposition of free atoms

     starting charge     311.9873, renormalised to     312.0000

     negative rho (up, down):  2.748E-04 0.000E+00


---------------------------------------------------------------------------------
Carrying out rVV10 run using the following parameters:
Nqs =      20    Nr_points =    1024   r_max =   100.000
b_value =  6.30000    beta =  0.00901
     q_mesh =  0.00010000  0.00030000  0.00058939  0.00100810
               0.00161396  0.00249058  0.00375900  0.00559430
               0.00824984  0.01209221  0.01765183  0.02569619
               0.03733578  0.05417739  0.07854596  0.11380545
               0.16482331  0.23864234  0.34545298  0.50000000

Gradients computed in Reciprocal space

---------------------------------------------------------------------------------


     Starting wfcs are  216 randomized atomic wfcs
     Checking if some PAW data can be deallocated... 

     total cpu time spent up to now is        5.9 secs

     Self-consistent Calculation

     iteration #  1     ecut=    80.00 Ry     beta= 0.70
     Davidson diagonalization with overlap
     ethr =  1.00E-02,  avg # of iterations =  3.0

     Threshold (ethr) on eigenvalues was too large:
     Diagonalizing with lowered threshold

     Davidson diagonalization with overlap
     ethr =  5.46E-04,  avg # of iterations =  4.0

     negative rho (up, down):  4.348E-08 0.000E+00

     total cpu time spent up to now is       19.7 secs

     total energy              =   -2245.53165418 Ry
     estimated scf accuracy    <       1.95440510 Ry

     iteration #  2     ecut=    80.00 Ry     beta= 0.70
     Davidson diagonalization with overlap
     ethr =  6.26E-04,  avg # of iterations =  4.0

     total cpu time spent up to now is       24.1 secs

     total energy              =   -2245.52621475 Ry
     estimated scf accuracy    <       0.59904251 Ry

     iteration #  3     ecut=    80.00 Ry     beta= 0.70
     Davidson diagonalization with overlap
     ethr =  1.92E-04,  avg # of iterations =  2.0

     total cpu time spent up to now is       27.8 secs

     total energy              =   -2245.55139523 Ry
     estimated scf accuracy    <       0.10790846 Ry

     iteration #  4     ecut=    80.00 Ry     beta= 0.70
     Davidson diagonalization with overlap
     ethr =  3.46E-05,  avg # of iterations = 17.0

     total cpu time spent up to now is       32.6 secs

     total energy              =   -2245.56689243 Ry
     estimated scf accuracy    <       0.02505705 Ry

     iteration #  5     ecut=    80.00 Ry     beta= 0.70
     Davidson diagonalization with overlap
     ethr =  8.03E-06,  avg # of iterations =  2.0

     total cpu time spent up to now is       36.1 secs

     total energy              =   -2245.56566599 Ry
     estimated scf accuracy    <       0.01618531 Ry

     iteration #  6     ecut=    80.00 Ry     beta= 0.70
     Davidson diagonalization with overlap
     ethr =  5.19E-06,  avg # of iterations =  2.0

     total cpu time spent up to now is       39.5 secs

     total energy              =   -2245.56480806 Ry
     estimated scf accuracy    <       0.01064739 Ry

     iteration #  7     ecut=    80.00 Ry     beta= 0.70
     Davidson diagonalization with overlap
     ethr =  3.41E-06,  avg # of iterations =  2.0

     negative rho (up, down):  9.093E-06 0.000E+00

     total cpu time spent up to now is       46.4 secs

     total energy              =   -2245.56348243 Ry
     estimated scf accuracy    <       0.00638192 Ry

     iteration #  8     ecut=    80.00 Ry     beta= 0.70
     Davidson diagonalization with overlap
     ethr =  2.05E-06,  avg # of iterations =  2.0

     negative rho (up, down):  1.378E-02 0.000E+00

     total cpu time spent up to now is       52.3 secs

     total energy              =   -2245.56293718 Ry
     estimated scf accuracy    <       0.00357949 Ry

     iteration #  9     ecut=    80.00 Ry     beta= 0.70
     Davidson diagonalization with overlap
     ethr =  1.15E-06,  avg # of iterations =  2.0

     negative rho (up, down):  3.045E-02 0.000E+00

     total cpu time spent up to now is       58.9 secs

     total energy              =   -2245.56283482 Ry
     estimated scf accuracy    <       0.00192427 Ry

     iteration # 10     ecut=    80.00 Ry     beta= 0.70
     Davidson diagonalization with overlap
     ethr =  6.17E-07,  avg # of iterations =  2.0

     negative rho (up, down):  2.251E-02 0.000E+00

     total cpu time spent up to now is       66.0 secs

     total energy              =   -2245.56284093 Ry
     estimated scf accuracy    <       0.00072528 Ry

     iteration # 11     ecut=    80.00 Ry     beta= 0.70
     Davidson diagonalization with overlap
     ethr =  2.32E-07,  avg # of iterations =  2.0

     negative rho (up, down):  9.221E-03 0.000E+00

     total cpu time spent up to now is       73.3 secs

     total energy              =   -2245.56288185 Ry
     estimated scf accuracy    <       0.00008778 Ry

     iteration # 12     ecut=    80.00 Ry     beta= 0.70
     Davidson diagonalization with overlap
     ethr =  2.81E-08,  avg # of iterations =  8.0

     negative rho (up, down):  3.527E-03 0.000E+00

     total cpu time spent up to now is       80.9 secs

     total energy              =   -2245.56292921 Ry
     estimated scf accuracy    <       0.00001653 Ry

     iteration # 13     ecut=    80.00 Ry     beta= 0.70
     Davidson diagonalization with overlap
     ethr =  5.30E-09,  avg # of iterations =  4.0

     negative rho (up, down):  3.959E-04 0.000E+00

     total cpu time spent up to now is       89.4 secs

     total energy              =   -2245.56293145 Ry
     estimated scf accuracy    <       0.00000441 Ry

     iteration # 14     ecut=    80.00 Ry     beta= 0.70
     Davidson diagonalization with overlap
     ethr =  1.41E-09,  avg # of iterations =  4.0

     negative rho (up, down):  3.737E-04 0.000E+00

     total cpu time spent up to now is       99.6 secs

     total energy              =   -2245.56293182 Ry
     estimated scf accuracy    <       0.00000101 Ry

     iteration # 15     ecut=    80.00 Ry     beta= 0.70
     Davidson diagonalization with overlap
     ethr =  3.25E-10,  avg # of iterations =  4.0

     negative rho (up, down):  2.860E-04 0.000E+00

     total cpu time spent up to now is      102.9 secs

     End of self-consistent calculation

          k = 0.0000 0.0000 0.0000 (105382 PWs)   bands (ev):

   -62.8680 -62.8541 -62.8416 -62.8393 -62.8187 -62.8082 -62.7960 -62.7751
   -62.7404 -62.7236 -62.7177 -62.5273 -37.1928 -37.1438 -37.1272 -37.1213
   -37.0885 -37.0823 -37.0695 -37.0621 -37.0418 -37.0380 -37.0252 -37.0220
   -37.0164 -37.0108 -36.9994 -36.9877 -36.9860 -36.9780 -36.9699 -36.9332
   -36.9239 -36.9162 -36.9025 -36.8969 -36.8829 -36.8778 -36.8685 -36.8574
   -36.8399 -36.8376 -36.8103 -36.7814 -36.7805 -36.7123 -36.6438 -36.5476
   -29.5961 -15.9166 -15.1349 -15.0876 -14.9252 -14.8787 -14.7287 -14.4699
   -14.4538 -14.4120 -14.3785 -14.3439 -14.2965 -14.2619 -14.1951 -14.0984
   -14.0936 -14.0780 -14.0014 -13.8912 -13.8638 -13.8157 -13.7553 -12.9700
   -11.5948 -11.5469  -8.8740  -7.5632  -7.4136  -7.2615  -7.2194  -7.2126
    -7.1190  -7.0708  -7.0595  -6.7691  -6.7393  -6.6927  -6.6614  -6.5741
    -6.4805  -6.4024  -6.3707  -6.2473  -6.1394  -6.1041  -5.9191  -5.8422
    -5.8151  -5.7716  -5.7490  -5.7092  -5.6408  -5.6210  -5.5970  -5.5654
    -5.5047  -5.4764  -5.4190  -5.3275  -5.2439  -5.1525  -5.1031  -5.0076
    -4.9527  -4.8991  -4.8830  -4.8374  -4.7820  -4.6517  -4.5542  -4.2920
    -4.2656  -4.1976  -4.1743  -4.1384  -4.0994  -3.9835  -3.8006  -3.7434
    -3.7001  -3.6829  -3.6164  -3.5787  -3.5498  -3.4706  -3.4427  -3.4103
    -3.4061  -3.3409  -3.2687  -3.2234  -3.1424  -3.0426  -2.8925  -2.8081
    -2.7242  -2.7092  -2.6610  -2.6414  -2.6124  -2.5945  -2.5410  -2.3429
    -2.2301  -1.9510  -1.9379  -1.7676  -0.7713  -0.6971  -0.1924  -0.1390
    -0.0734  -0.0463   0.0019   0.0960   0.1696   0.2295   0.2959   0.3127
     0.3580   0.4522   0.4897   0.5259   0.5725   0.6108   0.6668   0.7098
     0.7254   0.7794   0.7955   0.8247   0.8684   0.9198   1.0010   1.0158
     1.0687   1.1379   1.2573

     the Fermi energy is    -1.2695 ev

!    total energy              =   -2245.56293234 Ry
     estimated scf accuracy    <       0.00000035 Ry
     smearing contrib. (-TS)   =      -0.00000002 Ry
     internal energy E=F+TS    =   -2245.56293232 Ry

     The total energy is F=E-TS. E is the sum of the following terms:
     one-electron contribution =  -18465.78837656 Ry
     hartree contribution      =    9221.26032802 Ry
     xc contribution           =    -392.93948941 Ry
     ewald contribution        =    7401.72767591 Ry
     one-center paw contrib.   =      -9.82307027 Ry

     convergence has been achieved in  15 iterations

     negative rho (up, down):  2.860E-04 0.000E+00

     Forces acting on atoms (cartesian axes, Ry/au):

     atom    1 type  1   force =     0.01447734   -0.02241206    0.00752243
     atom    2 type  2   force =    -0.01404543    0.02208462    0.00104765
     atom    3 type  2   force =    -0.01412694    0.01326340   -0.00476474
     atom    4 type  1   force =     0.00352137    0.00532739   -0.00220815
     atom    5 type  2   force =    -0.00280510   -0.00514793   -0.00761510
     atom    6 type  2   force =     0.00142437    0.00947342    0.00045158
     atom    7 type  1   force =     0.02047045   -0.02322960   -0.04729487
     atom    8 type  2   force =    -0.00339337   -0.00163751    0.02315510
     atom    9 type  2   force =     0.01542705    0.00660085    0.01286566
     atom   10 type  1   force =    -0.00326195    0.00838350    0.00433624
     atom   11 type  2   force =     0.54647024    1.25301084   -2.97645897
     atom   12 type  2   force =    -0.00232384    0.00198255    0.00861125
     atom   13 type  1   force =     0.00370850    0.00309543   -0.00868819
     atom   14 type  2   force =     0.00884167    0.00189587    0.01512740
     atom   15 type  2   force =    -0.01102310    0.00632420   -0.01123039
     atom   16 type  1   force =     0.00064233    0.01063488    0.00232111
     atom   17 type  2   force =     0.00532961    0.00079089    0.00252959
     atom   18 type  2   force =    -0.00387946   -0.00583193    0.01420461
     atom   19 type  1   force =     0.00115553   -0.01610506   -0.00639035
     atom   20 type  2   force =    -0.00415750   -0.00490211    0.00102196
     atom   21 type  1   force =    -0.00407364    0.01015096    0.01542694
     atom   22 type  2   force =    -0.00365982   -0.00223477   -0.00373182
     atom   23 type  2   force =    -0.00435498   -0.00242681    0.00639036
     atom   24 type  1   force =    -0.00917799   -0.00353984   -0.02169831
     atom   25 type  2   force =     0.01617638    0.02031271    0.00789732
     atom   26 type  2   force =    -0.01190434   -0.00001993   -0.00414762
     atom   27 type  1   force =    -0.00009170   -0.00013871    0.00708368
     atom   28 type  2   force =     0.00079342   -0.00140877   -0.00508955
     atom   29 type  2   force =     0.00269048   -0.00070171   -0.00184410
     atom   30 type  1   force =    -0.00643420    0.00993598   -0.00540058
     atom   31 type  2   force =     0.00094095    0.00076807    0.01621665
     atom   32 type  2   force =    -0.00806640    0.00799123    0.00706600
     atom   33 type  1   force =     0.01652251   -0.00783855   -0.00549727
     atom   34 type  2   force =     0.00270589   -0.04348725   -0.01092410
     atom   35 type  2   force =    -0.00588835    0.00488302    0.01126467
     atom   36 type  3   force =    -0.54862998   -1.25584729    2.95844393
     The non-local contrib.  to forces
     atom    1 type  1   force =    -0.00488652    0.03183457   -0.01637703
     atom    2 type  2   force =    -0.01240641   -0.00873812   -0.26834778
     atom    3 type  2   force =    -0.01347520    0.00182234    0.26810993
     atom    4 type  1   force =     0.00262654    0.00304828    0.00305009
     atom    5 type  2   force =     0.00598447   -0.03301360   -0.25309475
     atom    6 type  2   force =    -0.00210468    0.01161729    0.26264114
     atom    7 type  1   force =    -0.01951772    0.05891759    0.02446920
     atom    8 type  2   force =    -0.00368459    0.00146290   -0.24553756
     atom    9 type  2   force =     0.01300375   -0.00875944    0.27733504
     atom   10 type  1   force =    -0.02343765   -0.00223116    0.01105911
     atom   11 type  2   force =     0.33244245    0.78597239   -1.73592298
     atom   12 type  2   force =    -0.01171418   -0.01313878    0.26768914
     atom   13 type  1   force =    -0.00182761    0.02074733   -0.00677546
     atom   14 type  2   force =     0.01348876   -0.02285752   -0.25729277
     atom   15 type  2   force =    -0.01177541    0.00174593    0.25819817
     atom   16 type  1   force =    -0.00173581    0.03267380   -0.02657423
     atom   17 type  2   force =     0.00295429   -0.02862780   -0.25040351
     atom   18 type  2   force =    -0.00589910   -0.00389992    0.27473629
     atom   19 type  1   force =     0.01860507    0.00229767   -0.01686651
     atom   20 type  2   force =    -0.00552445   -0.02297236    0.26432006
     atom   21 type  1   force =     0.03180749   -0.00240670    0.03257410
     atom   22 type  2   force =    -0.00080238    0.01582904   -0.25979958
     atom   23 type  2   force =    -0.00147653   -0.01930471    0.26673381
     atom   24 type  1   force =     0.00797067    0.01723776   -0.00902214
     atom   25 type  2   force =     0.01009119    0.00533183   -0.26082680
     atom   26 type  2   force =    -0.00370381   -0.01560637    0.26648197
     atom   27 type  1   force =    -0.00112054    0.00903775    0.00686982
     atom   28 type  2   force =    -0.00198492   -0.02783365   -0.27409105
     atom   29 type  2   force =     0.00674022    0.00080297    0.26552622
     atom   30 type  1   force =     0.00160100    0.01880383    0.00628656
     atom   31 type  2   force =    -0.00674064    0.00141063   -0.25323467
     atom   32 type  2   force =    -0.00303428   -0.00856942    0.27463453
     atom   33 type  1   force =    -0.00715925    0.01469435    0.00688268
     atom   34 type  2   force =    -0.01026011   -0.03441069   -0.27297513
     atom   35 type  2   force =     0.00042329   -0.01021293    0.26725626
     atom   36 type  3   force =     0.40744163    1.01550627   -1.62038729
     The ionic contribution  to forces
     atom    1 type  1   force =     0.46669724    1.12993683    4.32158763
     atom    2 type  2   force =    -0.14853920    1.32890843   38.90748457
     atom    3 type  2   force =    -0.04122624    0.24756607  -36.74925411
     atom    4 type  1   force =     0.50161616   -0.21304771   -0.63859656
     atom    5 type  2   force =    -0.93801026    1.15729323   38.48625354
     atom    6 type  2   force =     0.35703555   -0.56465987  -38.58331298
     atom    7 type  1   force =    -2.32171177   -4.89547340   -2.44724578
     atom    8 type  2   force =     0.16162335   -1.44631154   36.51346804
     atom    9 type  2   force =     0.49907668   -0.27205763  -38.80678576
     atom   10 type  1   force =     0.68294136    1.17974398    2.45262752
     atom   11 type  2   force =     2.46923341    5.45553389   23.63640965
     atom   12 type  2   force =     0.50252264    0.81203987  -39.07896205
     atom   13 type  1   force =     0.11527418    1.51318603    1.77238229
     atom   14 type  2   force =    -0.39357844    1.10397996   38.04981511
     atom   15 type  2   force =     0.06406606    0.18717970  -37.50211484
     atom   16 type  1   force =    -0.36334259    3.08677774   -0.92030233
     atom   17 type  2   force =     0.63150675    1.33124033   37.72263361
     atom   18 type  2   force =    -0.22291932   -0.69249810  -39.06184084
     atom   19 type  1   force =     1.47777602   -3.19531453   -1.51420802
     atom   20 type  2   force =     0.09757105   -0.44795254  -39.32371708
     atom   21 type  1   force =    -1.49688337    1.83853784   -2.72167484
     atom   22 type  2   force =    -1.20351990   -1.40976871   37.63470382
     atom   23 type  2   force =    -0.29486467    0.73297477  -39.09873309
     atom   24 type  1   force =    -0.26057142    1.60031394    4.84245326
     atom   25 type  2   force =     0.58796181    0.63582272   39.05785714
     atom   26 type  2   force =    -0.30949648    0.20135767  -37.86223836
     atom   27 type  1   force =    -0.04632318   -0.00470188   -3.25074024
     atom   28 type  2   force =     0.19323206    0.86684512   38.02062118
     atom   29 type  2   force =    -0.21249901   -0.47064318  -37.74713884
     atom   30 type  1   force =     0.58786938   -1.49930974   -1.82679698
     atom   31 type  2   force =     1.09398368   -0.43738611   37.01673202
     atom   32 type  2   force =    -0.50784123   -0.13895908  -39.22910776
     atom   33 type  1   force =     0.59970635   -0.34962948    0.63253180
     atom   34 type  2   force =     1.22467610   -1.19287970   38.87859024
     atom   35 type  2   force =    -0.13316228    0.53565234  -38.55953401
     atom   36 type  3   force =    -3.41988044   -7.71429724   56.97615308
     The local contribution  to forces
     atom    1 type  1   force =    -0.44739085   -1.18416850   -4.29698282
     atom    2 type  2   force =     0.14640491   -1.29875828  -38.65828689
     atom    3 type  2   force =     0.03995657   -0.23597874   36.49743665
     atom    4 type  1   force =    -0.50076972    0.21553316    0.63404246
     atom    5 type  2   force =     0.92981718   -1.13120786  -38.26086124
     atom    6 type  2   force =    -0.35380507    0.56369073   38.34225441
     atom    7 type  1   force =     2.36175221    4.81345281    2.37638794
     atom    8 type  2   force =    -0.16182663    1.44337314  -36.26426379
     atom    9 type  2   force =    -0.49615591    0.28689636   38.56359374
     atom   10 type  1   force =    -0.66292165   -1.16937626   -2.45849964
     atom   11 type  2   force =    -2.23389492   -4.93823586  -24.99294085
     atom   12 type  2   force =    -0.49423230   -0.79812033   38.84138007
     atom   13 type  1   force =    -0.10964648   -1.53085746   -1.77362685
     atom   14 type  2   force =     0.38975070   -1.08019188  -37.79727705
     atom   15 type  2   force =    -0.06396564   -0.18256835   37.25337037
     atom   16 type  1   force =     0.36579307   -3.10869817    0.94986529
     atom   17 type  2   force =    -0.62906026   -1.30331453  -37.48966103
     atom   18 type  2   force =     0.22479322    0.69107424   38.82265037
     atom   19 type  1   force =    -1.49520612    3.17697854    1.52545112
     atom   20 type  2   force =    -0.09670520    0.46506167   39.08174002
     atom   21 type  1   force =     1.46109927   -1.82616110    2.70539822
     atom   22 type  2   force =     1.20125507    1.39271443  -37.39875785
     atom   23 type  2   force =     0.29206901   -0.71761899   38.85951115
     atom   24 type  1   force =     0.24338267   -1.62111786   -4.85445613
     atom   25 type  2   force =    -0.58173322   -0.62049582  -38.80953634
     atom   26 type  2   force =     0.30139385   -0.18662879   37.61288742
     atom   27 type  1   force =     0.04731645   -0.00430544    3.25160224
     atom   28 type  2   force =    -0.19065903   -0.84233363  -37.77228177
     atom   29 type  2   force =     0.20901206    0.46975625   37.50069911
     atom   30 type  1   force =    -0.59597844    1.49044657    1.81591801
     atom   31 type  2   force =    -1.08674576    0.43677978  -36.76745274
     atom   32 type  2   force =     0.50291263    0.15498352   38.98289150
     atom   33 type  1   force =    -0.57597991    0.32688811   -0.64414354
     atom   34 type  2   force =    -1.21279990    1.18268610  -38.63722413
     atom   35 type  2   force =     0.12705240   -0.52149251   38.32478250
     atom   36 type  3   force =     2.46409425    5.44441908  -52.39364398
     The core correction contribution to forces
     atom    1 type  1   force =     0.00000000    0.00000000    0.00000000
     atom    2 type  2   force =     0.00045124    0.00055832    0.02051193
     atom    3 type  2   force =     0.00060424   -0.00019204   -0.02079401
     atom    4 type  1   force =     0.00000000    0.00000000    0.00000000
     atom    5 type  2   force =    -0.00060767    0.00186411    0.02036582
     atom    6 type  2   force =     0.00028174   -0.00110995   -0.02087056
     atom    7 type  1   force =     0.00000000    0.00000000    0.00000000
     atom    8 type  2   force =     0.00044550   -0.00007872    0.01982039
     atom    9 type  2   force =    -0.00051362    0.00052952   -0.02098289
     atom   10 type  1   force =     0.00000000    0.00000000    0.00000000
     atom   11 type  2   force =    -0.02133190   -0.05033736    0.11640447
     atom   12 type  2   force =     0.00109224    0.00115007   -0.02117167
     atom   13 type  1   force =     0.00000000    0.00000000    0.00000000
     atom   14 type  2   force =    -0.00079941    0.00085310    0.02019783
     atom   15 type  2   force =     0.00064417   -0.00006851   -0.02041573
     atom   16 type  1   force =     0.00000000    0.00000000    0.00000000
     atom   17 type  2   force =    -0.00003830    0.00154638    0.02025213
     atom   18 type  2   force =     0.00017086   -0.00046315   -0.02109804
     atom   19 type  1   force =     0.00000000    0.00000000    0.00000000
     atom   20 type  2   force =     0.00050366    0.00095460   -0.02107066
     atom   21 type  1   force =     0.00000000    0.00000000    0.00000000
     atom   22 type  2   force =    -0.00052468   -0.00105839    0.02045821
     atom   23 type  2   force =    -0.00007201    0.00148108   -0.02082573
     atom   24 type  1   force =     0.00000000    0.00000000    0.00000000
     atom   25 type  2   force =    -0.00012333   -0.00042860    0.02071022
     atom   26 type  2   force =    -0.00008237    0.00081940   -0.02102856
     atom   27 type  1   force =     0.00000000    0.00000000    0.00000000
     atom   28 type  2   force =     0.00017824    0.00199779    0.02093610
     atom   29 type  2   force =    -0.00057688   -0.00054853   -0.02067568
     atom   30 type  1   force =     0.00000000    0.00000000    0.00000000
     atom   31 type  2   force =     0.00043675    0.00003306    0.02048497
     atom   32 type  2   force =    -0.00009994    0.00054578   -0.02108945
     atom   33 type  1   force =     0.00000000    0.00000000    0.00000000
     atom   34 type  2   force =     0.00104068    0.00104496    0.02099545
     atom   35 type  2   force =    -0.00021292    0.00089677   -0.02093823
     atom   36 type  3   force =    -0.00026576   -0.00143721   -0.00361485
     The Hubbard contrib.    to forces
     atom    1 type  1   force =     0.00000000    0.00000000    0.00000000
     atom    2 type  2   force =     0.00000000    0.00000000    0.00000000
     atom    3 type  2   force =     0.00000000    0.00000000    0.00000000
     atom    4 type  1   force =     0.00000000    0.00000000    0.00000000
     atom    5 type  2   force =     0.00000000    0.00000000    0.00000000
     atom    6 type  2   force =     0.00000000    0.00000000    0.00000000
     atom    7 type  1   force =     0.00000000    0.00000000    0.00000000
     atom    8 type  2   force =     0.00000000    0.00000000    0.00000000
     atom    9 type  2   force =     0.00000000    0.00000000    0.00000000
     atom   10 type  1   force =     0.00000000    0.00000000    0.00000000
     atom   11 type  2   force =     0.00000000    0.00000000    0.00000000
     atom   12 type  2   force =     0.00000000    0.00000000    0.00000000
     atom   13 type  1   force =     0.00000000    0.00000000    0.00000000
     atom   14 type  2   force =     0.00000000    0.00000000    0.00000000
     atom   15 type  2   force =     0.00000000    0.00000000    0.00000000
     atom   16 type  1   force =     0.00000000    0.00000000    0.00000000
     atom   17 type  2   force =     0.00000000    0.00000000    0.00000000
     atom   18 type  2   force =     0.00000000    0.00000000    0.00000000
     atom   19 type  1   force =     0.00000000    0.00000000    0.00000000
     atom   20 type  2   force =     0.00000000    0.00000000    0.00000000
     atom   21 type  1   force =     0.00000000    0.00000000    0.00000000
     atom   22 type  2   force =     0.00000000    0.00000000    0.00000000
     atom   23 type  2   force =     0.00000000    0.00000000    0.00000000
     atom   24 type  1   force =     0.00000000    0.00000000    0.00000000
     atom   25 type  2   force =     0.00000000    0.00000000    0.00000000
     atom   26 type  2   force =     0.00000000    0.00000000    0.00000000
     atom   27 type  1   force =     0.00000000    0.00000000    0.00000000
     atom   28 type  2   force =     0.00000000    0.00000000    0.00000000
     atom   29 type  2   force =     0.00000000    0.00000000    0.00000000
     atom   30 type  1   force =     0.00000000    0.00000000    0.00000000
     atom   31 type  2   force =     0.00000000    0.00000000    0.00000000
     atom   32 type  2   force =     0.00000000    0.00000000    0.00000000
     atom   33 type  1   force =     0.00000000    0.00000000    0.00000000
     atom   34 type  2   force =     0.00000000    0.00000000    0.00000000
     atom   35 type  2   force =     0.00000000    0.00000000    0.00000000
     atom   36 type  3   force =     0.00000000    0.00000000    0.00000000
     The SCF correction term to forces
     atom    1 type  1   force =     0.00005554   -0.00001793   -0.00067464
     atom    2 type  2   force =     0.00004211    0.00011129   -0.00028347
     atom    3 type  2   force =     0.00001175    0.00004279   -0.00023250
     atom    4 type  1   force =     0.00004646   -0.00020932   -0.00067343
     atom    5 type  2   force =     0.00000925   -0.00008678   -0.00024776
     atom    6 type  2   force =     0.00001490   -0.00006776   -0.00022973
     atom    7 type  1   force =    -0.00005422   -0.00012958   -0.00087553
     atom    8 type  2   force =     0.00004706   -0.00008627   -0.00030127
     atom    9 type  2   force =     0.00001421   -0.00001094   -0.00026376
     atom   10 type  1   force =     0.00015407    0.00024396   -0.00082005
     atom   11 type  2   force =     0.00001927    0.00007480   -0.00037856
     atom   12 type  2   force =     0.00000583    0.00004874   -0.00029352
     atom   13 type  1   force =    -0.00009353    0.00001655   -0.00063746
     atom   14 type  2   force =    -0.00002187    0.00010924   -0.00028502
     atom   15 type  2   force =     0.00000579    0.00003245   -0.00023764
     atom   16 type  1   force =    -0.00007427   -0.00012146   -0.00063691
     atom   17 type  2   force =    -0.00003480   -0.00005646   -0.00026090
     atom   18 type  2   force =    -0.00002706   -0.00004800   -0.00021246
     atom   19 type  1   force =    -0.00002137   -0.00006972   -0.00073623
     atom   20 type  2   force =    -0.00000448    0.00000353   -0.00021967
     atom   21 type  1   force =    -0.00009897    0.00017794   -0.00083984
     atom   22 type  2   force =    -0.00006986    0.00004588   -0.00030570
     atom   23 type  2   force =    -0.00001272    0.00003807   -0.00026508
     atom   24 type  1   force =     0.00003815    0.00002334   -0.00064259
     atom   25 type  2   force =    -0.00002201    0.00007960   -0.00027619
     atom   26 type  2   force =    -0.00001745    0.00003519   -0.00021939
     atom   27 type  1   force =     0.00003363   -0.00017211   -0.00061743
     atom   28 type  2   force =     0.00002514   -0.00008738   -0.00024330
     atom   29 type  2   force =     0.00001215   -0.00007220   -0.00022419
     atom   30 type  1   force =     0.00007192   -0.00000765   -0.00077745
     atom   31 type  2   force =     0.00000498   -0.00007227   -0.00028221
     atom   32 type  2   force =    -0.00000552   -0.00001255   -0.00023211
     atom   33 type  1   force =    -0.00004662    0.00020549   -0.00073750
     atom   34 type  2   force =     0.00004718    0.00006911   -0.00027982
     atom   35 type  2   force =     0.00000923    0.00003639   -0.00027113
     atom   36 type  3   force =    -0.00002159   -0.00004118   -0.00003232

     Total force =     4.622943     Total SCF correction =     0.002898

     BFGS Geometry Optimization
     Energy error            =      0.0E+00 Ry
     Gradient error          =      3.0E+00 Ry/Bohr

     number of scf cycles    =   1
     number of bfgs steps    =   0

     energy             new  =   -2245.5629323393 Ry

     new trust radius        =       0.5000000000 bohr
     new conv_thr            =       0.0000010000 Ry


ATOMIC_POSITIONS (angstrom)
Mo            6.5757179106        1.7859957484        2.8242507057
S             8.1755747273        0.8114880548        4.4346229835
S             8.1920918897        0.8123131833        1.2774985226
Mo            8.0954470269        4.4954872992        2.7176400154
S             6.4996826562        3.7219956299        4.3460454892
S             6.5534648613        3.5125028333        1.1213167071
Mo            6.4916353313        7.2165607601        2.6680639307
S             8.0814536062        6.3437387122        4.2443320686
S             8.0821638688        6.3052355436        1.0849023069
Mo            8.1603555431        9.9028576453        2.8438120490
S             6.5393123193        9.0441469957        4.1426625082
S             6.6177594761        9.0488713662        1.1406029330
Mo            3.4219592414        1.7472059042        2.7757693167
S             4.9758797349        0.8170943609        4.3517551076
S             5.0569432907        0.8467729873        1.2257512528
Mo            4.9798085697        4.5140371056        2.6330720519
S             3.4282721961        3.6716635753        4.2799139235
S             3.4376071917        3.5477575850        1.0594991529
Mo            3.4539550855        7.2150235468        2.6301606393
S             4.9828983438        6.3265362853        1.0373362870
Mo            5.0119348449        9.9024200622        2.7446471728
S             3.4706624713        8.9435707408        4.3252898501
S             3.4080773633        9.0647939423        1.0965845220
Mo            0.2953490745        1.7472235776        2.8476918851
S             1.8517689659        0.7943348993        4.3988473964
S             1.8598383833        0.8544243083        1.2090658029
Mo            1.8606839018        4.4956555562        2.6607696108
S             0.2722779427        3.6542850239        4.3371729576
S             0.2314485490        3.5271925412        1.1718689142
Mo            0.2706323860        7.2174487385        2.7012601607
S             1.9023142592        6.3128608809        4.2237541280
S             1.8615865979        6.3109893562        1.0451300855
Mo            1.8456813769        9.9395059434        2.7725021737
S             0.2961314856        9.0864848590        4.4129869998
S             0.2762957297        9.0439201730        1.1513107575
O             6.2601874759        8.3988062410        5.5884324507



     Writing config-only to output data dir ./MoS2-V-O.save/
     NEW-OLD atomic charge density approx. for the potential

     negative rho (up, down):  2.176E-04 0.000E+00

     total cpu time spent up to now is      109.8 secs

     Self-consistent Calculation

     iteration #  1     ecut=    80.00 Ry     beta= 0.70
     Davidson diagonalization with overlap
     ethr =  1.00E-06,  avg # of iterations = 15.0

     negative rho (up, down):  8.657E-03 0.000E+00

     total cpu time spent up to now is      123.1 secs

     total energy              =   -2246.35287608 Ry
     estimated scf accuracy    <       0.29346382 Ry

     iteration #  2     ecut=    80.00 Ry     beta= 0.70
     Davidson diagonalization with overlap
     ethr =  9.41E-05,  avg # of iterations =  4.0

     negative rho (up, down):  1.795E-02 0.000E+00

     total cpu time spent up to now is      135.4 secs

     total energy              =   -2246.34922753 Ry
     estimated scf accuracy    <       0.09788583 Ry

     iteration #  3     ecut=    80.00 Ry     beta= 0.70
     Davidson diagonalization with overlap
     ethr =  3.14E-05,  avg # of iterations =  3.0

     negative rho (up, down):  2.477E-02 0.000E+00

     total cpu time spent up to now is      148.0 secs

     total energy              =   -2246.35550436 Ry
     estimated scf accuracy    <       0.01958253 Ry

     iteration #  4     ecut=    80.00 Ry     beta= 0.70
     Davidson diagonalization with overlap
     ethr =  6.28E-06,  avg # of iterations =  3.0

     negative rho (up, down):  2.530E-02 0.000E+00

     total cpu time spent up to now is      159.8 secs

     total energy              =   -2246.35557991 Ry
     estimated scf accuracy    <       0.00780215 Ry

     iteration #  5     ecut=    80.00 Ry     beta= 0.70
     Davidson diagonalization with overlap
     ethr =  2.50E-06,  avg # of iterations =  5.0

     negative rho (up, down):  2.401E-02 0.000E+00

     total cpu time spent up to now is      171.8 secs

     total energy              =   -2246.35595267 Ry
     estimated scf accuracy    <       0.00140862 Ry

     iteration #  6     ecut=    80.00 Ry     beta= 0.70
     Davidson diagonalization with overlap
     ethr =  4.51E-07,  avg # of iterations =  5.0

     negative rho (up, down):  2.051E-02 0.000E+00

     total cpu time spent up to now is      182.6 secs

     total energy              =   -2246.35585560 Ry
     estimated scf accuracy    <       0.00115219 Ry

     iteration #  7     ecut=    80.00 Ry     beta= 0.70
     Davidson diagonalization with overlap
     ethr =  3.69E-07,  avg # of iterations =  4.0

     negative rho (up, down):  1.551E-02 0.000E+00

     total cpu time spent up to now is      193.6 secs

     total energy              =   -2246.35591916 Ry
     estimated scf accuracy    <       0.00018486 Ry

     iteration #  8     ecut=    80.00 Ry     beta= 0.70
     Davidson diagonalization with overlap
     ethr =  5.93E-08,  avg # of iterations =  2.0

     negative rho (up, down):  1.007E-02 0.000E+00

     total cpu time spent up to now is      203.7 secs

     total energy              =   -2246.35582294 Ry
     estimated scf accuracy    <       0.00010015 Ry

     iteration #  9     ecut=    80.00 Ry     beta= 0.70
     Davidson diagonalization with overlap
     ethr =  3.21E-08,  avg # of iterations =  2.0

     negative rho (up, down):  5.060E-03 0.000E+00

     total cpu time spent up to now is      211.4 secs

     total energy              =   -2246.35576045 Ry
     estimated scf accuracy    <       0.00003113 Ry

     iteration # 10     ecut=    80.00 Ry     beta= 0.70
     Davidson diagonalization with overlap
     ethr =  9.98E-09,  avg # of iterations =  5.0

     negative rho (up, down):  3.971E-03 0.000E+00

     total cpu time spent up to now is      218.9 secs

     total energy              =   -2246.35575395 Ry
     estimated scf accuracy    <       0.00001634 Ry

     iteration # 11     ecut=    80.00 Ry     beta= 0.70
     Davidson diagonalization with overlap
     ethr =  5.24E-09,  avg # of iterations =  2.0

     negative rho (up, down):  1.107E-03 0.000E+00

     total cpu time spent up to now is      226.5 secs

     total energy              =   -2246.35572908 Ry
     estimated scf accuracy    <       0.00000758 Ry

     iteration # 12     ecut=    80.00 Ry     beta= 0.70
     Davidson diagonalization with overlap
     ethr =  2.43E-09,  avg # of iterations =  3.0

     negative rho (up, down):  5.746E-04 0.000E+00

     total cpu time spent up to now is      235.9 secs

     total energy              =   -2246.35572738 Ry
     estimated scf accuracy    <       0.00000381 Ry

     iteration # 13     ecut=    80.00 Ry     beta= 0.70
     Davidson diagonalization with overlap
     ethr =  1.22E-09,  avg # of iterations =  2.0

     negative rho (up, down):  1.792E-04 0.000E+00

     total cpu time spent up to now is      239.0 secs

     End of self-consistent calculation

          k = 0.0000 0.0000 0.0000 (105382 PWs)   bands (ev):

   -63.0526 -63.0367 -63.0319 -63.0160 -63.0130 -63.0033 -62.9901 -62.9750
   -62.9658 -62.9252 -62.8908 -62.8673 -37.4161 -37.3740 -37.3413 -37.3066
   -37.3029 -37.2972 -37.2727 -37.2580 -37.2373 -37.2351 -37.2295 -37.2191
   -37.2029 -37.1996 -37.1894 -37.1864 -37.1811 -37.1746 -37.1701 -37.1505
   -37.1265 -37.1205 -37.1003 -37.0931 -37.0901 -37.0826 -37.0745 -37.0619
   -37.0490 -37.0449 -37.0293 -37.0180 -37.0096 -36.9694 -36.8702 -36.8471
   -21.1415 -16.1264 -15.3614 -15.2724 -15.1419 -15.0617 -14.9069 -14.6634
   -14.6149 -14.5900 -14.5538 -14.5299 -14.4903 -14.4580 -14.3986 -14.3110
   -14.2795 -14.2520 -14.2389 -14.1552 -14.0360 -14.0160 -13.9880 -13.9667
    -8.0526  -7.9538  -7.8339  -7.6386  -7.5111  -7.4369  -7.4007  -7.3286
    -7.2492  -7.0830  -7.0249  -6.9411  -6.8934  -6.7949  -6.7377  -6.6694
    -6.6326  -6.5594  -6.4862  -6.4234  -6.1791  -6.1409  -6.0885  -6.0109
    -5.9484  -5.9384  -5.8916  -5.8565  -5.8296  -5.8040  -5.7506  -5.6924
    -5.6734  -5.6208  -5.5592  -5.4308  -5.3631  -5.2710  -5.2085  -5.1524
    -5.1140  -5.0789  -5.0062  -4.9470  -4.8181  -4.7264  -4.5906  -4.4954
    -4.3961  -4.3050  -4.2814  -4.1932  -4.1303  -4.0638  -3.9833  -3.9106
    -3.8643  -3.8214  -3.7595  -3.7512  -3.7163  -3.6776  -3.6464  -3.5970
    -3.5848  -3.5571  -3.3982  -3.3258  -3.2687  -3.2165  -3.1088  -3.0105
    -2.9466  -2.9122  -2.8750  -2.8478  -2.8131  -2.7622  -2.7182  -2.5063
    -2.4104  -2.1623  -2.1436  -1.8472  -0.8980  -0.8621  -0.4459  -0.3774
    -0.2736  -0.2591  -0.1778  -0.0870  -0.0197   0.0186   0.0900   0.1097
     0.1698   0.2574   0.2929   0.3251   0.3521   0.4218   0.4893   0.4986
     0.5585   0.5726   0.6046   0.6368   0.6826   0.7393   0.8020   0.8045
     0.8994   0.9542   1.0806

     the Fermi energy is    -1.3738 ev

!    total energy              =   -2246.35572700 Ry
     estimated scf accuracy    <       0.00000056 Ry
     smearing contrib. (-TS)   =      -0.00000006 Ry
     internal energy E=F+TS    =   -2246.35572694 Ry

     The total energy is F=E-TS. E is the sum of the following terms:
     one-electron contribution =  -18441.12747363 Ry
     hartree contribution      =    9207.70155054 Ry
     xc contribution           =    -392.14527823 Ry
     ewald contribution        =    7389.07934276 Ry
     one-center paw contrib.   =      -9.86386839 Ry

     convergence has been achieved in  13 iterations

     negative rho (up, down):  1.792E-04 0.000E+00

     Forces acting on atoms (cartesian axes, Ry/au):

     atom    1 type  1   force =     0.01141900   -0.02089191    0.00366699
     atom    2 type  2   force =    -0.01254744    0.02210749    0.00365057
     atom    3 type  2   force =    -0.01278033    0.01414650   -0.00527845
     atom    4 type  1   force =     0.00681840    0.00266826   -0.00321193
     atom    5 type  2   force =    -0.00273735   -0.00504481   -0.00725903
     atom    6 type  2   force =     0.00312469    0.00924670    0.00079908
     atom    7 type  1   force =     0.02095724   -0.03353588   -0.04150698
     atom    8 type  2   force =    -0.00410379   -0.00068275    0.02155886
     atom    9 type  2   force =     0.01112279    0.00578996    0.01157495
     atom   10 type  1   force =     0.05300856    0.04316020   -0.05716804
     atom   11 type  2   force =    -0.04564978   -0.12813569    0.19184148
     atom   12 type  2   force =    -0.00116465    0.00143616   -0.00818230
     atom   13 type  1   force =     0.00590983    0.00411200   -0.00964824
     atom   14 type  2   force =     0.00712286    0.00272370    0.01689554
     atom   15 type  2   force =    -0.01160193    0.00548560   -0.01010108
     atom   16 type  1   force =    -0.00337696    0.00998524    0.00068766
     atom   17 type  2   force =     0.00481789    0.00140576    0.00415379
     atom   18 type  2   force =    -0.00346542   -0.00603359    0.01364413
     atom   19 type  1   force =    -0.00107260   -0.01884064   -0.00521123
     atom   20 type  2   force =    -0.00181377   -0.00647264    0.00128911
     atom   21 type  1   force =    -0.04871388    0.04520888   -0.04221010
     atom   22 type  2   force =     0.00110561   -0.00340631   -0.00379580
     atom   23 type  2   force =    -0.00474359   -0.00232517    0.00543164
     atom   24 type  1   force =    -0.01071295   -0.00265621   -0.02137580
     atom   25 type  2   force =     0.01542387    0.01898723    0.00879823
     atom   26 type  2   force =    -0.01124894   -0.00068307   -0.00442388
     atom   27 type  1   force =    -0.00072559   -0.00013013    0.00684946
     atom   28 type  2   force =     0.00068248   -0.00086446   -0.00455814
     atom   29 type  2   force =     0.00257812   -0.00033952   -0.00252703
     atom   30 type  1   force =    -0.00625372    0.00954273   -0.00415176
     atom   31 type  2   force =     0.00030437    0.00014311    0.01716668
     atom   32 type  2   force =    -0.00772151    0.00716651    0.00651091
     atom   33 type  1   force =     0.01460208   -0.00780815   -0.00753222
     atom   34 type  2   force =     0.00334970   -0.04290891   -0.00974166
     atom   35 type  2   force =    -0.00377319    0.00378597    0.01046140
     atom   36 type  3   force =     0.03185992    0.07365786   -0.07709681
     The non-local contrib.  to forces
     atom    1 type  1   force =    -0.00429336    0.03758593   -0.01694313
     atom    2 type  2   force =    -0.00931311   -0.00657906   -0.27692961
     atom    3 type  2   force =    -0.01430218   -0.00039688    0.26781494
     atom    4 type  1   force =     0.00248774    0.00619589    0.00321398
     atom    5 type  2   force =     0.00662498   -0.03493667   -0.25573626
     atom    6 type  2   force =    -0.00167247    0.01086928    0.26336224
     atom    7 type  1   force =    -0.02168215    0.02920638   -0.00635267
     atom    8 type  2   force =     0.01190355   -0.00489507   -0.25712140
     atom    9 type  2   force =     0.00499317   -0.00463269    0.27896096
     atom   10 type  1   force =    -0.01183349    0.00013671    0.00741540
     atom   11 type  2   force =    -0.06395884   -0.16753704    0.41916191
     atom   12 type  2   force =    -0.01165004   -0.01563531    0.26665196
     atom   13 type  1   force =    -0.00183802    0.02168153   -0.00433448
     atom   14 type  2   force =     0.01126063   -0.01670223   -0.26847321
     atom   15 type  2   force =    -0.01093027   -0.00087020    0.25950940
     atom   16 type  1   force =     0.00189672    0.03710491   -0.02144128
     atom   17 type  2   force =     0.00288824   -0.02887173   -0.25431742
     atom   18 type  2   force =    -0.00481232   -0.00357509    0.27479235
     atom   19 type  1   force =     0.01648753    0.00215210   -0.01517270
     atom   20 type  2   force =    -0.00229857   -0.02023064    0.26406624
     atom   21 type  1   force =     0.01395941    0.00676148    0.02224014
     atom   22 type  2   force =    -0.00783093    0.01347001   -0.26764233
     atom   23 type  2   force =    -0.00047015   -0.02079630    0.26576355
     atom   24 type  1   force =     0.00835824    0.01921595   -0.00866330
     atom   25 type  2   force =     0.00889288    0.00480838   -0.26413745
     atom   26 type  2   force =    -0.00345970   -0.01518041    0.26646360
     atom   27 type  1   force =     0.00034034    0.01100858    0.00843929
     atom   28 type  2   force =    -0.00304629   -0.02778287   -0.27651394
     atom   29 type  2   force =     0.00651076    0.00074462    0.26587235
     atom   30 type  1   force =     0.00217486    0.01689693    0.00792653
     atom   31 type  2   force =    -0.00803403    0.00218704   -0.25735423
     atom   32 type  2   force =    -0.00258811   -0.00795962    0.27481570
     atom   33 type  1   force =    -0.00380114    0.01059199    0.00925890
     atom   34 type  2   force =    -0.00271117   -0.03259889   -0.28084181
     atom   35 type  2   force =     0.00013360   -0.01196779    0.26530478
     atom   36 type  3   force =     0.38777517    0.92922214   -1.77989381
     The ionic contribution  to forces
     atom    1 type  1   force =     0.40308302    1.32631422    4.41230458
     atom    2 type  2   force =    -0.11917737    1.30122746   39.04081589
     atom    3 type  2   force =    -0.00713826    0.28535716  -36.78471101
     atom    4 type  1   force =     0.48181827   -0.16723012   -0.56159456
     atom    5 type  2   force =    -0.93768436    1.17859518   38.47419265
     atom    6 type  2   force =     0.34753576   -0.55664101  -38.55511029
     atom    7 type  1   force =    -2.49159637   -5.29342549   -1.91138875
     atom    8 type  2   force =     0.02314370   -1.24563685   36.58157661
     atom    9 type  2   force =     0.51609579   -0.30977916  -38.78784729
     atom   10 type  1   force =     1.81412505    1.50196948    2.29577156
     atom   11 type  2   force =     0.61470106    0.99485832   30.41632847
     atom   12 type  2   force =     0.47540178    0.76911458  -39.26039315
     atom   13 type  1   force =     0.09428161    1.51203811    1.81107736
     atom   14 type  2   force =    -0.41391231    1.03744787   38.17859292
     atom   15 type  2   force =     0.03155753    0.22554916  -37.51878328
     atom   16 type  1   force =    -0.34605800    3.12604834   -0.83377361
     atom   17 type  2   force =     0.63531678    1.33147477   37.72565246
     atom   18 type  2   force =    -0.22164040   -0.67798799  -39.03512347
     atom   19 type  1   force =     1.57252268   -3.14621195   -1.34418267
     atom   20 type  2   force =     0.07736929   -0.46172802  -39.29725541
     atom   21 type  1   force =    -2.50521820    1.92906587   -2.59168662
     atom   22 type  2   force =    -0.97798566   -1.44203893   37.69101567
     atom   23 type  2   force =    -0.30809366    0.71436465  -39.06750047
     atom   24 type  1   force =    -0.18857371    1.61265768    4.83987941
     atom   25 type  2   force =     0.58108126    0.61020222   39.07233362
     atom   26 type  2   force =    -0.29849431    0.20057134  -37.84421339
     atom   27 type  1   force =    -0.04401905    0.02232916   -3.17634490
     atom   28 type  2   force =     0.19050839    0.86732285   38.02161006
     atom   29 type  2   force =    -0.20495010   -0.45255371  -37.73516352
     atom   30 type  1   force =     0.60482754   -1.55562978   -1.68957176
     atom   31 type  2   force =     1.09455799   -0.41200699   37.02909802
     atom   32 type  2   force =    -0.50251604   -0.14699750  -39.20134779
     atom   33 type  1   force =     0.62284428   -0.35187815    0.74420294
     atom   34 type  2   force =     1.15071997   -1.21117802   38.96094034
     atom   35 type  2   force =    -0.08629587    0.52993863  -38.54663751
     atom   36 type  3   force =    -1.67813808   -3.64552337   48.44723691
     The local contribution  to forces
     atom    1 type  1   force =    -0.38747012   -1.38521605   -4.39160239
     atom    2 type  2   force =     0.11555411   -1.27315146  -38.78119606
     atom    3 type  2   force =     0.00796419   -0.27088340   36.53222590
     atom    4 type  1   force =    -0.47769199    0.16393257    0.55516205
     atom    5 type  2   force =     0.92895747   -1.15063352  -38.24614050
     atom    6 type  2   force =    -0.34298060    0.55609922   38.31310675
     atom    7 type  1   force =     2.53410380    5.23088944    1.87612131
     atom    8 type  2   force =    -0.03854044    1.24929022  -36.32350824
     atom    9 type  2   force =    -0.50996322    0.31998439   38.54129173
     atom   10 type  1   force =    -1.74935511   -1.45902813   -2.36019544
     atom   11 type  2   force =    -0.60011721   -0.96471693  -30.62873093
     atom   12 type  2   force =    -0.46602617   -0.75333676   39.00642872
     atom   13 type  1   force =    -0.08624351   -1.52999493   -1.81634142
     atom   14 type  2   force =     0.41051595   -1.01867338  -37.91401076
     atom   15 type  2   force =    -0.03280467   -0.21942036   37.26946004
     atom   16 type  1   force =     0.34089577   -3.15291835    0.85587659
     atom   17 type  2   force =    -0.63327783   -1.30271575  -37.48751220
     atom   18 type  2   force =     0.22291535    0.67601877   38.79469906
     atom   19 type  1   force =    -1.58998294    3.12560748    1.35425212
     atom   20 type  2   force =    -0.07719321    0.47481060   39.05534200
     atom   21 type  1   force =     2.44250284   -1.89075926    2.52733088
     atom   22 type  2   force =     0.98656402    1.42616937  -37.44827539
     atom   23 type  2   force =     0.30400407   -0.69746906   38.82781562
     atom   24 type  1   force =     0.16929658   -1.63491572   -4.85256985
     atom   25 type  2   force =    -0.57445855   -0.59585565  -38.82017359
     atom   26 type  2   force =     0.29080770   -0.18699980   37.59406004
     atom   27 type  1   force =     0.04302719   -0.03314919    3.17466240
     atom   28 type  2   force =    -0.18708780   -0.84235174  -37.77061457
     atom   29 type  2   force =     0.20153038    0.45202481   37.48708474
     atom   30 type  1   force =    -0.61325488    1.54858073    1.67761936
     atom   31 type  2   force =    -1.08666571    0.41019092  -36.77518314
     atom   32 type  2   force =     0.49755628    0.16175214   38.95386129
     atom   33 type  1   force =    -0.60433623    0.33314323   -0.76080191
     atom   34 type  2   force =    -1.14519091    1.19991355  -38.71125328
     atom   35 type  2   force =     0.08256218   -0.51517011   38.31246255
     atom   36 type  3   force =     1.32638511    2.80014936  -46.76307793
     The core correction contribution to forces
     atom    1 type  1   force =     0.00000000    0.00000000    0.00000000
     atom    2 type  2   force =     0.00029718    0.00040398    0.02113093
     atom    3 type  2   force =     0.00065041   -0.00003984   -0.02082108
     atom    4 type  1   force =     0.00000000    0.00000000    0.00000000
     atom    5 type  2   force =    -0.00064726    0.00200741    0.02058396
     atom    6 type  2   force =     0.00023846   -0.00105729   -0.02087774
     atom    7 type  1   force =     0.00000000    0.00000000    0.00000000
     atom    8 type  2   force =    -0.00063358    0.00065818    0.02090988
     atom    9 type  2   force =    -0.00001844    0.00027332   -0.02110550
     atom   10 type  1   force =     0.00000000    0.00000000    0.00000000
     atom   11 type  2   force =     0.00370101    0.00933521   -0.01468996
     atom   12 type  2   force =     0.00107430    0.00130103   -0.02104933
     atom   13 type  1   force =     0.00000000    0.00000000    0.00000000
     atom   14 type  2   force =    -0.00068474    0.00045599    0.02097409
     atom   15 type  2   force =     0.00060247    0.00011986   -0.02049769
     atom   16 type  1   force =     0.00000000    0.00000000    0.00000000
     atom   17 type  2   force =    -0.00001087    0.00158012    0.02048637
     atom   18 type  2   force =     0.00011681   -0.00046666   -0.02109767
     atom   19 type  1   force =     0.00000000    0.00000000    0.00000000
     atom   20 type  2   force =     0.00026823    0.00078411   -0.02110657
     atom   21 type  1   force =     0.00000000    0.00000000    0.00000000
     atom   22 type  2   force =     0.00038634   -0.00107411    0.02134635
     atom   23 type  2   force =    -0.00014751    0.00151065   -0.02080032
     atom   24 type  1   force =     0.00000000    0.00000000    0.00000000
     atom   25 type  2   force =    -0.00005978   -0.00040057    0.02092275
     atom   26 type  2   force =    -0.00008731    0.00080697   -0.02102649
     atom   27 type  1   force =     0.00000000    0.00000000    0.00000000
     atom   28 type  2   force =     0.00022762    0.00200910    0.02110409
     atom   29 type  2   force =    -0.00056122   -0.00053139   -0.02068515
     atom   30 type  1   force =     0.00000000    0.00000000    0.00000000
     atom   31 type  2   force =     0.00051984    0.00000910    0.02076400
     atom   32 type  2   force =    -0.00012823    0.00049319   -0.02108964
     atom   33 type  1   force =     0.00000000    0.00000000    0.00000000
     atom   34 type  2   force =     0.00051742    0.00090079    0.02163793
     atom   35 type  2   force =    -0.00017493    0.00096876   -0.02086430
     atom   36 type  3   force =    -0.00431387   -0.01041463    0.01945801
     The Hubbard contrib.    to forces
     atom    1 type  1   force =     0.00000000    0.00000000    0.00000000
     atom    2 type  2   force =     0.00000000    0.00000000    0.00000000
     atom    3 type  2   force =     0.00000000    0.00000000    0.00000000
     atom    4 type  1   force =     0.00000000    0.00000000    0.00000000
     atom    5 type  2   force =     0.00000000    0.00000000    0.00000000
     atom    6 type  2   force =     0.00000000    0.00000000    0.00000000
     atom    7 type  1   force =     0.00000000    0.00000000    0.00000000
     atom    8 type  2   force =     0.00000000    0.00000000    0.00000000
     atom    9 type  2   force =     0.00000000    0.00000000    0.00000000
     atom   10 type  1   force =     0.00000000    0.00000000    0.00000000
     atom   11 type  2   force =     0.00000000    0.00000000    0.00000000
     atom   12 type  2   force =     0.00000000    0.00000000    0.00000000
     atom   13 type  1   force =     0.00000000    0.00000000    0.00000000
     atom   14 type  2   force =     0.00000000    0.00000000    0.00000000
     atom   15 type  2   force =     0.00000000    0.00000000    0.00000000
     atom   16 type  1   force =     0.00000000    0.00000000    0.00000000
     atom   17 type  2   force =     0.00000000    0.00000000    0.00000000
     atom   18 type  2   force =     0.00000000    0.00000000    0.00000000
     atom   19 type  1   force =     0.00000000    0.00000000    0.00000000
     atom   20 type  2   force =     0.00000000    0.00000000    0.00000000
     atom   21 type  1   force =     0.00000000    0.00000000    0.00000000
     atom   22 type  2   force =     0.00000000    0.00000000    0.00000000
     atom   23 type  2   force =     0.00000000    0.00000000    0.00000000
     atom   24 type  1   force =     0.00000000    0.00000000    0.00000000
     atom   25 type  2   force =     0.00000000    0.00000000    0.00000000
     atom   26 type  2   force =     0.00000000    0.00000000    0.00000000
     atom   27 type  1   force =     0.00000000    0.00000000    0.00000000
     atom   28 type  2   force =     0.00000000    0.00000000    0.00000000
     atom   29 type  2   force =     0.00000000    0.00000000    0.00000000
     atom   30 type  1   force =     0.00000000    0.00000000    0.00000000
     atom   31 type  2   force =     0.00000000    0.00000000    0.00000000
     atom   32 type  2   force =     0.00000000    0.00000000    0.00000000
     atom   33 type  1   force =     0.00000000    0.00000000    0.00000000
     atom   34 type  2   force =     0.00000000    0.00000000    0.00000000
     atom   35 type  2   force =     0.00000000    0.00000000    0.00000000
     atom   36 type  3   force =     0.00000000    0.00000000    0.00000000
     The SCF correction term to forces
     atom    1 type  1   force =     0.00009797    0.00042170   -0.00008533
     atom    2 type  2   force =     0.00009025    0.00020427   -0.00016384
     atom    3 type  2   force =     0.00004401    0.00010716    0.00021955
     atom    4 type  1   force =     0.00020287   -0.00023237    0.00001336
     atom    5 type  2   force =     0.00001032   -0.00007951   -0.00015214
     atom    6 type  2   force =     0.00000202   -0.00002580    0.00032487
     atom    7 type  1   force =     0.00013046   -0.00020850    0.00011988
     atom    8 type  2   force =     0.00002147   -0.00010152   -0.00029125
     atom    9 type  2   force =     0.00001399   -0.00005820    0.00028180
     atom   10 type  1   force =     0.00007061    0.00007985   -0.00015281
     atom   11 type  2   force =     0.00002270   -0.00007755   -0.00022125
     atom   12 type  2   force =     0.00003398   -0.00000967    0.00018624
     atom   13 type  1   force =    -0.00029177    0.00038500   -0.00004295
     atom   14 type  2   force =    -0.00005817    0.00019317   -0.00018075
     atom   15 type  2   force =    -0.00002850    0.00010484    0.00021720
     atom   16 type  1   force =    -0.00011296   -0.00025195    0.00003272
     atom   17 type  2   force =    -0.00009993   -0.00006394   -0.00014867
     atom   18 type  2   force =    -0.00004636   -0.00002491    0.00038061
     atom   19 type  1   force =    -0.00010137   -0.00039056   -0.00010124
     atom   20 type  2   force =     0.00003899   -0.00011099    0.00024960
     atom   21 type  1   force =     0.00004056    0.00013849   -0.00008775
     atom   22 type  2   force =    -0.00002966    0.00006505   -0.00023335
     atom   23 type  2   force =    -0.00003784    0.00006260    0.00016000
     atom   24 type  1   force =     0.00020444    0.00038358   -0.00001532
     atom   25 type  2   force =    -0.00003344    0.00023054   -0.00014035
     atom   26 type  2   force =    -0.00001683    0.00011653    0.00029911
     atom   27 type  1   force =    -0.00007557   -0.00032097    0.00009942
     atom   28 type  2   force =     0.00007906   -0.00006410   -0.00013703
     atom   29 type  2   force =     0.00004679   -0.00002613    0.00037130
     atom   30 type  1   force =    -0.00000274   -0.00030744   -0.00011915
     atom   31 type  2   force =    -0.00007522   -0.00023925   -0.00015123
     atom   32 type  2   force =    -0.00004691   -0.00012399    0.00027809
     atom   33 type  1   force =    -0.00010634    0.00033248   -0.00018541
     atom   34 type  2   force =     0.00001289    0.00005136   -0.00021809
     atom   35 type  2   force =     0.00000033    0.00001417    0.00020263
     atom   36 type  3   force =     0.00015007    0.00022206   -0.00081324

     Total force =     0.306579     Total SCF correction =     0.001966
     Energy error            =      7.9E-01 Ry
     Gradient error          =      1.9E-01 Ry/Bohr

     number of scf cycles    =   2
     number of bfgs steps    =   1

     energy             old  =   -2245.5629323393 Ry
     energy             new  =   -2246.3557270041 Ry

     CASE: energy            _new < energy            _old

     new trust radius        =       0.0909384789 bohr
     new conv_thr            =       0.0000001918 Ry


ATOMIC_POSITIONS (angstrom)
Mo            6.5817949451        1.7749690445        2.8262668633
S             8.1689390563        0.8231196356        4.4364852134
S             8.1853370879        0.8197366535        1.2747327648
Mo            8.0989604307        4.4969510535        2.7159726059
S             6.4982408445        3.7193389279        4.3422180604
S             6.5550706981        3.5173731846        1.1217293319
Mo            6.5026512618        7.1991473403        2.6460943754
S             8.0793103333        6.3433579985        4.2557114060
S             8.0881130737        6.3083002347        1.0910216277
Mo            8.1869807126        9.9247845174        2.8151160655
S             6.5286135620        9.0077973695        4.1723276911
S             6.6171206079        9.0496393073        1.1366755152
Mo            3.4250192393        1.7493466083        2.7707143893
S             4.9796661744        0.8185088450        4.3606051066
S             5.0508518286        0.8496781598        1.2204110549
Mo            4.9781221617        4.5193055628        2.6334706185
S             3.4308186927        3.6723893993        4.2820629462
S             3.4357745103        3.5445874801        1.0666907714
Mo            3.4534408497        7.2051718784        2.6273921663
S             4.9818912851        6.3231659675        1.0380085578
Mo            4.9873077332        9.9254185411        2.7237344750
S             3.4711369973        8.9418048265        4.3232940869
S             3.4055902121        9.0635682423        1.0994640050
Mo            0.2897468673        1.7458061043        2.8364375212
S             1.8599013315        0.8043550571        4.4034564128
S             1.8539048851        0.8540798240        1.2067443449
Mo            1.8603163823        4.4955868947        2.6643788000
S             0.2726395346        3.6538179340        4.3347626885
S             0.2328075809        3.5270057532        1.1705546528
Mo            0.2673378606        7.2224785959        2.6990475738
S             1.9024887275        6.3129502406        4.2327651907
S             1.8575160822        6.3147786476        1.0485683597
Mo            1.8534076240        9.9353969140        2.7685847926
S             0.2978794825        9.0638948548        4.4078347181
S             0.2742628422        9.0459368795        1.1568332074
O             6.2638921796        8.4076534881        5.6161548586



     Writing config-only to output data dir ./MoS2-V-O.save/
     NEW-OLD atomic charge density approx. for the potential

     negative rho (up, down):  1.762E-04 0.000E+00

     total cpu time spent up to now is      245.9 secs

     Self-consistent Calculation

     iteration #  1     ecut=    80.00 Ry     beta= 0.70
     Davidson diagonalization with overlap
     ethr =  1.00E-06,  avg # of iterations = 11.0

     negative rho (up, down):  1.882E-04 0.000E+00

     total cpu time spent up to now is      259.1 secs

     total energy              =   -2246.38854220 Ry
     estimated scf accuracy    <       0.00631766 Ry

     iteration #  2     ecut=    80.00 Ry     beta= 0.70
     Davidson diagonalization with overlap
     ethr =  2.02E-06,  avg # of iterations =  2.0

     negative rho (up, down):  2.027E-04 0.000E+00

     total cpu time spent up to now is      268.6 secs

     total energy              =   -2246.38864303 Ry
     estimated scf accuracy    <       0.00146845 Ry

     iteration #  3     ecut=    80.00 Ry     beta= 0.70
     Davidson diagonalization with overlap
     ethr =  4.71E-07,  avg # of iterations =  3.0

     negative rho (up, down):  2.037E-04 0.000E+00

     total cpu time spent up to now is      278.9 secs

     total energy              =   -2246.38874457 Ry
     estimated scf accuracy    <       0.00021137 Ry

     iteration #  4     ecut=    80.00 Ry     beta= 0.70
     Davidson diagonalization with overlap
     ethr =  6.77E-08,  avg # of iterations =  5.0

     negative rho (up, down):  1.946E-04 0.000E+00

     total cpu time spent up to now is      297.9 secs

     total energy              =   -2246.38879826 Ry
     estimated scf accuracy    <       0.00002738 Ry

     iteration #  5     ecut=    80.00 Ry     beta= 0.70
     Davidson diagonalization with overlap
     ethr =  8.78E-09,  avg # of iterations =  4.0

     negative rho (up, down):  1.796E-04 0.000E+00

     total cpu time spent up to now is      314.3 secs

     total energy              =   -2246.38880115 Ry
     estimated scf accuracy    <       0.00000687 Ry

     iteration #  6     ecut=    80.00 Ry     beta= 0.70
     Davidson diagonalization with overlap
     ethr =  2.20E-09,  avg # of iterations =  4.0

     negative rho (up, down):  1.700E-04 0.000E+00

     total cpu time spent up to now is      328.8 secs

     total energy              =   -2246.38880252 Ry
     estimated scf accuracy    <       0.00000341 Ry

     iteration #  7     ecut=    80.00 Ry     beta= 0.70
     Davidson diagonalization with overlap
     ethr =  1.09E-09,  avg # of iterations =  2.0

     negative rho (up, down):  1.577E-04 0.000E+00

     total cpu time spent up to now is      341.0 secs

     total energy              =   -2246.38880259 Ry
     estimated scf accuracy    <       0.00000118 Ry

     iteration #  8     ecut=    80.00 Ry     beta= 0.70
     Davidson diagonalization with overlap
     ethr =  3.77E-10,  avg # of iterations =  4.0

     negative rho (up, down):  1.804E-04 0.000E+00

     total cpu time spent up to now is      344.4 secs

     End of self-consistent calculation

          k = 0.0000 0.0000 0.0000 (105382 PWs)   bands (ev):

   -63.0447 -63.0281 -63.0231 -63.0147 -63.0131 -63.0007 -62.9911 -62.9714
   -62.9582 -62.9313 -62.8943 -62.8841 -37.3934 -37.3428 -37.3310 -37.3056
   -37.2960 -37.2898 -37.2638 -37.2527 -37.2362 -37.2328 -37.2209 -37.2091
   -37.1977 -37.1960 -37.1891 -37.1845 -37.1781 -37.1716 -37.1663 -37.1477
   -37.1193 -37.1160 -37.0950 -37.0922 -37.0862 -37.0755 -37.0722 -37.0650
   -37.0519 -37.0481 -37.0400 -37.0200 -37.0177 -36.9703 -36.8843 -36.8589
   -21.3858 -16.1181 -15.3408 -15.2785 -15.1271 -15.0618 -14.9018 -14.6461
   -14.6203 -14.5784 -14.5653 -14.5395 -14.4938 -14.4442 -14.3879 -14.2863
   -14.2770 -14.2595 -14.2157 -14.1245 -14.0258 -14.0165 -13.9989 -13.9521
    -7.9885  -7.8827  -7.7812  -7.6109  -7.5049  -7.4358  -7.3977  -7.3432
    -7.2533  -7.0805  -7.0159  -6.9448  -6.8931  -6.8059  -6.7497  -6.6739
    -6.6524  -6.5409  -6.4929  -6.4246  -6.1865  -6.1528  -6.0911  -5.9899
    -5.9526  -5.9275  -5.8973  -5.8566  -5.8390  -5.8205  -5.7644  -5.6888
    -5.6619  -5.6123  -5.5297  -5.4179  -5.3546  -5.2647  -5.1962  -5.1622
    -5.1162  -5.0852  -5.0263  -4.9427  -4.7959  -4.7327  -4.5731  -4.4988
    -4.4077  -4.3290  -4.2946  -4.2169  -4.1490  -4.1084  -3.9934  -3.9106
    -3.8762  -3.8273  -3.7585  -3.7476  -3.7098  -3.6822  -3.6409  -3.5935
    -3.5815  -3.5537  -3.3939  -3.3272  -3.2450  -3.2263  -3.0726  -3.0191
    -2.9532  -2.8991  -2.8814  -2.8345  -2.8095  -2.7832  -2.7199  -2.5251
    -2.3997  -2.1538  -2.1423  -1.9242  -0.9042  -0.8863  -0.3650  -0.3474
    -0.2882  -0.2360  -0.1759  -0.0659  -0.0296   0.0213   0.1040   0.1469
     0.1723   0.2536   0.2894   0.3481   0.3634   0.4267   0.4694   0.4932
     0.5391   0.5879   0.6305   0.6411   0.6822   0.7652   0.7928   0.8214
     0.8726   0.9288   1.0487

     the Fermi energy is    -1.4168 ev

!    total energy              =   -2246.38880267 Ry
     estimated scf accuracy    <       0.00000017 Ry
     smearing contrib. (-TS)   =      -0.00000001 Ry
     internal energy E=F+TS    =   -2246.38880266 Ry

     The total energy is F=E-TS. E is the sum of the following terms:
     one-electron contribution =  -18430.29199379 Ry
     hartree contribution      =    9202.31764408 Ry
     xc contribution           =    -392.11929763 Ry
     ewald contribution        =    7383.56771655 Ry
     one-center paw contrib.   =      -9.86287187 Ry

     convergence has been achieved in   8 iterations

     negative rho (up, down):  1.804E-04 0.000E+00

     Forces acting on atoms (cartesian axes, Ry/au):

     atom    1 type  1   force =     0.00242770   -0.01334538    0.00144037
     atom    2 type  2   force =    -0.00568619    0.01420390   -0.00066431
     atom    3 type  2   force =    -0.00915648    0.01549585   -0.01529350
     atom    4 type  1   force =     0.00536313    0.00357528    0.00178717
     atom    5 type  2   force =    -0.00104226   -0.00459176   -0.00712312
     atom    6 type  2   force =     0.00162130    0.00669136    0.00189386
     atom    7 type  1   force =     0.01192156   -0.02019582   -0.02096724
     atom    8 type  2   force =    -0.00431474   -0.00174365    0.01361156
     atom    9 type  2   force =     0.01519465    0.00234452    0.00108195
     atom   10 type  1   force =     0.01166111    0.01706900   -0.01206751
     atom   11 type  2   force =    -0.03371596   -0.09550846    0.12560984
     atom   12 type  2   force =    -0.00120943    0.00564507   -0.00412680
     atom   13 type  1   force =     0.00435812    0.00495767   -0.00252115
     atom   14 type  2   force =     0.00393361    0.00159883    0.00936746
     atom   15 type  2   force =    -0.00964825    0.01060928   -0.01448003
     atom   16 type  1   force =    -0.00007079    0.00562009    0.00169000
     atom   17 type  2   force =     0.00459866    0.00104553    0.00289927
     atom   18 type  2   force =    -0.00287291   -0.00356229    0.01029416
     atom   19 type  1   force =     0.00166925   -0.00959921    0.00129559
     atom   20 type  2   force =    -0.00246122   -0.00759735   -0.00653189
     atom   21 type  1   force =    -0.01402951    0.01295589   -0.00630178
     atom   22 type  2   force =     0.00173467   -0.00200542   -0.00747564
     atom   23 type  2   force =    -0.00510871   -0.00375607   -0.00075097
     atom   24 type  1   force =    -0.00563740    0.00107311   -0.00859042
     atom   25 type  2   force =     0.01073141    0.01436435    0.00055125
     atom   26 type  2   force =    -0.00767218   -0.00107891   -0.00554569
     atom   27 type  1   force =    -0.00134507    0.00054099    0.00678283
     atom   28 type  2   force =     0.00023796   -0.00236552   -0.00531257
     atom   29 type  2   force =     0.00298449    0.00106506   -0.00377699
     atom   30 type  1   force =    -0.00526190    0.00337825    0.00438727
     atom   31 type  2   force =    -0.00094129    0.00000081    0.01140023
     atom   32 type  2   force =    -0.00724731    0.00487470    0.00458124
     atom   33 type  1   force =     0.00726787   -0.00486269    0.00233246
     atom   34 type  2   force =     0.00241008   -0.02968493   -0.01439497
     atom   35 type  2   force =     0.00128211    0.00551419    0.00129712
     atom   36 type  3   force =     0.02802389    0.06727372   -0.06637902
     The non-local contrib.  to forces
     atom    1 type  1   force =    -0.00257938    0.03028837   -0.01705987
     atom    2 type  2   force =    -0.00518650   -0.00793088   -0.27551183
     atom    3 type  2   force =    -0.01004975   -0.00026089    0.25981055
     atom    4 type  1   force =     0.00397242    0.00700357    0.00220598
     atom    5 type  2   force =     0.00769432   -0.03488343   -0.25765240
     atom    6 type  2   force =    -0.00276902    0.00836377    0.26553601
     atom    7 type  1   force =    -0.02031953    0.02630446   -0.00618378
     atom    8 type  2   force =     0.01080038   -0.00528818   -0.26142452
     atom    9 type  2   force =     0.00792037   -0.00825496    0.27224155
     atom   10 type  1   force =    -0.00270233    0.00535763    0.00536125
     atom   11 type  2   force =    -0.05902869   -0.13540956    0.37853762
     atom   12 type  2   force =    -0.01197155   -0.01294636    0.27186188
     atom   13 type  1   force =    -0.00058633    0.02184761   -0.00535535
     atom   14 type  2   force =     0.00857640   -0.01337057   -0.26976015
     atom   15 type  2   force =    -0.00933654    0.00196075    0.25561403
     atom   16 type  1   force =    -0.00068147    0.03576529   -0.02494300
     atom   17 type  2   force =     0.00265475   -0.02798547   -0.25548351
[...]
     atom   28 type  2   force =    -0.00093166   -0.01400401   -0.27699820
     atom   29 type  2   force =    -0.00134392   -0.00739295    0.26819043
     atom   30 type  1   force =     0.00079009    0.02050639    0.00407288
     atom   31 type  2   force =    -0.00811167    0.00407013   -0.26829370
     atom   32 type  2   force =     0.00664317   -0.01127334    0.27063794
     atom   33 type  1   force =    -0.00311594    0.00665472    0.00856427
     atom   34 type  2   force =     0.00347902   -0.00543062   -0.27834674
     atom   35 type  2   force =    -0.00012922   -0.01455027    0.26192165
     atom   36 type  3   force =     0.02780507    0.01650768   -2.31610703
     The ionic contribution  to forces
     atom    1 type  1   force =    -0.16105204    1.60090103    1.03524012
     atom    2 type  2   force =     0.30352135    1.13036047   38.30161085
     atom    3 type  2   force =     0.13085327    0.13317879  -38.29763585
     atom    4 type  1   force =     0.20092095   -0.26437411   -0.58777655
     atom    5 type  2   force =    -0.84268098    1.07836928   37.97023671
     atom    6 type  2   force =     0.24916547   -0.39172013  -38.57381043
     atom    7 type  1   force =    -2.84907028   -2.76439194   -1.78955308
     atom    8 type  2   force =    -0.57474688   -0.92798043   37.64428044
     atom    9 type  2   force =     0.50144520   -0.09146334  -38.79878376
     atom   10 type  1   force =     0.57839981    0.24183174   -1.32918996
     atom   11 type  2   force =    -0.42390749   -1.50195200   28.33551936
     atom   12 type  2   force =     0.19162768    0.27296261  -38.57752427
     atom   13 type  1   force =    -0.31736087    1.23268574    1.78098132
     atom   14 type  2   force =    -0.51953884    1.04160525   37.99822625
     atom   15 type  2   force =    -0.04998996    0.07067907  -38.33178848
     atom   16 type  1   force =    -0.38984935    2.92165150    0.14454925
     atom   17 type  2   force =     0.72167010    1.17086123   38.11653853
     atom   18 type  2   force =    -0.30909340   -0.35172652  -38.45837984
     atom   19 type  1   force =     2.14241606   -2.48806735    1.16529343
     atom   20 type  2   force =    -0.16713576   -0.07096332  -39.47665982
     atom   21 type  1   force =    -1.01673824    0.23796655   -3.03680282
     atom   22 type  2   force =    -0.57695040   -1.51292105   37.81550493
     atom   23 type  2   force =    -0.28180825    0.28015060  -38.61482742
     atom   24 type  1   force =     0.46090058    1.01656078    1.69134477
     atom   25 type  2   force =     0.19158172    0.41304627   38.65780438
     atom   26 type  2   force =    -0.07081008    0.04170347  -37.78551189
     atom   27 type  1   force =     0.18195978    0.14271186    0.04531144
     atom   28 type  2   force =     0.11411747    0.49667930   38.02636724
     atom   29 type  2   force =     0.07413718   -0.12414022  -37.98328720
     atom   30 type  1   force =     0.69790329   -1.25382617    0.83193492
     atom   31 type  2   force =     1.15924812   -0.16982220   37.97119861
     atom   32 type  2   force =    -0.35372699   -0.08447397  -38.29498644
     atom   33 type  1   force =     0.47612642   -0.05365727    2.29696091
     atom   34 type  2   force =     1.00569142   -0.50462051   38.23770051
     atom   35 type  2   force =     0.12290531    0.09864565  -38.21356009
     atom   36 type  3   force =    -0.60013136   -1.06645066   50.08347393
     The local contribution  to forces
     atom    1 type  1   force =     0.16511021   -1.61951897   -1.02836433
     atom    2 type  2   force =    -0.30220008   -1.11989568  -38.05033954
     atom    3 type  2   force =    -0.12854951   -0.12358948   38.05394875
     atom    4 type  1   force =    -0.20965201    0.25996132    0.58590077
     atom    5 type  2   force =     0.83764217   -1.05484466  -37.73374031
     atom    6 type  2   force =    -0.24933188    0.39479616   38.32738720
     atom    7 type  1   force =     2.86298307    2.74862822    1.79748773
     atom    8 type  2   force =     0.57217748    0.92134693  -37.39410355
     atom    9 type  2   force =    -0.49392901    0.10517451   38.55144407
     atom   10 type  1   force =    -0.57166376   -0.24902057    1.31115912
     atom   11 type  2   force =     0.43896877    1.49175726  -28.62435343
     atom   12 type  2   force =    -0.18404532   -0.25922352   38.32326458
     atom   13 type  1   force =     0.31515469   -1.25792577   -1.77494338
     atom   14 type  2   force =     0.51996122   -1.03449233  -37.74612214
     atom   15 type  2   force =     0.04892780   -0.06183595   38.09033671
     atom   16 type  1   force =     0.39396585   -2.94945718   -0.11084340
     atom   17 type  2   force =    -0.71735442   -1.14922388  -37.88037126
     atom   18 type  2   force =     0.30856577    0.35340864   38.21403131
     atom   19 type  1   force =    -2.15671695    2.48228150   -1.14223884
     atom   20 type  2   force =     0.16507197    0.08421744   39.23428929
     atom   21 type  1   force =     1.00964092   -0.25103851    3.01334576
     atom   22 type  2   force =     0.58213011    1.50621263  -37.57174904
     atom   23 type  2   force =     0.27381300   -0.26450898   38.37166015
     atom   24 type  1   force =    -0.46115568   -1.03351116   -1.69386470
     atom   25 type  2   force =    -0.19183103   -0.40133812  -38.40838086
     atom   26 type  2   force =     0.06854646   -0.02921727   37.53669239
     atom   27 type  1   force =    -0.17753728   -0.14728918   -0.04733533
     atom   28 type  2   force =    -0.11355733   -0.48403692  -37.77057991
     atom   29 type  2   force =    -0.07347536    0.13141476   37.73603855
     atom   30 type  1   force =    -0.69852338    1.23336746   -0.83614857
     atom   31 type  2   force =    -1.15161389    0.16642143  -37.72411956
     atom   32 type  2   force =     0.34770646    0.09598988   38.04573457
     atom   33 type  1   force =    -0.47299923    0.04730736   -2.30628268
     atom   34 type  2   force =    -1.00768516    0.50985362  -37.98009622
     atom   35 type  2   force =    -0.12213981   -0.08520688   37.97134590
     atom   36 type  3   force =     0.57280238    1.05057078  -47.79235188
     The core correction contribution to forces
     atom    1 type  1   force =     0.00000000    0.00000000    0.00000000
     atom    2 type  2   force =    -0.00005280    0.00038978    0.02125085
     atom    3 type  2   force =     0.00011949    0.00049516   -0.02077755
     atom    4 type  1   force =     0.00000000    0.00000000    0.00000000
     atom    5 type  2   force =    -0.00042770    0.00113792    0.02052180
     atom    6 type  2   force =     0.00026573   -0.00034718   -0.02090941
     atom    7 type  1   force =     0.00000000    0.00000000    0.00000000
     atom    8 type  2   force =    -0.00016118   -0.00006874    0.02131240
     atom    9 type  2   force =     0.00082071    0.00083067   -0.02100676
     atom   10 type  1   force =     0.00000000    0.00000000    0.00000000
     atom   11 type  2   force =     0.00094446   -0.00076845   -0.00992361
     atom   12 type  2   force =     0.00067302    0.00100622   -0.02124306
     atom   13 type  1   force =     0.00000000    0.00000000    0.00000000
     atom   14 type  2   force =     0.00008413    0.00002811    0.02128998
     atom   15 type  2   force =    -0.00007201    0.00046777   -0.02067829
     atom   16 type  1   force =     0.00000000    0.00000000    0.00000000
     atom   17 type  2   force =     0.00048266    0.00107939    0.02051872
     atom   18 type  2   force =    -0.00024084   -0.00041362   -0.02085311
     atom   19 type  1   force =     0.00000000    0.00000000    0.00000000
     atom   20 type  2   force =    -0.00022967    0.00069825   -0.02121930
     atom   21 type  1   force =     0.00000000    0.00000000    0.00000000
     atom   22 type  2   force =     0.00016761   -0.00057341    0.02108014
     atom   23 type  2   force =    -0.00069037    0.00109033   -0.02082107
     atom   24 type  1   force =     0.00000000    0.00000000    0.00000000
     atom   25 type  2   force =    -0.00001308    0.00051113    0.02103536
     atom   26 type  2   force =    -0.00016595    0.00048177   -0.02094167
     atom   27 type  1   force =     0.00000000    0.00000000    0.00000000
     atom   28 type  2   force =     0.00001486    0.00090874    0.02129568
     atom   29 type  2   force =     0.00006869    0.00016410   -0.02085059
     atom   30 type  1   force =     0.00000000    0.00000000    0.00000000
     atom   31 type  2   force =     0.00040661    0.00008942    0.02100427
     atom   32 type  2   force =    -0.00066675    0.00063601   -0.02101273
     atom   33 type  1   force =     0.00000000    0.00000000    0.00000000
     atom   34 type  2   force =    -0.00024025    0.00015953    0.02162398
     atom   35 type  2   force =     0.00007284    0.00075672   -0.02075988
     atom   36 type  3   force =    -0.00028617   -0.00020799    0.02455897
     The Hubbard contrib.    to forces
     atom    1 type  1   force =     0.00000000    0.00000000    0.00000000
     atom    2 type  2   force =     0.00000000    0.00000000    0.00000000
     atom    3 type  2   force =     0.00000000    0.00000000    0.00000000
     atom    4 type  1   force =     0.00000000    0.00000000    0.00000000
     atom    5 type  2   force =     0.00000000    0.00000000    0.00000000
     atom    6 type  2   force =     0.00000000    0.00000000    0.00000000
     atom    7 type  1   force =     0.00000000    0.00000000    0.00000000
     atom    8 type  2   force =     0.00000000    0.00000000    0.00000000
     atom    9 type  2   force =     0.00000000    0.00000000    0.00000000
     atom   10 type  1   force =     0.00000000    0.00000000    0.00000000
     atom   11 type  2   force =     0.00000000    0.00000000    0.00000000
     atom   12 type  2   force =     0.00000000    0.00000000    0.00000000
     atom   13 type  1   force =     0.00000000    0.00000000    0.00000000
     atom   14 type  2   force =     0.00000000    0.00000000    0.00000000
     atom   15 type  2   force =     0.00000000    0.00000000    0.00000000
     atom   16 type  1   force =     0.00000000    0.00000000    0.00000000
     atom   17 type  2   force =     0.00000000    0.00000000    0.00000000
     atom   18 type  2   force =     0.00000000    0.00000000    0.00000000
     atom   19 type  1   force =     0.00000000    0.00000000    0.00000000
     atom   20 type  2   force =     0.00000000    0.00000000    0.00000000
     atom   21 type  1   force =     0.00000000    0.00000000    0.00000000
     atom   22 type  2   force =     0.00000000    0.00000000    0.00000000
     atom   23 type  2   force =     0.00000000    0.00000000    0.00000000
     atom   24 type  1   force =     0.00000000    0.00000000    0.00000000
     atom   25 type  2   force =     0.00000000    0.00000000    0.00000000
     atom   26 type  2   force =     0.00000000    0.00000000    0.00000000
     atom   27 type  1   force =     0.00000000    0.00000000    0.00000000
     atom   28 type  2   force =     0.00000000    0.00000000    0.00000000
     atom   29 type  2   force =     0.00000000    0.00000000    0.00000000
     atom   30 type  1   force =     0.00000000    0.00000000    0.00000000
     atom   31 type  2   force =     0.00000000    0.00000000    0.00000000
     atom   32 type  2   force =     0.00000000    0.00000000    0.00000000
     atom   33 type  1   force =     0.00000000    0.00000000    0.00000000
     atom   34 type  2   force =     0.00000000    0.00000000    0.00000000
     atom   35 type  2   force =     0.00000000    0.00000000    0.00000000
     atom   36 type  3   force =     0.00000000    0.00000000    0.00000000
     The SCF correction term to forces
     atom    1 type  1   force =     0.00000769   -0.00001399   -0.00000044
     atom    2 type  2   force =    -0.00000367   -0.00002420    0.00000668
     atom    3 type  2   force =    -0.00000950   -0.00000943    0.00000412
     atom    4 type  1   force =    -0.00001970    0.00005471    0.00000048
     atom    5 type  2   force =    -0.00000044    0.00001898    0.00000284
     atom    6 type  2   force =     0.00000337    0.00001732   -0.00000617
     atom    7 type  1   force =    -0.00001056    0.00004270    0.00002612
     atom    8 type  2   force =    -0.00000953    0.00002010    0.00000714
     atom    9 type  2   force =    -0.00000328    0.00000185    0.00000021
     atom   10 type  1   force =    -0.00002801   -0.00006515    0.00004195
     atom   11 type  2   force =    -0.00000440   -0.00002007   -0.00000176
     atom   12 type  2   force =    -0.00000110   -0.00001305    0.00002708
     atom   13 type  1   force =     0.00000117   -0.00001893    0.00001446
     atom   14 type  2   force =    -0.00000631   -0.00002238    0.00000407
     atom   15 type  2   force =    -0.00000070   -0.00001061    0.00000585
     atom   16 type  1   force =    -0.00000055    0.00003780    0.00000761
     atom   17 type  2   force =     0.00000003    0.00001810    0.00000484
     atom   18 type  2   force =     0.00000101    0.00001787   -0.00000052
     atom   19 type  1   force =     0.00001658    0.00001434    0.00001890
     atom   20 type  2   force =     0.00001229    0.00001066    0.00000009
     atom   21 type  1   force =     0.00002929   -0.00006017    0.00004647
     atom   22 type  2   force =     0.00001059   -0.00000528    0.00000600
     atom   23 type  2   force =     0.00000155   -0.00001512    0.00001350
     atom   24 type  1   force =     0.00001803   -0.00000669    0.00001536
     atom   25 type  2   force =     0.00000196   -0.00001884    0.00000096
     atom   26 type  2   force =     0.00000163   -0.00001120    0.00001477
     atom   27 type  1   force =    -0.00000152    0.00003427   -0.00000228
     atom   28 type  2   force =     0.00000479    0.00001339    0.00000260
     atom   29 type  2   force =     0.00000285    0.00001814   -0.00000445
     atom   30 type  1   force =    -0.00002827    0.00000262    0.00001193
     atom   31 type  2   force =     0.00000601    0.00001001    0.00000767
     atom   32 type  2   force =     0.00000223    0.00000257    0.00000150
     atom   33 type  1   force =     0.00001709   -0.00003355    0.00003592
     atom   34 type  2   force =    -0.00001014   -0.00000164    0.00000422
     atom   35 type  2   force =    -0.00000539   -0.00001087    0.00001352
     atom   36 type  3   force =    -0.00002218   -0.00006176   -0.00002628

     Total force =     0.006137     Total SCF correction =     0.000202
     Energy error            =      7.3E-05 Ry
     Gradient error          =      1.5E-03 Ry/Bohr

     bfgs converged in  21 scf cycles and  20 bfgs steps
     (criteria: energy <  1.0E-04 Ry, force <  1.0E-02 Ry/Bohr)

     End of BFGS Geometry Optimization

     Final energy             =   -2246.4457795758 Ry

     File ./MoS2-V-O.bfgs deleted, as requested
Begin final coordinates

ATOMIC_POSITIONS (angstrom)
Mo            6.5556782397        1.7410954000        2.7568012904
S             8.1276240802        0.8387699550        4.3704138002
S             8.1403828689        0.8523622886        1.1676842617
Mo            8.1197873810        4.4899411918        2.7103119465
S             6.5179948458        3.6528941604        4.3005941171
S             6.5548352879        3.5495328627        1.1042353826
Mo            6.5123108571        7.1395803668        2.6456960751
S             8.0583452720        6.2927995498        4.3115826533
S             8.1473943199        6.3108874868        1.0983304429
Mo            8.1579648301        9.9483136031        2.7532881635
S             6.5361781283        8.9449725548        4.2298300725
S             6.5861409335        9.0286457054        1.1362416886
Mo            3.4219242906        1.7452089945        2.7626045153
S             4.9886579158        0.7994401675        4.3488345604
S             4.9795712138        0.8426671495        1.1564526196
Mo            4.9936214992        4.5206519792        2.6438650646
S             3.4727899194        3.6574025251        4.3068976066
S             3.4237657528        3.5441576150        1.1102073622
Mo            3.4661930929        7.1695865428        2.6694933096
S             4.9726890335        6.2958582713        1.0265873224
Mo            4.9691804551        9.9133462668        2.7153711723
S             3.4741505655        8.9343121344        4.3293298504
S             3.3763622325        9.0109837702        1.1246664882
Mo            0.2591994555        1.7383470451        2.7735566850
S             1.8485358348        0.8385069096        4.3780872362
S             1.8393965662        0.8235093681        1.1889271032
Mo            1.8650406104        4.4832006365        2.7176926621
S             0.2613931302        3.6043756585        4.3211734283
S             0.2683354504        3.5495839110        1.1527605851
Mo            0.2521744130        7.2035549576        2.7442634645
S             1.8992011335        6.2947841969        4.3060028299
S             1.8404462458        6.3101026951        1.1185965759
Mo            1.8476678066        9.9144753820        2.7810061526
S             0.2497797492        9.0149539350        4.3642928795
S             0.2746684503        9.0346536567        1.1718570327
O             6.5174718172        8.9477430724        5.7287864185
End final coordinates



     Writing all to output data dir ./MoS2-V-O.save/
 
     init_run     :      5.40s CPU      5.70s WALL (       1 calls)
     electrons    :   1747.65s CPU   1922.55s WALL (      21 calls)
     update_pot   :     61.04s CPU     63.83s WALL (      20 calls)
     forces       :     56.93s CPU     61.54s WALL (      21 calls)

     Called by init_run:
     wfcinit      :      0.50s CPU      0.55s WALL (       1 calls)
     potinit      :      3.13s CPU      3.29s WALL (       1 calls)
     hinit0       :      0.45s CPU      0.47s WALL (       1 calls)

     Called by electrons:
     c_bands      :    263.96s CPU    268.74s WALL (     179 calls)
     sum_band     :    109.09s CPU    121.70s WALL (     179 calls)
     v_of_rho     :    169.16s CPU    194.02s WALL (     193 calls)
     newd         :     57.72s CPU     68.25s WALL (     193 calls)
     PAW_pot      :      7.71s CPU      7.74s WALL (     213 calls)
     mix_rho      :   1162.07s CPU   1283.59s WALL (     179 calls)

     Called by c_bands:
     init_us_2    :      4.28s CPU      4.43s WALL (     379 calls)
     init_us_2:cp :      4.28s CPU      4.43s WALL (     379 calls)
     regterg      :    251.05s CPU    255.66s WALL (     179 calls)

     Called by *egterg:
     rdiaghg      :     16.74s CPU     16.87s WALL (     921 calls)
     h_psi        :    164.54s CPU    165.90s WALL (     949 calls)
     s_psi        :     15.06s CPU     15.11s WALL (     949 calls)
     g_psi        :      0.83s CPU      0.84s WALL (     769 calls)

     Called by h_psi:
     h_psi:calbec :     16.65s CPU     16.71s WALL (     949 calls)
     vloc_psi     :    130.90s CPU    132.11s WALL (     949 calls)
     add_vuspsi   :     14.86s CPU     14.93s WALL (     949 calls)

     General routines
     calbec       :     24.42s CPU     24.52s WALL (    1232 calls)
     fft          :    116.81s CPU    135.00s WALL (   12997 calls)
     ffts         :    518.70s CPU    635.62s WALL (  282655 calls)
     fftw         :     81.02s CPU     81.69s WALL (  111788 calls)
     interpolate  :      2.41s CPU      2.76s WALL (     193 calls)
 
     Parallel routines
 
     PWSCF        :  31m19.94s CPU  34m25.08s WALL

 
   This run was terminated on:  21:31: 3   1Nov2023            

=------------------------------------------------------------------------------=
   JOB DONE.
=------------------------------------------------------------------------------=
