
     Program PWSCF v.7.2 starts on  4Nov2023 at  8:47:52 

     This program is part of the open-source Quantum ESPRESSO suite
     for quantum simulation of materials; please cite
         "P. Giannozzi et al., J. Phys.:Condens. Matter 21 395502 (2009);
         "P. Giannozzi et al., J. Phys.:Condens. Matter 29 465901 (2017);
         "P. Giannozzi et al., J. Chem. Phys. 152 154105 (2020);
          URL http://www.quantum-espresso.org", 
     in publications or presentations arising from this work. More details at
     http://www.quantum-espresso.org/quote

     Parallel version (MPI & OpenMP), running on      48 processor cores
     Number of MPI processes:                48
     Threads/MPI process:                     1

     MPI processes distributed on     1 nodes
     16616 MiB available memory on the printing compute node when the environment starts
 
     Waiting for input...
     Reading input from standard input
Warning: card &CELL ignored
Warning: card CELL_DYNAMICS = 'BFGS', ignored
Warning: card CELL_DOFREE = '2DXY' ignored
Warning: card / ignored

     Current dimensions of program PWSCF are:
     Max number of different atomic species (ntypx) = 10
     Max number of k-points (npk) =  40000
     Max angular momentum in pseudopotentials (lmaxx) =  4

     IMPORTANT: XC functional enforced from input :
     Exchange-correlation= RVV10
                           (   1   4  13   4  26   0   0)
     Any further DFT definition will be discarded
     Please, verify this is what you really want


     gamma-point specific algorithms are used
     signal trapping enabled: kill the code with -SIGUSR1 to stop cleanly the simulation 
 
     R & G space division:  proc/nbgrp/npool/nimage =      48
     Subspace diagonalization in iterative solution of the eigenvalue problem:
     one sub-group per band group will be used
     scalapack distributed-memory algorithm (size of sub-group:  2*  2 procs)

 
     Parallelization info
     --------------------
     sticks:   dense  smooth     PW     G-vecs:    dense   smooth      PW
     Min         243     194     47                49060    35090    4376
     Max         246     196     50                49086    35128    4410
     Sum       11735    9389   2349              2355467  1685513  210763
 
     Using Slab Decomposition
 


     bravais-lattice index     =            0
     lattice parameter (alat)  =      17.8707  a.u.
     unit-cell volume          =   17436.2743 (a.u.)^3
     number of atoms/cell      =           36
     number of atomic types    =            3
     number of electrons       =       307.00
     number of Kohn-Sham states=          185
     kinetic-energy cutoff     =      80.0000  Ry
     charge density cutoff     =     400.0000  Ry
     scf convergence threshold =      1.0E-06
     mixing beta               =       0.7000
     number of iterations used =            8  local-TF  mixing
     energy convergence thresh.=      1.0E-04
     force convergence thresh. =      1.0E-02
     Exchange-correlation= RVV10
                           (   1   4  13   4  26   0   0)
     nstep                     =          200


     celldm(1)=  17.870686  celldm(2)=   0.000000  celldm(3)=   0.000000
     celldm(4)=   0.000000  celldm(5)=   0.000000  celldm(6)=   0.000000

     crystal axes: (cart. coord. in units of alat)
               a(1) = (   1.000000   0.000000   0.000000 )  
               a(2) = (   0.000000   1.155671   0.000000 )  
               a(3) = (   0.000000   0.000000   2.643601 )  

     reciprocal axes: (cart. coord. in units 2 pi/alat)
               b(1) = (  1.000000  0.000000  0.000000 )  
               b(2) = (  0.000000  0.865298  0.000000 )  
               b(3) = (  0.000000  0.000000  0.378272 )  


     PseudoPot. # 1 for Mo read from file:
     ../pseudo/Mo_ONCV_PBE-1.0.oncvpsp.upf
     MD5 check sum: 1b5d28e075c9ccadda658a603575cd1f
     Pseudo is Norm-conserving, Zval = 14.0
     Generated using ONCVPSP code by D. R. Hamann
     Using radial grid of 1526 points,  6 beta functions with: 
                l(1) =   0
                l(2) =   0
                l(3) =   1
                l(4) =   1
                l(5) =   2
                l(6) =   2

     PseudoPot. # 2 for S  read from file:
     ../pseudo/s_pbe_v1.4.uspp.F.UPF
     MD5 check sum: 88d86576ff6df21479756cfb9bdac1df
     Pseudo is Ultrasoft + core correction, Zval =  6.0
     Generated by new atomic code, or converted to UPF format
     Using radial grid of  907 points,  6 beta functions with: 
                l(1) =   0
                l(2) =   0
                l(3) =   1
                l(4) =   1
                l(5) =   2
                l(6) =   2
     Q(r) pseudized with  8 coefficients,  rinner =    1.300   1.300   1.300
                                                       1.300   1.300

     PseudoPot. # 3 for H  read from file:
     ../pseudo/H_ONCV_PBE-1.0.oncvpsp.upf
     MD5 check sum: 1790becc920ee074925cf490c71280fe
     Pseudo is Norm-conserving, Zval =  1.0
     Generated using ONCVPSP code by D. R. Hamann
     Using radial grid of 1166 points,  2 beta functions with: 
                l(1) =   0
                l(2) =   0

     atomic species   valence    mass     pseudopotential
        Mo            14.00    95.94000     Mo( 1.00)
        S              6.00    32.06500     S ( 1.00)
        H              1.00     1.00794     H ( 1.00)

     No symmetry found



   Cartesian axes

     site n.     atom                  positions (alat units)
         1           Mo  tau(   1) = (   0.6952221   0.1890506   0.2985846  )
         2           S   tau(   2) = (   0.8646417   0.0856217   0.4689279  )
         3           S   tau(   3) = (   0.8663890   0.0857843   0.1351291  )
         4           Mo  tau(   4) = (   0.8560186   0.4753274   0.2873942  )
         5           S   tau(   5) = (   0.6873294   0.3936244   0.4596353  )
         6           S   tau(   6) = (   0.6929804   0.3713468   0.1185692  )
         7           Mo  tau(   7) = (   0.6862796   0.7633098   0.2825370  )
         8           S   tau(   8) = (   0.8545980   0.6708292   0.4486168  )
         9           S   tau(   9) = (   0.8545123   0.6666874   0.1146125  )
        10           Mo  tau(  10) = (   0.8629403   1.0471007   0.3006803  )
        11           S   tau(  11) = (   0.6868280   0.9456650   0.4634891  )
        12           S   tau(  12) = (   0.6998113   0.9568511   0.1205389  )
        13           Mo  tau(  13) = (   0.3618216   0.1847309   0.2935964  )
        14           S   tau(  14) = (   0.5260962   0.0863870   0.4600448  )
        15           S   tau(  15) = (   0.5348379   0.0894875   0.1297123  )
        16           Mo  tau(  16) = (   0.5265817   0.4772436   0.2784130  )
        17           S   tau(  17) = (   0.3624753   0.3882513   0.4525556  )
        18           S   tau(  18) = (   0.3635411   0.3752055   0.1119148  )
        19           Mo  tau(  19) = (   0.3652268   0.7630864   0.2781795  )
        20           S   tau(  20) = (   0.5269494   0.6690381   0.1096838  )
        21           Mo  tau(  21) = (   0.5300192   1.0470394   0.2900995  )
        22           S   tau(  22) = (   0.3670346   0.9457522   0.4574073  )
        23           S   tau(  23) = (   0.3604225   0.9585725   0.1159032  )
        24           Mo  tau(  24) = (   0.0313099   0.1847895   0.3013130  )
        25           S   tau(  25) = (   0.1956761   0.0838230   0.4650863  )
        26           S   tau(  26) = (   0.1967693   0.0903508   0.1278874  )
        27           Mo  tau(  27) = (   0.1967578   0.4753919   0.2813011  )
        28           S   tau(  28) = (   0.0287851   0.3864324   0.4586755  )
        29           S   tau(  29) = (   0.0244514   0.3729871   0.1239344  )
        30           Mo  tau(  30) = (   0.0286728   0.7631204   0.2856894  )
        31           S   tau(  31) = (   0.2011512   0.6675435   0.4465001  )
        32           S   tau(  32) = (   0.1969214   0.6672839   0.1104564  )
        33           Mo  tau(  33) = (   0.1950294   1.0511147   0.2932237  )
        34           S   tau(  34) = (   0.0312912   0.9612169   0.4667423  )
        35           S   tau(  35) = (   0.0292670   0.9563028   0.1216485  )
        36           H   tau(  36) = (   0.0000000   1.0272628   0.5792558  )

     number of k points=     1  Gaussian smearing, width (Ry)=  0.0100
                       cart. coord. in units 2pi/alat
        k(    1) = (   0.0000000   0.0000000   0.0000000), wk =   2.0000000

     Dense  grid:  1177734 G-vectors     FFT dimensions: ( 120, 135, 320)

     Smooth grid:   842757 G-vectors     FFT dimensions: ( 108, 120, 270)

     Estimated max dynamical RAM per process >     146.59 MB

     Estimated total dynamical RAM >       6.87 GB

     Initial potential from superposition of free atoms

     starting charge     306.9873, renormalised to     307.0000

     negative rho (up, down):  1.407E-04 0.000E+00


---------------------------------------------------------------------------------
Carrying out rVV10 run using the following parameters:
Nqs =      20    Nr_points =    1024   r_max =   100.000
b_value =  6.30000    beta =  0.00901
     q_mesh =  0.00010000  0.00030000  0.00058939  0.00100810
               0.00161396  0.00249058  0.00375900  0.00559430
               0.00824984  0.01209221  0.01765183  0.02569619
               0.03733578  0.05417739  0.07854596  0.11380545
               0.16482331  0.23864234  0.34545298  0.50000000

Gradients computed in Reciprocal space

---------------------------------------------------------------------------------


     Starting wfcs are  213 randomized atomic wfcs

     total cpu time spent up to now is        2.8 secs

     Self-consistent Calculation

     iteration #  1     ecut=    80.00 Ry     beta= 0.70
     Davidson diagonalization with overlap
     ethr =  1.00E-02,  avg # of iterations =  2.0

     Threshold (ethr) on eigenvalues was too large:
     Diagonalizing with lowered threshold

     Davidson diagonalization with overlap
     ethr =  3.91E-04,  avg # of iterations =  4.0

     negative rho (up, down):  2.582E-08 0.000E+00

     total cpu time spent up to now is       23.1 secs

     total energy              =   -2205.61979959 Ry
     estimated scf accuracy    <       1.48817638 Ry

     iteration #  2     ecut=    80.00 Ry     beta= 0.70
     Davidson diagonalization with overlap
     ethr =  4.85E-04,  avg # of iterations =  2.0

     total cpu time spent up to now is       25.5 secs

     total energy              =   -2205.48468538 Ry
     estimated scf accuracy    <       0.61421741 Ry

     iteration #  3     ecut=    80.00 Ry     beta= 0.70
     Davidson diagonalization with overlap
     ethr =  2.00E-04,  avg # of iterations =  4.0

     total cpu time spent up to now is       28.0 secs

     total energy              =   -2205.52744245 Ry
     estimated scf accuracy    <       0.20731583 Ry

     iteration #  4     ecut=    80.00 Ry     beta= 0.70
     Davidson diagonalization with overlap
     ethr =  6.75E-05,  avg # of iterations =  8.0

     total cpu time spent up to now is       30.7 secs

     total energy              =   -2205.54592412 Ry
     estimated scf accuracy    <       0.03892720 Ry

     iteration #  5     ecut=    80.00 Ry     beta= 0.70
     Davidson diagonalization with overlap
     c_bands:  1 eigenvalues not converged
     ethr =  1.27E-05,  avg # of iterations = 20.0

     total cpu time spent up to now is       33.7 secs

     total energy              =   -2205.54606371 Ry
     estimated scf accuracy    <       0.02319518 Ry

     iteration #  6     ecut=    80.00 Ry     beta= 0.70
     Davidson diagonalization with overlap
     ethr =  7.56E-06,  avg # of iterations =  2.0

     total cpu time spent up to now is       35.9 secs

     total energy              =   -2205.54580106 Ry
     estimated scf accuracy    <       0.01350461 Ry

     iteration #  7     ecut=    80.00 Ry     beta= 0.70
     Davidson diagonalization with overlap
     ethr =  4.40E-06,  avg # of iterations =  1.0

     total cpu time spent up to now is       38.0 secs

     total energy              =   -2205.54425933 Ry
     estimated scf accuracy    <       0.00948679 Ry

     iteration #  8     ecut=    80.00 Ry     beta= 0.70
     Davidson diagonalization with overlap
     ethr =  3.09E-06,  avg # of iterations =  2.0

     negative rho (up, down):  6.487E-03 0.000E+00

     total cpu time spent up to now is       42.4 secs

     total energy              =   -2205.54315276 Ry
     estimated scf accuracy    <       0.00534622 Ry

     iteration #  9     ecut=    80.00 Ry     beta= 0.70
     Davidson diagonalization with overlap
     ethr =  1.74E-06,  avg # of iterations =  2.0

     negative rho (up, down):  2.409E-02 0.000E+00

     total cpu time spent up to now is       47.5 secs

     total energy              =   -2205.54288945 Ry
     estimated scf accuracy    <       0.00314503 Ry

     iteration # 10     ecut=    80.00 Ry     beta= 0.70
     Davidson diagonalization with overlap
     ethr =  1.02E-06,  avg # of iterations =  2.0

     negative rho (up, down):  3.110E-02 0.000E+00

     total cpu time spent up to now is       51.9 secs

     total energy              =   -2205.54284973 Ry
     estimated scf accuracy    <       0.00173039 Ry

     iteration # 11     ecut=    80.00 Ry     beta= 0.70
     Davidson diagonalization with overlap
     ethr =  5.64E-07,  avg # of iterations =  2.0

     negative rho (up, down):  2.533E-02 0.000E+00

     total cpu time spent up to now is       56.8 secs

     total energy              =   -2205.54294115 Ry
     estimated scf accuracy    <       0.00049577 Ry

     iteration # 12     ecut=    80.00 Ry     beta= 0.70
     Davidson diagonalization with overlap
     ethr =  1.61E-07,  avg # of iterations =  6.0

     negative rho (up, down):  1.047E-02 0.000E+00

     total cpu time spent up to now is       61.9 secs

     total energy              =   -2205.54295536 Ry
     estimated scf accuracy    <       0.00017968 Ry

     iteration # 13     ecut=    80.00 Ry     beta= 0.70
     Davidson diagonalization with overlap
     ethr =  5.85E-08,  avg # of iterations =  5.0

     negative rho (up, down):  3.356E-03 0.000E+00

     total cpu time spent up to now is       68.0 secs

     total energy              =   -2205.54301554 Ry
     estimated scf accuracy    <       0.00002778 Ry

     iteration # 14     ecut=    80.00 Ry     beta= 0.70
     Davidson diagonalization with overlap
     ethr =  9.05E-09,  avg # of iterations =  8.0

     negative rho (up, down):  1.003E-03 0.000E+00

     total cpu time spent up to now is       78.6 secs

     total energy              =   -2205.54302003 Ry
     estimated scf accuracy    <       0.00001142 Ry

     iteration # 15     ecut=    80.00 Ry     beta= 0.70
     Davidson diagonalization with overlap
     ethr =  3.72E-09,  avg # of iterations =  2.0

     negative rho (up, down):  3.892E-04 0.000E+00

     total cpu time spent up to now is       88.8 secs

     total energy              =   -2205.54301924 Ry
     estimated scf accuracy    <       0.00000273 Ry

     iteration # 16     ecut=    80.00 Ry     beta= 0.70
     Davidson diagonalization with overlap
     ethr =  8.91E-10,  avg # of iterations =  2.0

     negative rho (up, down):  2.560E-04 0.000E+00

     total cpu time spent up to now is       98.1 secs

     total energy              =   -2205.54302229 Ry
     estimated scf accuracy    <       0.00000116 Ry

     iteration # 17     ecut=    80.00 Ry     beta= 0.70
     Davidson diagonalization with overlap
     ethr =  3.76E-10,  avg # of iterations =  5.0

     negative rho (up, down):  1.369E-04 0.000E+00

     total cpu time spent up to now is      100.2 secs

     End of self-consistent calculation

          k = 0.0000 0.0000 0.0000 (105382 PWs)   bands (ev):

   -62.8364 -62.8233 -62.7897 -62.7790 -62.7734 -62.7664 -62.7634 -62.7580
   -62.7498 -62.6396 -62.6233 -62.5307 -37.1508 -37.1258 -37.0951 -37.0794
   -37.0629 -37.0429 -37.0355 -37.0196 -36.9995 -36.9965 -36.9940 -36.9791
   -36.9650 -36.9605 -36.9533 -36.9467 -36.9435 -36.9421 -36.9263 -36.9239
   -36.9227 -36.8819 -36.8536 -36.8460 -36.8346 -36.8270 -36.8105 -36.7910
   -36.7842 -36.7753 -36.7718 -36.7506 -36.7023 -36.6769 -36.5941 -36.5670
   -16.5883 -15.7324 -15.0641 -15.0351 -14.8877 -14.7694 -14.6542 -14.4183
   -14.3991 -14.3734 -14.3067 -14.2760 -14.2673 -14.1969 -14.1391 -14.0598
   -14.0420 -14.0195 -13.9390 -13.9025 -13.7619 -13.7390 -13.7179  -9.3652
    -7.6313  -7.3869  -7.3240  -7.1977  -7.1294  -7.1142  -7.0945  -7.0503
    -6.7743  -6.7207  -6.7173  -6.6838  -6.5493  -6.4786  -6.4230  -6.4049
    -6.3168  -6.2066  -6.1625  -5.9068  -5.8596  -5.8418  -5.7542  -5.7285
    -5.7023  -5.6547  -5.6182  -5.5743  -5.5527  -5.5178  -5.4446  -5.3724
    -5.3485  -5.3148  -5.1819  -5.0812  -5.0680  -5.0383  -4.8981  -4.8899
    -4.8397  -4.7633  -4.5699  -4.5331  -4.3999  -4.2738  -4.2395  -4.1932
    -4.1563  -4.0885  -3.9595  -3.8543  -3.7306  -3.6882  -3.6634  -3.6366
    -3.6028  -3.5288  -3.4964  -3.4254  -3.4127  -3.4016  -3.3815  -3.3018
    -3.2926  -3.2069  -3.0706  -2.8511  -2.8032  -2.7739  -2.7289  -2.6676
    -2.6438  -2.5962  -2.5793  -2.5415  -2.4914  -2.1944  -1.9394  -1.9260
    -1.8996  -0.6794  -0.6528  -0.6068  -0.1257  -0.1039   0.0004   0.0085
     0.1678   0.1760   0.2467   0.2904   0.3008   0.3761   0.4777   0.5073
     0.5214   0.6203   0.6472   0.6782   0.6885   0.7112   0.7335   0.8098
     0.8423   0.8581   0.9378   0.9789   1.0045   1.0723   1.1338   1.3519
     1.4558

     the Fermi energy is    -0.7439 ev

!    total energy              =   -2205.54302202 Ry
     estimated scf accuracy    <       0.00000021 Ry
     smearing contrib. (-TS)   =      -0.01015158 Ry
     internal energy E=F+TS    =   -2205.53287044 Ry

     The total energy is F=E-TS. E is the sum of the following terms:
     one-electron contribution =  -18047.02636323 Ry
     hartree contribution      =    9010.91698350 Ry
     xc contribution           =    -385.42521608 Ry
     ewald contribution        =    7216.00172537 Ry

     convergence has been achieved in  17 iterations

     negative rho (up, down):  1.369E-04 0.000E+00

     Forces acting on atoms (cartesian axes, Ry/au):

     atom    1 type  1   force =     0.01149147   -0.02425725    0.00534305
     atom    2 type  2   force =    -0.01523203    0.01751255    0.00119505
     atom    3 type  2   force =    -0.01173621    0.00878145   -0.00413638
     atom    4 type  1   force =     0.00835357   -0.00366055    0.00043921
     atom    5 type  2   force =    -0.00202367   -0.00466060   -0.00646870
     atom    6 type  2   force =     0.00306713    0.01069830    0.00085618
     atom    7 type  1   force =     0.00586489   -0.00298070   -0.00734693
     atom    8 type  2   force =    -0.00283942   -0.00885229    0.01684650
     atom    9 type  2   force =     0.01733983    0.00372949    0.00923889
     atom   10 type  1   force =    -0.01837924    0.01086065   -0.03775279
     atom   11 type  2   force =     0.00252346   -0.00278098   -0.00566973
     atom   12 type  2   force =    -0.00084745    0.00095836    0.00637999
     atom   13 type  1   force =     0.00628890    0.00550870   -0.00580826
     atom   14 type  2   force =     0.00791213    0.00119621    0.01150700
     atom   15 type  2   force =    -0.01190074    0.00223568   -0.00891037
     atom   16 type  1   force =     0.00047070    0.00318355    0.00081529
     atom   17 type  2   force =     0.00639858    0.00213947    0.00162776
     atom   18 type  2   force =    -0.00532603   -0.00629922    0.01410371
     atom   19 type  1   force =     0.00262288   -0.00067146   -0.00166157
     atom   20 type  2   force =     0.00316676   -0.00569189    0.00093889
     atom   21 type  1   force =    -0.00444586    0.00729017    0.00130795
     atom   22 type  2   force =     0.00379829   -0.00472096   -0.00242358
     atom   23 type  2   force =    -0.00085807    0.00192178    0.00865402
     atom   24 type  1   force =    -0.00954373   -0.00257586   -0.02235048
     atom   25 type  2   force =     0.01795714    0.02111898    0.00770271
     atom   26 type  2   force =    -0.01178265   -0.00266262   -0.00527318
     atom   27 type  1   force =    -0.00392572   -0.00572506    0.00831338
     atom   28 type  2   force =     0.00058832   -0.00091906   -0.00571499
     atom   29 type  2   force =     0.00295921    0.00171971   -0.00308212
     atom   30 type  1   force =    -0.00780440   -0.01972228   -0.02905304
     atom   31 type  2   force =     0.00539727   -0.00431631    0.01552020
     atom   32 type  2   force =    -0.01446268    0.00367679    0.00644379
     atom   33 type  1   force =     0.01470555    0.00443682   -0.00155086
     atom   34 type  2   force =     0.02516224   -0.07234003   -0.09357226
     atom   35 type  2   force =    -0.00857715    0.00689112    0.01591971
     atom   36 type  3   force =    -0.01638324    0.05897730    0.10762194
     The non-local contrib.  to forces
     atom    1 type  1   force =    -0.00447239    0.03739190   -0.01331589
     atom    2 type  2   force =    -0.00845731    0.00144991   -0.25317898
     atom    3 type  2   force =    -0.01496195   -0.00629722    0.27217028
     atom    4 type  1   force =    -0.00406119    0.00646974    0.00383493
     atom    5 type  2   force =     0.00605999   -0.03347277   -0.25270394
     atom    6 type  2   force =    -0.00149647    0.01040165    0.26111820
     atom    7 type  1   force =    -0.03229035   -0.01321704   -0.01520343
     atom    8 type  2   force =     0.00132009   -0.00976096   -0.24818853
     atom    9 type  2   force =     0.01740339   -0.00846211    0.27958802
     atom   10 type  1   force =    -0.00064097    0.00011879    0.00154488
     atom   11 type  2   force =     0.01858326    0.00831268   -0.25458032
     atom   12 type  2   force =    -0.01227589   -0.01321909    0.26226667
     atom   13 type  1   force =     0.00221396    0.02543656   -0.00860336
     atom   14 type  2   force =     0.01103766   -0.01020807   -0.26196319
     atom   15 type  2   force =    -0.01367811   -0.00468172    0.26181277
     atom   16 type  1   force =    -0.00040269    0.04115665   -0.01652239
     atom   17 type  2   force =     0.00236931   -0.02999267   -0.24892315
     atom   18 type  2   force =    -0.00513157   -0.00506979    0.27202316
     atom   19 type  1   force =     0.02836671   -0.01742163   -0.01165062
     atom   20 type  2   force =    -0.00008739   -0.01970613    0.26469990
     atom   21 type  1   force =     0.00204634    0.02460557    0.00701743
     atom   22 type  2   force =    -0.00782030    0.00541880   -0.25651988
     atom   23 type  2   force =     0.00621455   -0.01096729    0.26739162
     atom   24 type  1   force =     0.00519340    0.01880796   -0.01127593
     atom   25 type  2   force =     0.00600941   -0.00042782   -0.25397929
     atom   26 type  2   force =    -0.00225999   -0.01905604    0.26438509
     atom   27 type  1   force =     0.00132368    0.01009782    0.00831773
     atom   28 type  2   force =    -0.00348669   -0.02556193   -0.27222724
     atom   29 type  2   force =     0.00684023    0.00017634    0.26452622
     atom   30 type  1   force =     0.00076564    0.01559128   -0.01104623
     atom   31 type  2   force =    -0.00187382   -0.00628684   -0.24679309
     atom   32 type  2   force =    -0.01256381   -0.01089358    0.27482432
     atom   33 type  1   force =    -0.00377624    0.00316846   -0.00224014
     atom   34 type  2   force =    -0.04642074    0.12715872    0.04028918
     atom   35 type  2   force =    -0.00274899   -0.00806372    0.27853923
     atom   36 type  3   force =     0.01978722   -0.03894023   -0.06589088
     The ionic contribution  to forces
     atom    1 type  1   force =     0.28438782    0.37065757    5.62424338
     atom    2 type  2   force =    -0.88393919    0.76423004   39.11027442
     atom    3 type  2   force =    -0.18795902    0.06025572  -36.14573687
     atom    4 type  1   force =     0.05450125    0.55907030    0.64560295
     atom    5 type  2   force =    -0.99507613    1.51885123   38.74683179
     atom    6 type  2   force =     0.33517592   -0.49004236  -38.01941531
     atom    7 type  1   force =    -2.73341666   -2.91596004    2.46981190
     atom    8 type  2   force =    -1.05017333   -0.12776101   37.34203819
     atom    9 type  2   force =     0.32830714   -0.06845176  -38.02251441
     atom   10 type  1   force =    -1.45051450   -0.26009636    4.97952689
     atom   11 type  2   force =    -0.79000669   -1.67704531   39.05482369
     atom   12 type  2   force =     0.40957910    0.68115446  -37.89695619
     atom   13 type  1   force =     0.55986572    1.10288820    2.80101224
     atom   14 type  2   force =     0.04186079    0.05424916   38.50042246
     atom   15 type  2   force =     0.15218360   -0.04189568  -36.81582689
     atom   16 type  1   force =    -0.02945207    3.93723271    0.49579251
     atom   17 type  2   force =     0.83454247    1.52088644   37.93325261
     atom   18 type  2   force =    -0.15293492   -0.63702254  -38.55684484
     atom   19 type  1   force =     2.80779192   -2.55794633    0.58147295
     atom   20 type  2   force =     0.22665140   -0.21556965  -38.47538214
     atom   21 type  1   force =     0.00178709    0.06457226    1.06742146
     atom   22 type  2   force =     0.60336235   -1.76327299   38.37654110
     atom   23 type  2   force =    -0.06176211    0.65639806  -38.32061734
     atom   24 type  1   force =    -0.52187478    1.43134911    5.62554300
     atom   25 type  2   force =     0.87179421    0.52912771   39.15109725
     atom   26 type  2   force =    -0.26113104    0.10228338  -37.37849200
     atom   27 type  1   force =     0.06777492    0.38628245   -2.26993645
     atom   28 type  2   force =     0.05726109    1.05354273   38.19433844
     atom   29 type  2   force =    -0.26388841   -0.41250208  -37.27087264
     atom   30 type  1   force =    -0.30925588   -1.21001007   -0.32667425
     atom   31 type  2   force =     1.29604753   -0.18138130   37.29148810
     atom   32 type  2   force =    -0.46542939   -0.03506245  -38.64944796
     atom   33 type  1   force =     1.13300288   -0.80688953    1.58827970
     atom   34 type  2   force =     0.71996298   -2.46126519   37.63155358
     atom   35 type  2   force =    -0.29279822    0.45711932  -37.91779295
     atom   36 type  3   force =    -0.33622789    0.61202379    8.85514166
     The local contribution  to forces
     atom    1 type  1   force =    -0.26840553   -0.43236058   -5.60508042
     atom    2 type  2   force =     0.87723081   -0.74841518  -38.87525098
     atom    3 type  2   force =     0.19052321   -0.04538722   35.89059222
     atom    4 type  1   force =    -0.04206066   -0.56924574   -0.64847104
     atom    5 type  2   force =     0.98764169   -1.49195237  -38.52059612
     atom    6 type  2   force =    -0.33080579    0.49135150   37.78008988
     atom    7 type  1   force =     2.77143480    2.92615714   -2.46144077
     atom    8 type  2   force =     1.04615741    0.12805655  -37.09668311
     atom    9 type  2   force =    -0.32768694    0.08011462   37.77340102
     atom   10 type  1   force =     1.43276699    0.27093749   -5.01832452
     atom   11 type  2   force =     0.77498224    1.66670932  -38.82579829
     atom   12 type  2   force =    -0.39932902   -0.66808388   37.66201313
     atom   13 type  1   force =    -0.55582100   -1.12287704   -2.79772396
     atom   14 type  2   force =    -0.04440805   -0.04293239  -38.24724276
     atom   15 type  2   force =    -0.15115502    0.04842469   36.56588598
     atom   16 type  1   force =     0.03027564   -3.97508835   -0.47795797
     atom   17 type  2   force =    -0.83055895   -1.49035178  -37.70255407
     atom   18 type  2   force =     0.15253042    0.63613684   38.32001793
     atom   19 type  1   force =    -2.83349513    2.57465332   -0.57096600
     atom   20 type  2   force =    -0.22356307    0.22889676   38.23293690
     atom   21 type  1   force =    -0.00834132   -0.08184169   -1.07266184
     atom   22 type  2   force =    -0.59210293    1.75373252  -38.14245073
     atom   23 type  2   force =     0.05521199   -0.64448392   38.08295002
     atom   24 type  1   force =     0.50715881   -1.45272624   -5.63609936
     atom   25 type  2   force =    -0.86009811   -0.50771995  -38.90930334
     atom   26 type  2   force =     0.25176347   -0.08694835   37.12991734
     atom   27 type  1   force =    -0.07299820   -0.40208757    2.27046022
     atom   28 type  2   force =    -0.05341664   -1.03078019  -37.94833612
     atom   29 type  2   force =     0.26060341    0.41448064   37.02408896
     atom   30 type  1   force =     0.30079038    1.17467600    0.30920725
     atom   31 type  2   force =    -1.28906164    0.18313683  -37.04900867
     atom   32 type  2   force =     0.46316296    0.04899151   38.40231941
     atom   33 type  1   force =    -1.11446441    0.80819059   -1.58705862
     atom   34 type  2   force =    -0.65230557    2.27125579  -37.76586872
     atom   35 type  2   force =     0.28705902   -0.44298704   37.67681435
     atom   36 type  3   force =     0.30006275   -0.51411186   -8.68156769
     The core correction contribution to forces
     atom    1 type  1   force =     0.00000000    0.00000000    0.00000000
     atom    2 type  2   force =    -0.00004892    0.00026474    0.01967569
     atom    3 type  2   force =     0.00067312    0.00022392   -0.02099011
     atom    4 type  1   force =     0.00000000    0.00000000    0.00000000
     atom    5 type  2   force =    -0.00064848    0.00190805    0.02029356
     atom    6 type  2   force =     0.00019979   -0.00102940   -0.02076576
     atom    7 type  1   force =     0.00000000    0.00000000    0.00000000
     atom    8 type  2   force =    -0.00012258    0.00060059    0.02001290
     atom    9 type  2   force =    -0.00066386    0.00050126   -0.02109060
     atom   10 type  1   force =     0.00000000    0.00000000    0.00000000
     atom   11 type  2   force =    -0.00107288   -0.00073247    0.02021916
     atom   12 type  2   force =     0.00112776    0.00116149   -0.02079844
     atom   13 type  1   force =     0.00000000    0.00000000    0.00000000
     atom   14 type  2   force =    -0.00057581    0.00004422    0.02057982
     atom   15 type  2   force =     0.00074651    0.00034347   -0.02060492
     atom   16 type  1   force =     0.00000000    0.00000000    0.00000000
     atom   17 type  2   force =     0.00002634    0.00161462    0.02014947
     atom   18 type  2   force =     0.00019394   -0.00034233   -0.02092401
     atom   19 type  1   force =     0.00000000    0.00000000    0.00000000
     atom   20 type  2   force =     0.00012440    0.00068113   -0.02113525
     atom   21 type  1   force =     0.00000000    0.00000000    0.00000000
     atom   22 type  2   force =     0.00036447   -0.00059771    0.02029734
     atom   23 type  2   force =    -0.00049165    0.00099125   -0.02087804
     atom   24 type  1   force =     0.00000000    0.00000000    0.00000000
     atom   25 type  2   force =     0.00023331    0.00012929    0.02020760
     atom   26 type  2   force =    -0.00016796    0.00105573   -0.02090628
     atom   27 type  1   force =     0.00000000    0.00000000    0.00000000
     atom   28 type  2   force =     0.00024376    0.00185320    0.02079865
     atom   29 type  2   force =    -0.00058255   -0.00046544   -0.02063769
     atom   30 type  1   force =     0.00000000    0.00000000    0.00000000
     atom   31 type  2   force =     0.00030791    0.00021726    0.02012778
     atom   32 type  2   force =     0.00038759    0.00063330   -0.02106489
     atom   33 type  1   force =     0.00000000    0.00000000    0.00000000
     atom   34 type  2   force =     0.00397056   -0.00951572    0.00079429
     atom   35 type  2   force =    -0.00006730    0.00083462   -0.02148951
     atom   36 type  3   force =     0.00000000    0.00000000    0.00000000
     The Hubbard contrib.    to forces
     atom    1 type  1   force =     0.00000000    0.00000000    0.00000000
     atom    2 type  2   force =     0.00000000    0.00000000    0.00000000
     atom    3 type  2   force =     0.00000000    0.00000000    0.00000000
     atom    4 type  1   force =     0.00000000    0.00000000    0.00000000
     atom    5 type  2   force =     0.00000000    0.00000000    0.00000000
     atom    6 type  2   force =     0.00000000    0.00000000    0.00000000
     atom    7 type  1   force =     0.00000000    0.00000000    0.00000000
     atom    8 type  2   force =     0.00000000    0.00000000    0.00000000
     atom    9 type  2   force =     0.00000000    0.00000000    0.00000000
     atom   10 type  1   force =     0.00000000    0.00000000    0.00000000
     atom   11 type  2   force =     0.00000000    0.00000000    0.00000000
     atom   12 type  2   force =     0.00000000    0.00000000    0.00000000
     atom   13 type  1   force =     0.00000000    0.00000000    0.00000000
     atom   14 type  2   force =     0.00000000    0.00000000    0.00000000
     atom   15 type  2   force =     0.00000000    0.00000000    0.00000000
     atom   16 type  1   force =     0.00000000    0.00000000    0.00000000
     atom   17 type  2   force =     0.00000000    0.00000000    0.00000000
     atom   18 type  2   force =     0.00000000    0.00000000    0.00000000
     atom   19 type  1   force =     0.00000000    0.00000000    0.00000000
     atom   20 type  2   force =     0.00000000    0.00000000    0.00000000
     atom   21 type  1   force =     0.00000000    0.00000000    0.00000000
     atom   22 type  2   force =     0.00000000    0.00000000    0.00000000
     atom   23 type  2   force =     0.00000000    0.00000000    0.00000000
     atom   24 type  1   force =     0.00000000    0.00000000    0.00000000
     atom   25 type  2   force =     0.00000000    0.00000000    0.00000000
     atom   26 type  2   force =     0.00000000    0.00000000    0.00000000
     atom   27 type  1   force =     0.00000000    0.00000000    0.00000000
     atom   28 type  2   force =     0.00000000    0.00000000    0.00000000
     atom   29 type  2   force =     0.00000000    0.00000000    0.00000000
     atom   30 type  1   force =     0.00000000    0.00000000    0.00000000
     atom   31 type  2   force =     0.00000000    0.00000000    0.00000000
     atom   32 type  2   force =     0.00000000    0.00000000    0.00000000
     atom   33 type  1   force =     0.00000000    0.00000000    0.00000000
     atom   34 type  2   force =     0.00000000    0.00000000    0.00000000
     atom   35 type  2   force =     0.00000000    0.00000000    0.00000000
     atom   36 type  3   force =     0.00000000    0.00000000    0.00000000
     The SCF correction term to forces
     atom    1 type  1   force =    -0.00001819    0.00005099   -0.00047172
     atom    2 type  2   force =    -0.00001718   -0.00001982   -0.00029279
     atom    3 type  2   force =    -0.00001132   -0.00001661   -0.00013960
     atom    4 type  1   force =    -0.00002558    0.00004230   -0.00049533
     atom    5 type  2   force =    -0.00000050    0.00000241   -0.00026170
     atom    6 type  2   force =    -0.00000607    0.00001405   -0.00013854
     atom    7 type  1   force =     0.00013735    0.00003639   -0.00048233
     atom    8 type  2   force =    -0.00002076    0.00000969   -0.00030066
     atom    9 type  2   force =    -0.00001964    0.00002462   -0.00011284
     atom   10 type  1   force =     0.00000949   -0.00010212   -0.00046775
     atom   11 type  2   force =     0.00003778   -0.00002805   -0.00030167
     atom   12 type  2   force =     0.00005084   -0.00005748   -0.00011288
     atom   13 type  1   force =     0.00003046    0.00005811   -0.00046088
     atom   14 type  2   force =    -0.00000221    0.00004044   -0.00025702
     atom   15 type  2   force =     0.00000252    0.00004207   -0.00014501
     atom   16 type  1   force =     0.00005007   -0.00012031   -0.00046456
     atom   17 type  2   force =     0.00001967   -0.00001999   -0.00026480
     atom   18 type  2   force =     0.00001634   -0.00000426   -0.00013624
     atom   19 type  1   force =    -0.00004037    0.00004032   -0.00048561
     atom   20 type  2   force =     0.00004166    0.00000315   -0.00014822
     atom   21 type  1   force =     0.00006228   -0.00004883   -0.00043680
     atom   22 type  2   force =    -0.00000504   -0.00000444   -0.00025912
     atom   23 type  2   force =    -0.00003060   -0.00001917   -0.00015994
     atom   24 type  1   force =    -0.00002091   -0.00000954   -0.00048588
     atom   25 type  2   force =     0.00001857    0.00000688   -0.00028721
     atom   26 type  2   force =     0.00001312   -0.00000020   -0.00014504
     atom   27 type  1   force =    -0.00002588   -0.00002063   -0.00049583
     atom   28 type  2   force =    -0.00001295    0.00002426   -0.00025642
     atom   29 type  2   force =    -0.00001322    0.00002739   -0.00015466
     atom   30 type  1   force =    -0.00010428    0.00001766   -0.00050751
     atom   31 type  2   force =    -0.00002246   -0.00000512   -0.00026161
     atom   32 type  2   force =    -0.00001977    0.00000515   -0.00015478
     atom   33 type  1   force =    -0.00005643   -0.00003555   -0.00049950
     atom   34 type  2   force =    -0.00004474    0.00002352   -0.00030828
     atom   35 type  2   force =    -0.00002142   -0.00001491   -0.00011910
     atom   36 type  3   force =    -0.00000508    0.00000275   -0.00002886

     Total force =     0.199795     Total SCF correction =     0.001990

     BFGS Geometry Optimization
     Energy error            =      0.0E+00 Ry
     Gradient error          =      1.1E-01 Ry/Bohr

     number of scf cycles    =   1
     number of bfgs steps    =   0

     energy             new  =   -2205.5430220181 Ry

     new trust radius        =       0.1238112023 bohr
     new conv_thr            =       0.0000010000 Ry


ATOMIC_POSITIONS (angstrom)
Mo            6.5806294301        1.7749698436        2.8264704537
S             8.1686488930        0.8189712671        4.4351707476
S             8.1870225492        0.8158886888        1.2756945480
Mo            8.0995830819        4.4931198659        2.7180508152
S             6.4988383767        3.7199452038        4.3432375577
S             6.5549728551        3.5173988513        1.1217333003
Mo            6.4930852609        7.2168599667        2.6679966570
S             8.0802251696        6.3391865644        4.2513763446
S             8.0900934888        6.3066758781        1.0887520096
Mo            8.1508931754        9.9079276222        2.8234838441
S             6.4965029535        8.9414551823        4.3801052416
S             6.6174987479        9.0492183572        1.1432834503
Mo            3.4249876043        1.7498709292        2.7733975639
S             4.9793524071        0.8175742184        4.3566223332
S             5.0515361521        0.8474451792        1.2219432948
Mo            4.9800057673        4.5148626673        2.6333159807
S             3.4312276443        3.6727318467        4.2805709540
S             3.4351021646        3.5448952959        1.0658150425
Mo            3.4552497093        7.2159692181        2.6297975945
S             4.9849099700        6.3239202687        1.0377505694
Mo            5.0099112720        9.9054578433        2.7440930979
S             3.4729680849        8.9412530458        4.3243088068
S             3.4079750958        9.0660069474        1.1006478116
Mo            0.2910401637        1.7461464474        2.8376173457
S             1.8599647241        0.8038696882        4.4022855391
S             1.8545649219        0.8530169229        1.2066104087
Mo            1.8586139077        4.4926371884        2.6645966304
S             0.2725251730        3.6539124780        4.3345598572
S             0.2327971558        3.5281592559        1.1703868968
Mo            0.2670222399        7.2062095144        2.6863222229
S             1.9050943624        6.3105147446        4.2306570601
S             1.8545848933        6.3122894869        1.0479691922
Mo            1.8521285029        9.9424870193        2.7721255709
S             0.3092281836        9.0517171321        4.3643531609
S             0.2722325672        9.0471723398        1.1588251291
H            -0.0086696374        9.7457872189        5.5348345038



     Writing config-only to output data dir ./MoS2-V-O.save/
     NEW-OLD atomic charge density approx. for the potential

     negative rho (up, down):  1.488E-04 0.000E+00

     total cpu time spent up to now is      103.8 secs

     Self-consistent Calculation

     iteration #  1     ecut=    80.00 Ry     beta= 0.70
     Davidson diagonalization with overlap
     ethr =  1.00E-06,  avg # of iterations = 12.0

     negative rho (up, down):  3.260E-04 0.000E+00

     total cpu time spent up to now is      117.5 secs

     total energy              =   -2205.56304500 Ry
     estimated scf accuracy    <       0.00551670 Ry

     iteration #  2     ecut=    80.00 Ry     beta= 0.70
     Davidson diagonalization with overlap
     ethr =  1.80E-06,  avg # of iterations =  3.0

     negative rho (up, down):  3.883E-04 0.000E+00

     total cpu time spent up to now is      133.1 secs

     total energy              =   -2205.56315349 Ry
     estimated scf accuracy    <       0.00199491 Ry

     iteration #  3     ecut=    80.00 Ry     beta= 0.70
     Davidson diagonalization with overlap
     ethr =  6.50E-07,  avg # of iterations =  4.0

     negative rho (up, down):  5.690E-04 0.000E+00

     total cpu time spent up to now is      144.8 secs

     total energy              =   -2205.56325929 Ry
     estimated scf accuracy    <       0.00124398 Ry

     iteration #  4     ecut=    80.00 Ry     beta= 0.70
     Davidson diagonalization with overlap
     ethr =  4.05E-07,  avg # of iterations =  2.0

     negative rho (up, down):  6.182E-04 0.000E+00

     total cpu time spent up to now is      156.8 secs

     total energy              =   -2205.56332237 Ry
     estimated scf accuracy    <       0.00003767 Ry

     iteration #  5     ecut=    80.00 Ry     beta= 0.70
     Davidson diagonalization with overlap
     ethr =  1.23E-08,  avg # of iterations = 10.0

     negative rho (up, down):  6.113E-04 0.000E+00

     total cpu time spent up to now is      170.7 secs

     total energy              =   -2205.56333344 Ry
     estimated scf accuracy    <       0.00002062 Ry

     iteration #  6     ecut=    80.00 Ry     beta= 0.70
     Davidson diagonalization with overlap
     ethr =  6.72E-09,  avg # of iterations =  3.0

     negative rho (up, down):  5.419E-04 0.000E+00

     total cpu time spent up to now is      183.9 secs

     total energy              =   -2205.56333401 Ry
     estimated scf accuracy    <       0.00000594 Ry

     iteration #  7     ecut=    80.00 Ry     beta= 0.70
     Davidson diagonalization with overlap
     ethr =  1.94E-09,  avg # of iterations =  6.0

     negative rho (up, down):  4.696E-04 0.000E+00

     total cpu time spent up to now is      193.9 secs

     total energy              =   -2205.56333485 Ry
     estimated scf accuracy    <       0.00000127 Ry

     iteration #  8     ecut=    80.00 Ry     beta= 0.70
     Davidson diagonalization with overlap
     ethr =  4.14E-10,  avg # of iterations =  2.0

     negative rho (up, down):  1.371E-04 0.000E+00

     total cpu time spent up to now is      195.8 secs

     End of self-consistent calculation

          k = 0.0000 0.0000 0.0000 (105382 PWs)   bands (ev):

   -62.8382 -62.8187 -62.7947 -62.7796 -62.7770 -62.7739 -62.7689 -62.7593
   -62.7564 -62.6604 -62.6449 -62.5669 -37.1579 -37.1190 -37.0996 -37.0805
   -37.0678 -37.0457 -37.0426 -37.0219 -37.0070 -36.9993 -36.9979 -36.9821
   -36.9712 -36.9631 -36.9613 -36.9555 -36.9516 -36.9485 -36.9346 -36.9333
   -36.9298 -36.8889 -36.8565 -36.8526 -36.8437 -36.8341 -36.8230 -36.8091
   -36.8013 -36.7975 -36.7825 -36.7606 -36.7373 -36.7048 -36.6122 -36.5989
   -16.2772 -15.6583 -15.0729 -15.0392 -14.8966 -14.7795 -14.6469 -14.4227
   -14.4102 -14.3734 -14.3254 -14.2869 -14.2776 -14.2138 -14.1444 -14.0688
   -14.0500 -14.0399 -13.9529 -13.9076 -13.7797 -13.7519 -13.7306  -8.9696
    -7.6359  -7.3982  -7.3389  -7.2124  -7.1432  -7.1316  -7.0716  -7.0624
    -6.7818  -6.7320  -6.7233  -6.6885  -6.5460  -6.4787  -6.4351  -6.4149
    -6.3112  -6.2169  -6.1752  -5.9091  -5.8730  -5.8472  -5.7584  -5.7413
    -5.7231  -5.6651  -5.6344  -5.5918  -5.5695  -5.5357  -5.4597  -5.3808
    -5.3465  -5.3097  -5.1715  -5.0964  -5.0673  -5.0541  -4.9080  -4.9027
    -4.8564  -4.7780  -4.5783  -4.5027  -4.4010  -4.2823  -4.2594  -4.2014
    -4.1811  -4.1133  -3.9807  -3.8618  -3.7335  -3.6969  -3.6679  -3.6471
    -3.6130  -3.5275  -3.5079  -3.4459  -3.4344  -3.4165  -3.4022  -3.3162
    -3.3058  -3.2206  -3.0804  -2.8449  -2.8116  -2.7705  -2.7242  -2.6816
    -2.6544  -2.6129  -2.5963  -2.5537  -2.5102  -2.2042  -1.9563  -1.9392
    -1.9196  -0.7081  -0.6859  -0.6297  -0.1209  -0.1092   0.0035   0.0110
     0.1610   0.1738   0.2755   0.2942   0.3065   0.3687   0.4808   0.5051
     0.5184   0.6070   0.6414   0.6627   0.6832   0.7071   0.7332   0.8007
     0.8252   0.8520   0.9367   0.9669   1.0018   1.0571   1.1188   1.3745
     1.4641

     the Fermi energy is    -0.7731 ev

!    total energy              =   -2205.56333543 Ry
     estimated scf accuracy    <       0.00000041 Ry
     smearing contrib. (-TS)   =      -0.01008854 Ry
     internal energy E=F+TS    =   -2205.55324689 Ry

     The total energy is F=E-TS. E is the sum of the following terms:
     one-electron contribution =  -18052.58848993 Ry
     hartree contribution      =    9013.58328326 Ry
     xc contribution           =    -385.37882243 Ry
     ewald contribution        =    7218.83078222 Ry

     convergence has been achieved in   8 iterations

     negative rho (up, down):  1.371E-04 0.000E+00

     Forces acting on atoms (cartesian axes, Ry/au):

     atom    1 type  1   force =     0.00258334   -0.01214850   -0.00069510
     atom    2 type  2   force =    -0.00817877    0.00791684   -0.00061300
     atom    3 type  2   force =    -0.01111500    0.00837064   -0.01075058
     atom    4 type  1   force =     0.00503813   -0.00123543    0.00159500
     atom    5 type  2   force =    -0.00050440   -0.00563114   -0.00640791
     atom    6 type  2   force =     0.00252234    0.00628331    0.00246642
     atom    7 type  1   force =     0.00381947   -0.00459461   -0.00173876
     atom    8 type  2   force =    -0.00208027   -0.00805096    0.01109195
     atom    9 type  2   force =     0.01230401    0.00135338    0.00399765
     atom   10 type  1   force =    -0.00947252    0.00925968   -0.01794728
     atom   11 type  2   force =     0.00360534   -0.00143240   -0.00764472
     atom   12 type  2   force =    -0.00436496    0.00064677    0.00033590
     atom   13 type  1   force =     0.00426501    0.00390309   -0.00314543
     atom   14 type  2   force =     0.00572969    0.00061198    0.00879835
     atom   15 type  2   force =    -0.00854746    0.00174298   -0.00729869
     atom   16 type  1   force =     0.00026506    0.00316502    0.00179910
     atom   17 type  2   force =     0.00594557    0.00160960    0.00196241
     atom   18 type  2   force =    -0.00377417   -0.00437216    0.01089753
     atom   19 type  1   force =     0.00289111   -0.00296557   -0.00012717
     atom   20 type  2   force =     0.00257393   -0.00428275   -0.00100576
     atom   21 type  1   force =    -0.00325266    0.00428495    0.00214907
     atom   22 type  2   force =     0.00301338   -0.00337181   -0.00134530
     atom   23 type  2   force =     0.00053237    0.00117350    0.00509003
     atom   24 type  1   force =    -0.00609122   -0.00219659   -0.00987887
     atom   25 type  2   force =     0.01139557    0.01556605    0.00248188
     atom   26 type  2   force =    -0.00742367   -0.00127436   -0.00556689
     atom   27 type  1   force =    -0.00110601   -0.00275789    0.00719652
     atom   28 type  2   force =     0.00009351   -0.00302876   -0.00513437
     atom   29 type  2   force =     0.00260757    0.00149041   -0.00450216
     atom   30 type  1   force =    -0.00401246   -0.01901183   -0.01579089
     atom   31 type  2   force =     0.00341872   -0.00414153    0.00997450
     atom   32 type  2   force =    -0.00948939    0.00166964    0.00389179
     atom   33 type  1   force =     0.01264004    0.00446817   -0.00250368
     atom   34 type  2   force =    -0.01001496    0.00150961    0.01659762
     atom   35 type  2   force =    -0.00580303    0.00677613    0.00685006
     atom   36 type  3   force =     0.00998681   -0.00130547    0.00492079
     The non-local contrib.  to forces
     atom    1 type  1   force =    -0.00165928    0.03371004   -0.01437307
     atom    2 type  2   force =    -0.00267643   -0.00455572   -0.25050445
     atom    3 type  2   force =    -0.01271269   -0.00726282    0.26649709
     atom    4 type  1   force =    -0.00144109    0.00700922    0.00325449
     atom    5 type  2   force =     0.00700600   -0.03442454   -0.25326319
     atom    6 type  2   force =    -0.00174092    0.00642591    0.26346327
     atom    7 type  1   force =    -0.02972959   -0.01161073   -0.01666595
     atom    8 type  2   force =     0.00150868   -0.00986252   -0.25198929
     atom    9 type  2   force =     0.01217887   -0.01024989    0.27499394
     atom   10 type  1   force =    -0.00305423    0.00051036    0.00208233
     atom   11 type  2   force =     0.01667838    0.00884320   -0.25612065
     atom   12 type  2   force =    -0.01409040   -0.01379285    0.25922834
     atom   13 type  1   force =     0.00264576    0.02608516   -0.00880629
     atom   14 type  2   force =     0.00935827   -0.01052444   -0.26304099
     atom   15 type  2   force =    -0.01087700   -0.00523023    0.26202119
     atom   16 type  1   force =    -0.00100823    0.03985181   -0.01964803
     atom   17 type  2   force =     0.00169172   -0.02884259   -0.24864471
     atom   18 type  2   force =    -0.00364656   -0.00344782    0.27048643
     atom   19 type  1   force =     0.02724619   -0.01462479   -0.01355657
     atom   20 type  2   force =    -0.00056655   -0.01838165    0.26443077
     atom   21 type  1   force =     0.00193908    0.02525433    0.00539551
     atom   22 type  2   force =    -0.00751047    0.00605302   -0.25610147
     atom   23 type  2   force =     0.00731287   -0.01233723    0.26515250
     atom   24 type  1   force =     0.00361836    0.01828320   -0.01068528
     atom   25 type  2   force =     0.00142297   -0.00391068   -0.25687808
     atom   26 type  2   force =     0.00009072   -0.01623511    0.26406720
     atom   27 type  1   force =    -0.00035919    0.00889907    0.00741302
     atom   28 type  2   force =    -0.00362791   -0.02573888   -0.27250063
     atom   29 type  2   force =     0.00624802   -0.00114438    0.26392912
     atom   30 type  1   force =    -0.00046507    0.01591173   -0.01029967
     atom   31 type  2   force =    -0.00229673   -0.00646931   -0.25142345
     atom   32 type  2   force =    -0.00776125   -0.01266174    0.27298815
     atom   33 type  1   force =    -0.00333912    0.00350224   -0.00239757
     atom   34 type  2   force =    -0.07761956    0.18176771    0.12326370
     atom   35 type  2   force =    -0.00143740   -0.01002121    0.27519393
     atom   36 type  3   force =     0.01371189   -0.02777582   -0.04663525
     The ionic contribution  to forces
     atom    1 type  1   force =     0.04892388    0.68286712    5.76633145
     atom    2 type  2   force =    -0.65720412    0.56026584   39.21961029
     atom    3 type  2   force =    -0.16257980    0.10636676  -36.27419635
     atom    4 type  1   force =    -0.14218531    0.52048853    0.78203208
     atom    5 type  2   force =    -0.99996765    1.51601875   38.68681616
     atom    6 type  2   force =     0.28433156   -0.52429037  -37.93688486
     atom    7 type  1   force =    -2.79312924   -2.90235219    2.44180938
     atom    8 type  2   force =    -1.05320967   -0.04706945   37.49213560
     atom    9 type  2   force =     0.19445879   -0.12819570  -38.03935187
     atom   10 type  1   force =    -1.12286383   -0.30316259    4.58209737
     atom   11 type  2   force =    -0.68568446   -1.68012170   39.06291846
     atom   12 type  2   force =     0.28812514    0.60866619  -37.90747845
     atom   13 type  1   force =     0.50570563    1.04578123    2.76528254
     atom   14 type  2   force =    -0.02606580    0.06406559   38.61270399
     atom   15 type  2   force =     0.15495099    0.00397200  -36.87492067
     atom   16 type  1   force =     0.01621718    3.89475682    0.55748669
     atom   17 type  2   force =     0.84105247    1.50867337   37.97058479
     atom   18 type  2   force =    -0.13102191   -0.57704816  -38.48904597
     atom   19 type  1   force =     2.77767612   -2.60417679    0.59579940
     atom   20 type  2   force =     0.19346588   -0.21359119  -38.47323383
     atom   21 type  1   force =    -0.03652117   -0.03049189    1.24751820
     atom   22 type  2   force =     0.57150222   -1.76892105   38.43145354
     atom   23 type  2   force =    -0.05518193    0.61138129  -38.29224361
     atom   24 type  1   force =    -0.31991364    1.22171481    5.36178204
     atom   25 type  2   force =     0.71022909    0.45658037   39.17983473
     atom   26 type  2   force =    -0.21020577    0.09297870  -37.36593588
     atom   27 type  1   force =     0.21182694    0.44157669   -1.95744965
     atom   28 type  2   force =     0.06309446    0.96194594   38.23449018
     atom   29 type  2   force =    -0.23739454   -0.38770907  -37.32595542
     atom   30 type  1   force =    -0.21146032   -1.12431895   -0.85317991
     atom   31 type  2   force =     1.27269121   -0.10492262   37.37656501
     atom   32 type  2   force =    -0.31364822   -0.07332882  -38.62579783
     atom   33 type  1   force =     0.97547839   -0.65231080    1.84903617
     atom   34 type  2   force =     0.47851572   -2.10122172   37.46360991
     atom   35 type  2   force =    -0.18435134    0.48407335  -37.79458235
     atom   36 type  3   force =    -0.24565694    0.44105967    8.53035868
     The local contribution  to forces
     atom    1 type  1   force =    -0.04460662   -0.72895105   -5.75217973
     atom    2 type  2   force =     0.65178284   -0.54814979  -38.98901441
     atom    3 type  2   force =     0.16359542   -0.09112161   36.01786634
     atom    4 type  1   force =     0.14870636   -0.52863980   -0.78332929
     atom    5 type  2   force =     0.99317973   -1.48920312  -38.45985832
     atom    6 type  2   force =    -0.28023734    0.52498739   37.69662245
     atom    7 type  1   force =     2.82676982    2.90961138   -2.42648590
     atom    8 type  2   force =     1.04972685    0.04832178  -37.24893013
     atom    9 type  2   force =    -0.19379811    0.13940374   37.78940275
     atom   10 type  1   force =     1.11644450    0.31177783   -4.60186387
     atom   11 type  2   force =     0.67349044    1.67059170  -38.83440810
     atom   12 type  2   force =    -0.27945527   -0.59536749   37.66936827
     atom   13 type  1   force =    -0.50416591   -1.06816803   -2.75920028
     atom   14 type  2   force =     0.02301508   -0.05309518  -38.36114590
     atom   15 type  2   force =    -0.15327434    0.00252550   36.62622099
     atom   16 type  1   force =    -0.01488720   -3.93143686   -0.53565499
     atom   17 type  2   force =    -0.83689753   -1.47982865  -37.73976131
     atom   18 type  2   force =     0.13075770    0.57641112   38.25030308
     atom   19 type  1   force =    -2.80201038    2.61605676   -0.58197040
     atom   20 type  2   force =    -0.19036753    0.22713609   38.22887704
     atom   21 type  1   force =     0.03143967    0.00948159   -1.25035759
     atom   22 type  2   force =    -0.56132155    1.76023880  -38.19662578
     atom   23 type  2   force =     0.04893391   -0.59882368   38.05298230
     atom   24 type  1   force =     0.31019899   -1.24233318   -5.36056128
     atom   25 type  2   force =    -0.70056075   -0.43743050  -38.94039782
     atom   26 type  2   force =     0.20292423   -0.07897635   37.11718685
     atom   27 type  1   force =    -0.21266421   -0.45325048    1.95760249
     atom   28 type  2   force =    -0.05962110   -0.94103971  -37.98762983
     atom   29 type  2   force =     0.23427993    0.39065724   37.07816333
     atom   30 type  1   force =     0.20779666    1.08964551    0.84808779
     atom   31 type  2   force =    -1.26732343    0.10697333  -37.13505706
     atom   32 type  2   force =     0.31155244    0.08706313   38.37768159
     atom   33 type  1   force =    -0.95958455    0.65321283   -1.84865252
     atom   34 type  2   force =    -0.41608935    1.93295495  -37.56714401
     atom   35 type  2   force =     0.17997704   -0.46823986   37.54761223
     atom   36 type  3   force =     0.24193144   -0.41458270   -8.47871826
     The core correction contribution to forces
     atom    1 type  1   force =     0.00000000    0.00000000    0.00000000
     atom    2 type  2   force =    -0.00015574    0.00037281    0.01962784
     atom    3 type  2   force =     0.00057470    0.00031553   -0.02086895
     atom    4 type  1   force =     0.00000000    0.00000000    0.00000000
     atom    5 type  2   force =    -0.00068646    0.00192690    0.02027909
     atom    6 type  2   force =     0.00020724   -0.00088525   -0.02080255
     atom    7 type  1   force =     0.00000000    0.00000000    0.00000000
     atom    8 type  2   force =    -0.00010098    0.00064175    0.02014698
     atom    9 type  2   force =    -0.00049959    0.00051004   -0.02099375
     atom   10 type  1   force =     0.00000000    0.00000000    0.00000000
     atom   11 type  2   force =    -0.00090919   -0.00074510    0.02028711
     atom   12 type  2   force =     0.00109911    0.00115194   -0.02072838
     atom   13 type  1   force =     0.00000000    0.00000000    0.00000000
     atom   14 type  2   force =    -0.00055331    0.00008067    0.02063557
     atom   15 type  2   force =     0.00064392    0.00039329   -0.02061684
     atom   16 type  1   force =     0.00000000    0.00000000    0.00000000
     atom   17 type  2   force =     0.00005886    0.00154238    0.02014646
     atom   18 type  2   force =     0.00010208   -0.00037621   -0.02090318
     atom   19 type  1   force =     0.00000000    0.00000000    0.00000000
     atom   20 type  2   force =     0.00013469    0.00063328   -0.02114050
     atom   21 type  1   force =     0.00000000    0.00000000    0.00000000
     atom   22 type  2   force =     0.00034219   -0.00064823    0.02031860
     atom   23 type  2   force =    -0.00052917    0.00104839   -0.02083058
     atom   24 type  1   force =     0.00000000    0.00000000    0.00000000
     atom   25 type  2   force =     0.00035767    0.00027230    0.02030000
     atom   26 type  2   force =    -0.00023817    0.00090829   -0.02088395
     atom   27 type  1   force =     0.00000000    0.00000000    0.00000000
     atom   28 type  2   force =     0.00024956    0.00177571    0.02085183
     atom   29 type  2   force =    -0.00053213   -0.00035516   -0.02064522
     atom   30 type  1   force =     0.00000000    0.00000000    0.00000000
     atom   31 type  2   force =     0.00025769    0.00032160    0.02024896
     atom   32 type  2   force =     0.00024555    0.00065230   -0.02101494
     atom   33 type  1   force =     0.00000000    0.00000000    0.00000000
     atom   34 type  2   force =     0.00525274   -0.01205966   -0.00297085
     atom   35 type  2   force =    -0.00004387    0.00094804   -0.02132257
     atom   36 type  3   force =     0.00000000    0.00000000    0.00000000
     The Hubbard contrib.    to forces
     atom    1 type  1   force =     0.00000000    0.00000000    0.00000000
     atom    2 type  2   force =     0.00000000    0.00000000    0.00000000
     atom    3 type  2   force =     0.00000000    0.00000000    0.00000000
     atom    4 type  1   force =     0.00000000    0.00000000    0.00000000
     atom    5 type  2   force =     0.00000000    0.00000000    0.00000000
     atom    6 type  2   force =     0.00000000    0.00000000    0.00000000
     atom    7 type  1   force =     0.00000000    0.00000000    0.00000000
     atom    8 type  2   force =     0.00000000    0.00000000    0.00000000
     atom    9 type  2   force =     0.00000000    0.00000000    0.00000000
     atom   10 type  1   force =     0.00000000    0.00000000    0.00000000
     atom   11 type  2   force =     0.00000000    0.00000000    0.00000000
     atom   12 type  2   force =     0.00000000    0.00000000    0.00000000
     atom   13 type  1   force =     0.00000000    0.00000000    0.00000000
     atom   14 type  2   force =     0.00000000    0.00000000    0.00000000
     atom   15 type  2   force =     0.00000000    0.00000000    0.00000000
     atom   16 type  1   force =     0.00000000    0.00000000    0.00000000
     atom   17 type  2   force =     0.00000000    0.00000000    0.00000000
     atom   18 type  2   force =     0.00000000    0.00000000    0.00000000
     atom   19 type  1   force =     0.00000000    0.00000000    0.00000000
     atom   20 type  2   force =     0.00000000    0.00000000    0.00000000
     atom   21 type  1   force =     0.00000000    0.00000000    0.00000000
     atom   22 type  2   force =     0.00000000    0.00000000    0.00000000
     atom   23 type  2   force =     0.00000000    0.00000000    0.00000000
     atom   24 type  1   force =     0.00000000    0.00000000    0.00000000
     atom   25 type  2   force =     0.00000000    0.00000000    0.00000000
     atom   26 type  2   force =     0.00000000    0.00000000    0.00000000
     atom   27 type  1   force =     0.00000000    0.00000000    0.00000000
     atom   28 type  2   force =     0.00000000    0.00000000    0.00000000
     atom   29 type  2   force =     0.00000000    0.00000000    0.00000000
     atom   30 type  1   force =     0.00000000    0.00000000    0.00000000
     atom   31 type  2   force =     0.00000000    0.00000000    0.00000000
     atom   32 type  2   force =     0.00000000    0.00000000    0.00000000
     atom   33 type  1   force =     0.00000000    0.00000000    0.00000000
     atom   34 type  2   force =     0.00000000    0.00000000    0.00000000
     atom   35 type  2   force =     0.00000000    0.00000000    0.00000000
     atom   36 type  3   force =     0.00000000    0.00000000    0.00000000
     The SCF correction term to forces
     atom    1 type  1   force =    -0.00007413    0.00022281   -0.00045834
     atom    2 type  2   force =     0.00007519   -0.00001890   -0.00031685
     atom    3 type  2   force =     0.00000787    0.00007020   -0.00003331
     atom    4 type  1   force =    -0.00004133   -0.00009597   -0.00034687
     atom    5 type  2   force =    -0.00003552    0.00004829   -0.00036624
     atom    6 type  2   force =    -0.00003770    0.00004303    0.00008353
     atom    7 type  1   force =    -0.00009102   -0.00024566   -0.00038088
     atom    8 type  2   force =    -0.00000466   -0.00008510   -0.00025580
     atom    9 type  2   force =    -0.00003545   -0.00011741   -0.00003802
     atom   10 type  1   force =     0.00000153    0.00013149   -0.00024770
     atom   11 type  2   force =     0.00003067   -0.00000308   -0.00030614
     atom   12 type  2   force =    -0.00004303   -0.00001360   -0.00003846
     atom   13 type  1   force =     0.00008004    0.00020213   -0.00040599
     atom   14 type  2   force =    -0.00002404    0.00008275   -0.00033892
     atom   15 type  2   force =     0.00000947    0.00007984    0.00001205
     atom   16 type  1   force =    -0.00005619   -0.00000933   -0.00036916
     atom   17 type  2   force =     0.00004056    0.00006250   -0.00034742
     atom   18 type  2   force =     0.00003502    0.00008633    0.00007257
     atom   19 type  1   force =    -0.00002033   -0.00022333   -0.00038420
     atom   20 type  2   force =    -0.00009206   -0.00008187    0.00007616
     atom   21 type  1   force =    -0.00010974    0.00003833   -0.00039164
     atom   22 type  2   force =     0.00000150   -0.00009694   -0.00037479
     atom   23 type  2   force =    -0.00000282   -0.00009786    0.00004483
     atom   24 type  1   force =     0.00000557    0.00013599   -0.00039894
     atom   25 type  2   force =    -0.00005291    0.00005196   -0.00036154
     atom   26 type  2   force =     0.00000582    0.00004752    0.00001431
     atom   27 type  1   force =     0.00009094    0.00001424   -0.00035394
     atom   28 type  2   force =    -0.00000100    0.00002558   -0.00033051
     atom   29 type  2   force =     0.00000679    0.00003920    0.00002144
     atom   30 type  1   force =     0.00011676   -0.00025271   -0.00038370
     atom   31 type  2   force =     0.00009048   -0.00004712   -0.00034355
     atom   32 type  2   force =     0.00012259   -0.00005782    0.00005023
     atom   33 type  1   force =     0.00008583    0.00006131   -0.00047435
     atom   34 type  2   force =    -0.00007400    0.00006574   -0.00014573
     atom   35 type  2   force =     0.00005303    0.00001322   -0.00003577
     atom   36 type  3   force =     0.00000092   -0.00000921   -0.00006897

     Total force =     0.069040     Total SCF correction =     0.001875
     Energy error            =      2.0E-02 Ry
     Gradient error          =      1.9E-02 Ry/Bohr

     number of scf cycles    =   2
     number of bfgs steps    =   1

     energy             old  =   -2205.5430220181 Ry
     energy             new  =   -2205.5633354323 Ry

     CASE: energy            _new < energy            _old

     new trust radius        =       0.0329498926 bohr
     new conv_thr            =       0.0000000190 Ry


ATOMIC_POSITIONS (angstrom)
Mo            6.5829955085        1.7659793525        2.8264388498
S             8.1626750083        0.8249524003        4.4348906144
S             8.1795469940        0.8215143934        1.2689816179
Mo            8.1031891633        4.4921199610        2.7190342602
S             6.4983921834        3.7162500903        4.3389491554
S             6.5566982585        3.5219162761        1.1232667407
Mo            6.4957855029        7.2139039781        2.6664319326
S             8.0787799396        6.3337465750        4.2592046978
S             8.0986806134        6.3077511232        1.0918006072
Mo            8.1439214024        9.9142330673        2.8100644652
S             6.4988357233        8.9404008127        4.3751359845
S             6.6148328350        9.0496731104        1.1439415564
Mo            3.4279841722        1.7525955282        2.7711036690
S             4.9833395646        0.8180252675        4.3626988034
S             5.0455811736        0.8486458018        1.2169481132
Mo            4.9801977250        4.5169799897        2.6344482086
S             3.4352350838        3.6738459613        4.2818589296
S             3.4324676082        3.5418340379        1.0733306227
Mo            3.4571633347        7.2141511258        2.6296025109
S             4.9866733103        6.3209559349        1.0372176480
Mo            5.0076511000        9.9085381308        2.7454695367
S             3.4750389985        8.9389020306        4.3233320528
S             3.4082312775        9.0668451719        1.1043064229
Mo            0.2867202010        1.7446507019        2.8301181995
S             1.8680539488        0.8146747593        4.4043192989
S             1.8492891187        0.8520653634        1.2029097038
Mo            1.8576722222        4.4905805516        2.6694880126
S             0.2726231793        3.6520389083        4.3310855967
S             0.2345656844        3.5291721278        1.1674788090
Mo            0.2640676934        7.1934480945        2.6748138564
S             1.9075218849        6.3077333659        4.2377233543
S             1.8478839797        6.3135497019        1.0507541210
Mo            1.8607272254        9.9454719921        2.7705200651
S             0.3050558501        9.0474292370        4.3675472278
S             0.2681539353        9.0517108084        1.1640553303
H            -0.0038843922        9.7492384557        5.5454909614



     Writing config-only to output data dir ./MoS2-V-O.save/
     NEW-OLD atomic charge density approx. for the potential

     negative rho (up, down):  1.402E-04 0.000E+00

     total cpu time spent up to now is      199.2 secs

     Self-consistent Calculation

     iteration #  1     ecut=    80.00 Ry     beta= 0.70
     Davidson diagonalization with overlap
     ethr =  1.00E-06,  avg # of iterations =  9.0

     negative rho (up, down):  1.456E-04 0.000E+00

     total cpu time spent up to now is      214.7 secs

     total energy              =   -2205.56792218 Ry
     estimated scf accuracy    <       0.00063051 Ry

     iteration #  2     ecut=    80.00 Ry     beta= 0.70
     Davidson diagonalization with overlap
     ethr =  2.05E-07,  avg # of iterations =  5.0

     negative rho (up, down):  1.372E-04 0.000E+00

     total cpu time spent up to now is      225.9 secs

     total energy              =   -2205.56802563 Ry
     estimated scf accuracy    <       0.00053525 Ry

     iteration #  3     ecut=    80.00 Ry     beta= 0.70
     Davidson diagonalization with overlap
     ethr =  1.74E-07,  avg # of iterations =  1.0

     negative rho (up, down):  1.361E-04 0.000E+00

     total cpu time spent up to now is      240.6 secs

     total energy              =   -2205.56804137 Ry
     estimated scf accuracy    <       0.00008840 Ry

     iteration #  4     ecut=    80.00 Ry     beta= 0.70
     Davidson diagonalization with overlap
     ethr =  2.88E-08,  avg # of iterations =  5.0

     negative rho (up, down):  1.337E-04 0.000E+00

     total cpu time spent up to now is      252.1 secs

     total energy              =   -2205.56805631 Ry
     estimated scf accuracy    <       0.00000555 Ry

     iteration #  5     ecut=    80.00 Ry     beta= 0.70
     Davidson diagonalization with overlap
     ethr =  1.81E-09,  avg # of iterations =  6.0

     negative rho (up, down):  1.331E-04 0.000E+00

     total cpu time spent up to now is      267.8 secs

     total energy              =   -2205.56806006 Ry
     estimated scf accuracy    <       0.00000112 Ry

     iteration #  6     ecut=    80.00 Ry     beta= 0.70
     Davidson diagonalization with overlap
     ethr =  3.63E-10,  avg # of iterations =  5.0

     negative rho (up, down):  1.326E-04 0.000E+00

     total cpu time spent up to now is      280.5 secs

     total energy              =   -2205.56806018 Ry
     estimated scf accuracy    <       0.00000026 Ry

     iteration #  7     ecut=    80.00 Ry     beta= 0.70
     Davidson diagonalization with overlap
     ethr =  8.43E-11,  avg # of iterations =  5.0

     negative rho (up, down):  1.326E-04 0.000E+00

     total cpu time spent up to now is      294.2 secs

     total energy              =   -2205.56806021 Ry
     estimated scf accuracy    <       0.00000010 Ry

     iteration #  8     ecut=    80.00 Ry     beta= 0.70
     Davidson diagonalization with overlap
     ethr =  3.09E-11,  avg # of iterations =  5.0

     negative rho (up, down):  1.331E-04 0.000E+00

     total cpu time spent up to now is      309.6 secs

     total energy              =   -2205.56806021 Ry
     estimated scf accuracy    <       0.00000002 Ry

     iteration #  9     ecut=    80.00 Ry     beta= 0.70
     Davidson diagonalization with overlap
     ethr =  8.05E-12,  avg # of iterations =  5.0

     negative rho (up, down):  1.372E-04 0.000E+00

     total cpu time spent up to now is      311.7 secs

     End of self-consistent calculation

          k = 0.0000 0.0000 0.0000 (105382 PWs)   bands (ev):

   -62.8403 -62.8217 -62.7979 -62.7824 -62.7803 -62.7774 -62.7719 -62.7627
   -62.7495 -62.6678 -62.6523 -62.5815 -37.1605 -37.1166 -37.1021 -37.0811
   -37.0701 -37.0499 -37.0458 -37.0231 -37.0120 -37.0017 -36.9989 -36.9799
   -36.9756 -36.9655 -36.9644 -36.9588 -36.9540 -36.9506 -36.9387 -36.9369
   -36.9286 -36.8915 -36.8594 -36.8544 -36.8459 -36.8372 -36.8279 -36.8140
   -36.8073 -36.8059 -36.7844 -36.7652 -36.7518 -36.7158 -36.6179 -36.6107
   -16.2250 -15.6414 -15.0760 -15.0428 -14.9005 -14.7827 -14.6455 -14.4248
   -14.4118 -14.3700 -14.3359 -14.2952 -14.2818 -14.2232 -14.1457 -14.0757
   -14.0530 -14.0482 -13.9588 -13.9092 -13.7910 -13.7605 -13.7298  -8.8902
    -7.6280  -7.4017  -7.3244  -7.2162  -7.1502  -7.1371  -7.0777  -7.0586
    -6.7788  -6.7344  -6.7242  -6.6874  -6.5413  -6.4788  -6.4369  -6.4191
    -6.3167  -6.2272  -6.1833  -5.9062  -5.8738  -5.8477  -5.7594  -5.7470
    -5.7244  -5.6691  -5.6327  -5.5991  -5.5770  -5.5426  -5.4646  -5.3845
    -5.3406  -5.3043  -5.1618  -5.0918  -5.0710  -5.0479  -4.9095  -4.9085
    -4.8684  -4.7831  -4.5781  -4.5009  -4.4014  -4.2785  -4.2728  -4.2027
    -4.1922  -4.1293  -3.9915  -3.8666  -3.7356  -3.7027  -3.6691  -3.6514
    -3.6161  -3.5279  -3.5092  -3.4548  -3.4432  -3.4238  -3.4088  -3.3229
    -3.3045  -3.2278  -3.0898  -2.8413  -2.8149  -2.7670  -2.7127  -2.6892
    -2.6542  -2.6187  -2.6027  -2.5560  -2.5181  -2.2066  -1.9681  -1.9403
    -1.9256  -0.7225  -0.6932  -0.6393  -0.1281  -0.1136   0.0047   0.0075
     0.1505   0.1647   0.2754   0.3027   0.3163   0.3645   0.4789   0.5016
     0.5171   0.6008   0.6403   0.6547   0.6809   0.7096   0.7280   0.7927
     0.8213   0.8460   0.9437   0.9596   1.0051   1.0500   1.1122   1.3753
     1.4765

     the Fermi energy is    -0.7840 ev

!    total energy              =   -2205.56806020 Ry
     estimated scf accuracy    <          6.7E-09 Ry
     smearing contrib. (-TS)   =      -0.01003122 Ry
     internal energy E=F+TS    =   -2205.55802897 Ry

     The total energy is F=E-TS. E is the sum of the following terms:
     one-electron contribution =  -18051.42599233 Ry
     hartree contribution      =    9013.01192599 Ry
     xc contribution           =    -385.36870068 Ry
     ewald contribution        =    7218.22473805 Ry

     convergence has been achieved in   9 iterations

     negative rho (up, down):  1.372E-04 0.000E+00

     Forces acting on atoms (cartesian axes, Ry/au):

     atom    1 type  1   force =    -0.00247948   -0.00411094   -0.00382513
     atom    2 type  2   force =    -0.00495304    0.00401581   -0.00268222
     atom    3 type  2   force =    -0.00940705    0.00691100   -0.01309469
     atom    4 type  1   force =     0.00274323   -0.00031035    0.00102898
     atom    5 type  2   force =     0.00042735   -0.00592853   -0.00536637
     atom    6 type  2   force =     0.00185546    0.00371803    0.00289352
     atom    7 type  1   force =     0.00359621   -0.00456613    0.00051327
     atom    8 type  2   force =    -0.00106968   -0.00688298    0.00700921
     atom    9 type  2   force =     0.00770198   -0.00102615    0.00012796
     atom   10 type  1   force =    -0.00359734    0.00778588   -0.00340436
     atom   11 type  2   force =     0.00356164   -0.00061517   -0.00824312
     atom   12 type  2   force =    -0.00589359    0.00008061   -0.00255338
     atom   13 type  1   force =     0.00242071    0.00189420   -0.00092251
     atom   14 type  2   force =     0.00372323    0.00040418    0.00600811
     atom   15 type  2   force =    -0.00618583    0.00112011   -0.00568040
     atom   16 type  1   force =     0.00048546    0.00240519    0.00167913
     atom   17 type  2   force =     0.00535877    0.00119433    0.00251468
     atom   18 type  2   force =    -0.00251077   -0.00227889    0.00795817
     atom   19 type  1   force =     0.00134122   -0.00330992    0.00121461
     atom   20 type  2   force =     0.00219492   -0.00325441   -0.00202452
     atom   21 type  1   force =    -0.00187923    0.00215568    0.00201565
     atom   22 type  2   force =     0.00227460   -0.00251703   -0.00097806
     atom   23 type  2   force =     0.00123098    0.00042430    0.00260406
     atom   24 type  1   force =    -0.00361423   -0.00160677   -0.00427434
     atom   25 type  2   force =     0.00755129    0.01195421   -0.00143636
     atom   26 type  2   force =    -0.00382015   -0.00048039   -0.00466660
     atom   27 type  1   force =     0.00069550   -0.00135552    0.00504596
     atom   28 type  2   force =    -0.00022299   -0.00433233   -0.00362554
     atom   29 type  2   force =     0.00239052    0.00134584   -0.00410712
     atom   30 type  1   force =    -0.00176485   -0.01051055   -0.00347423
     atom   31 type  2   force =     0.00159034   -0.00280267    0.00581219
     atom   32 type  2   force =    -0.00522488   -0.00066938    0.00191628
     atom   33 type  1   force =     0.00460208    0.00310349    0.00353790
     atom   34 type  2   force =    -0.01048236    0.00668119    0.01469333
     atom   35 type  2   force =    -0.00284175    0.00448092    0.00456736
     atom   36 type  3   force =     0.01020172   -0.00311687   -0.00078140
     The non-local contrib.  to forces
     atom    1 type  1   force =    -0.00061073    0.03124721   -0.01447735
     atom    2 type  2   force =    -0.00059534   -0.00663287   -0.25050858
     atom    3 type  2   force =    -0.01054127   -0.00871411    0.26374245
     atom    4 type  1   force =     0.00003453    0.00783098    0.00279047
     atom    5 type  2   force =     0.00775602   -0.03477392   -0.25326179
     atom    6 type  2   force =    -0.00213197    0.00386274    0.26459988
     atom    7 type  1   force =    -0.02823375   -0.01092219   -0.01739140
     atom    8 type  2   force =     0.00116327   -0.00980210   -0.25401873
     atom    9 type  2   force =     0.00825078   -0.01223191    0.27183399
     atom   10 type  1   force =    -0.00468878    0.00111760    0.00126144
     atom   11 type  2   force =     0.01521856    0.00909948   -0.25649703
     atom   12 type  2   force =    -0.01473927   -0.01417322    0.25812054
     atom   13 type  1   force =     0.00324817    0.02700924   -0.00881666
     atom   14 type  2   force =     0.00759705   -0.01066716   -0.26416703
     atom   15 type  2   force =    -0.00883657   -0.00598464    0.26211191
     atom   16 type  1   force =    -0.00139224    0.03980212   -0.02146056
     atom   17 type  2   force =     0.00104662   -0.02849514   -0.24844127
     atom   18 type  2   force =    -0.00249513   -0.00198245    0.26892389
     atom   19 type  1   force =     0.02675386   -0.01315910   -0.01409630
     atom   20 type  2   force =    -0.00085913   -0.01709534    0.26385906
     atom   21 type  1   force =     0.00147843    0.02592781    0.00449033
     atom   22 type  2   force =    -0.00687336    0.00637554   -0.25552929
     atom   23 type  2   force =     0.00790995   -0.01319621    0.26364263
     atom   24 type  1   force =     0.00238967    0.01800164   -0.00966088
     atom   25 type  2   force =    -0.00149005   -0.00636267   -0.25903954
     atom   26 type  2   force =     0.00282146   -0.01450045    0.26472500
     atom   27 type  1   force =    -0.00114692    0.00834143    0.00657888
     atom   28 type  2   force =    -0.00357511   -0.02579303   -0.27192331
     atom   29 type  2   force =     0.00575392   -0.00241134    0.26428584
     atom   30 type  1   force =    -0.00116329    0.01328241   -0.00999065
     atom   31 type  2   force =    -0.00230335   -0.00641702   -0.25391697
     atom   32 type  2   force =    -0.00412279   -0.01432814    0.27154715
     atom   33 type  1   force =    -0.00131570    0.00404290   -0.00362925
     atom   34 type  2   force =    -0.07782493    0.19306949    0.11848114
[...]
     atom   27 type  1   force =     0.00557805    0.00775650    0.00158427
     atom   28 type  2   force =    -0.00125601   -0.01430151   -0.27132255
     atom   29 type  2   force =     0.00079667   -0.01283495    0.27010339
     atom   30 type  1   force =     0.00011027   -0.00420676   -0.00930795
     atom   31 type  2   force =    -0.02297277    0.00397198   -0.25925278
     atom   32 type  2   force =     0.00190788   -0.01246541    0.26609330
     atom   33 type  1   force =     0.01940120    0.01153297   -0.00833063
     atom   34 type  2   force =     0.00599037    0.00615060    0.27231009
     atom   35 type  2   force =     0.00076183   -0.01319131    0.28395786
     atom   36 type  3   force =    -0.00186763   -0.00247591   -0.06373428
     The ionic contribution  to forces
     atom    1 type  1   force =    -0.20000432    0.73005848    2.74554451
     atom    2 type  2   force =    -0.12167624    0.06676542   39.01272560
     atom    3 type  2   force =     0.17812265   -0.05547707  -37.62793595
     atom    4 type  1   force =    -0.46486417    0.22125427    1.36130984
     atom    5 type  2   force =    -0.88534204    1.26066870   38.57826090
     atom    6 type  2   force =     0.12009991   -0.23461261  -37.90039781
     atom    7 type  1   force =    -3.58633254   -1.69176990    1.62458776
     atom    8 type  2   force =    -1.38172530    0.26044811   38.61825484
     atom    9 type  2   force =     0.16561804    0.08622785  -38.21079437
     atom   10 type  1   force =     0.10239393   -0.77863753    2.64123197
     atom   11 type  2   force =    -0.68269304   -1.66987452   38.47456701
     atom   12 type  2   force =     0.18027640    0.08938402  -38.04973556
     atom   13 type  1   force =     0.20895393    0.71749505    2.67050085
     atom   14 type  2   force =    -0.01798535   -0.17268037   38.65175443
     atom   15 type  2   force =     0.01056542   -0.09058849  -37.47608926
     atom   16 type  1   force =     0.07041438    4.12334538    2.69159762
     atom   17 type  2   force =     0.87583012    1.23131432   38.56963992
     atom   18 type  2   force =    -0.08136093   -0.25806898  -38.00228071
     atom   19 type  1   force =     3.58931222   -1.56358814    0.96116904
     atom   20 type  2   force =     0.05430065    0.07036563  -38.12044674
     atom   21 type  1   force =    -0.03168272   -0.86207121    1.17389631
     atom   22 type  2   force =     0.67512667   -1.68087007   38.32579186
     atom   23 type  2   force =    -0.13718429    0.10887740  -38.14502049
     atom   24 type  1   force =     0.00635197    0.14392791    2.35936987
     atom   25 type  2   force =     0.12977235    0.04500455   38.94246840
     atom   26 type  2   force =    -0.20222154   -0.04233469  -37.65546451
     atom   27 type  1   force =     0.38242990    0.17237550    0.83605941
     atom   28 type  2   force =     0.01479988    0.46645834   38.31004116
     atom   29 type  2   force =    -0.02744183   -0.18630423  -37.52637629
     atom   30 type  1   force =    -0.05188938    0.26783832    2.27363093
     atom   31 type  2   force =     1.40284976    0.25985880   38.53780480
     atom   32 type  2   force =    -0.21099139    0.09664240  -38.36340629
     atom   33 type  1   force =    -0.03269084   -0.73385594    2.08975780
     atom   34 type  2   force =    -0.04500253   -0.51908475   35.56533375
     atom   35 type  2   force =    -0.04320449    0.14328413  -36.65316159
     atom   36 type  3   force =     0.03707474   -0.02177607    8.71581095
     The local contribution  to forces
     atom    1 type  1   force =     0.20938498   -0.75938617   -2.74051030
     atom    2 type  2   force =     0.12004938   -0.05022757  -38.77770789
     atom    3 type  2   force =    -0.17400249    0.06536220   37.38252730
     atom    4 type  1   force =     0.47031392   -0.22900327   -1.36279895
     atom    5 type  2   force =     0.88104240   -1.23869412  -38.34237565
     atom    6 type  2   force =    -0.12391926    0.23944545   37.65790602
     atom    7 type  1   force =     3.62725733    1.69283318   -1.62103130
     atom    8 type  2   force =     1.36092581   -0.26451255  -38.38033461
     atom    9 type  2   force =    -0.16484367   -0.07498115   37.96631056
     atom   10 type  1   force =    -0.08412787    0.76641622   -2.63209107
     atom   11 type  2   force =     0.67117625    1.66216878  -38.24415393
     atom   12 type  2   force =    -0.17520093   -0.07724277   37.80884204
     atom   13 type  1   force =    -0.21684100   -0.74564684   -2.66647189
     atom   14 type  2   force =     0.01785287    0.18242061  -38.40680237
     atom   15 type  2   force =    -0.01030215    0.09974074   37.23445174
     atom   16 type  1   force =    -0.07056770   -4.17911708   -2.66284646
     atom   17 type  2   force =    -0.87221111   -1.20877022  -38.33406646
     atom   18 type  2   force =     0.08581403    0.26256115   37.76050970
     atom   19 type  1   force =    -3.63022396    1.56536857   -0.95733339
     atom   20 type  2   force =    -0.05382216   -0.06235444   37.87513800
     atom   21 type  1   force =     0.03092052    0.84060838   -1.17454798
     atom   22 type  2   force =    -0.66483340    1.67328649  -38.09567705
     atom   23 type  2   force =     0.13230815   -0.09621536   37.90406727
     atom   24 type  1   force =    -0.00598003   -0.16443111   -2.35953983
     atom   25 type  2   force =    -0.12815035   -0.02871494  -38.70760120
     atom   26 type  2   force =     0.19838032    0.05263657   37.40977417
     atom   27 type  1   force =    -0.38825173   -0.18064133   -0.83730682
     atom   28 type  2   force =    -0.01427714   -0.45217494  -38.06115557
     atom   29 type  2   force =     0.02701671    0.19834776   37.27762313
     atom   30 type  1   force =     0.05158020   -0.26404883   -2.26491107
     atom   31 type  2   force =    -1.38123870   -0.26413340  -38.29995557
     atom   32 type  2   force =     0.21017681   -0.08532447   38.11940802
     atom   33 type  1   force =     0.01418502    0.72267302   -2.08131569
     atom   34 type  2   force =     0.03912408    0.51338116  -35.82827908
     atom   35 type  2   force =     0.04239167   -0.12981856   36.39135051
     atom   36 type  3   force =    -0.03622889    0.02421237   -8.65102232
     The core correction contribution to forces
     atom    1 type  1   force =     0.00000000    0.00000000    0.00000000
     atom    2 type  2   force =    -0.00021932    0.00111871    0.02022516
     atom    3 type  2   force =     0.00017498    0.00064368   -0.02101926
     atom    4 type  1   force =     0.00000000    0.00000000    0.00000000
     atom    5 type  2   force =    -0.00044891    0.00111181    0.02038401
     atom    6 type  2   force =    -0.00019983   -0.00007420   -0.02068327
     atom    7 type  1   force =     0.00000000    0.00000000    0.00000000
     atom    8 type  2   force =    -0.00141074   -0.00013289    0.02048016
     atom    9 type  2   force =     0.00023415    0.00053001   -0.02096864
     atom   10 type  1   force =     0.00000000    0.00000000    0.00000000
     atom   11 type  2   force =    -0.00079308   -0.00081161    0.02004589
     atom   12 type  2   force =     0.00039444    0.00058269   -0.02075776
     atom   13 type  1   force =     0.00000000    0.00000000    0.00000000
     atom   14 type  2   force =    -0.00004234    0.00010451    0.02072332
     atom   15 type  2   force =    -0.00001656    0.00045926   -0.02072233
     atom   16 type  1   force =     0.00000000    0.00000000    0.00000000
     atom   17 type  2   force =     0.00040786    0.00118710    0.02038683
     atom   18 type  2   force =     0.00024231   -0.00014291   -0.02070717
     atom   19 type  1   force =     0.00000000    0.00000000    0.00000000
     atom   20 type  2   force =     0.00010621    0.00036154   -0.02115078
     atom   21 type  1   force =     0.00000000    0.00000000    0.00000000
     atom   22 type  2   force =     0.00077962   -0.00088658    0.01999454
     atom   23 type  2   force =    -0.00035825    0.00062035   -0.02077428
     atom   24 type  1   force =     0.00000000    0.00000000    0.00000000
     atom   25 type  2   force =     0.00019207    0.00107348    0.02019564
     atom   26 type  2   force =    -0.00022675    0.00067188   -0.02099409
     atom   27 type  1   force =     0.00000000    0.00000000    0.00000000
     atom   28 type  2   force =     0.00008707    0.00097671    0.02090632
     atom   29 type  2   force =    -0.00007590    0.00048708   -0.02089603
     atom   30 type  1   force =     0.00000000    0.00000000    0.00000000
     atom   31 type  2   force =     0.00148979   -0.00014368    0.02045476
     atom   32 type  2   force =    -0.00032156    0.00054516   -0.02096847
     atom   33 type  1   force =     0.00000000    0.00000000    0.00000000
     atom   34 type  2   force =    -0.00045244   -0.00057304   -0.01123771
     atom   35 type  2   force =    -0.00008674    0.00065055   -0.02145309
     atom   36 type  3   force =     0.00000000    0.00000000    0.00000000
     The Hubbard contrib.    to forces
     atom    1 type  1   force =     0.00000000    0.00000000    0.00000000
     atom    2 type  2   force =     0.00000000    0.00000000    0.00000000
     atom    3 type  2   force =     0.00000000    0.00000000    0.00000000
     atom    4 type  1   force =     0.00000000    0.00000000    0.00000000
     atom    5 type  2   force =     0.00000000    0.00000000    0.00000000
     atom    6 type  2   force =     0.00000000    0.00000000    0.00000000
     atom    7 type  1   force =     0.00000000    0.00000000    0.00000000
     atom    8 type  2   force =     0.00000000    0.00000000    0.00000000
     atom    9 type  2   force =     0.00000000    0.00000000    0.00000000
     atom   10 type  1   force =     0.00000000    0.00000000    0.00000000
     atom   11 type  2   force =     0.00000000    0.00000000    0.00000000
     atom   12 type  2   force =     0.00000000    0.00000000    0.00000000
     atom   13 type  1   force =     0.00000000    0.00000000    0.00000000
     atom   14 type  2   force =     0.00000000    0.00000000    0.00000000
     atom   15 type  2   force =     0.00000000    0.00000000    0.00000000
     atom   16 type  1   force =     0.00000000    0.00000000    0.00000000
     atom   17 type  2   force =     0.00000000    0.00000000    0.00000000
     atom   18 type  2   force =     0.00000000    0.00000000    0.00000000
     atom   19 type  1   force =     0.00000000    0.00000000    0.00000000
     atom   20 type  2   force =     0.00000000    0.00000000    0.00000000
     atom   21 type  1   force =     0.00000000    0.00000000    0.00000000
     atom   22 type  2   force =     0.00000000    0.00000000    0.00000000
     atom   23 type  2   force =     0.00000000    0.00000000    0.00000000
     atom   24 type  1   force =     0.00000000    0.00000000    0.00000000
     atom   25 type  2   force =     0.00000000    0.00000000    0.00000000
     atom   26 type  2   force =     0.00000000    0.00000000    0.00000000
     atom   27 type  1   force =     0.00000000    0.00000000    0.00000000
     atom   28 type  2   force =     0.00000000    0.00000000    0.00000000
     atom   29 type  2   force =     0.00000000    0.00000000    0.00000000
     atom   30 type  1   force =     0.00000000    0.00000000    0.00000000
     atom   31 type  2   force =     0.00000000    0.00000000    0.00000000
     atom   32 type  2   force =     0.00000000    0.00000000    0.00000000
     atom   33 type  1   force =     0.00000000    0.00000000    0.00000000
     atom   34 type  2   force =     0.00000000    0.00000000    0.00000000
     atom   35 type  2   force =     0.00000000    0.00000000    0.00000000
     atom   36 type  3   force =     0.00000000    0.00000000    0.00000000
     The SCF correction term to forces
     atom    1 type  1   force =    -0.00001198    0.00001170   -0.00004071
     atom    2 type  2   force =    -0.00000495    0.00000221   -0.00001834
     atom    3 type  2   force =    -0.00000061    0.00000226   -0.00001316
     atom    4 type  1   force =    -0.00002626    0.00000720    0.00000753
     atom    5 type  2   force =    -0.00000135    0.00001557    0.00000094
     atom    6 type  2   force =    -0.00000134   -0.00001024   -0.00000210
     atom    7 type  1   force =     0.00000204    0.00002467    0.00004303
     atom    8 type  2   force =    -0.00003077    0.00000705    0.00000332
     atom    9 type  2   force =    -0.00002606    0.00000429    0.00002266
     atom   10 type  1   force =    -0.00004903   -0.00001257   -0.00003185
     atom   11 type  2   force =    -0.00000178   -0.00003501   -0.00002688
     atom   12 type  2   force =    -0.00000427   -0.00000735    0.00002330
     atom   13 type  1   force =     0.00001172    0.00000321   -0.00004909
     atom   14 type  2   force =     0.00000189    0.00000050   -0.00001163
     atom   15 type  2   force =    -0.00000549    0.00000019   -0.00001238
     atom   16 type  1   force =     0.00003479   -0.00001387    0.00001047
     atom   17 type  2   force =     0.00000302    0.00000222   -0.00000401
     atom   18 type  2   force =    -0.00000076   -0.00002182   -0.00000259
     atom   19 type  1   force =     0.00006675    0.00001348    0.00000945
     atom   20 type  2   force =     0.00003355    0.00000484    0.00001103
     atom   21 type  1   force =     0.00004062    0.00000096   -0.00002300
     atom   22 type  2   force =     0.00001853    0.00000690   -0.00000383
     atom   23 type  2   force =     0.00001001    0.00003319   -0.00001359
     atom   24 type  1   force =     0.00000283    0.00000978   -0.00004590
     atom   25 type  2   force =     0.00000798    0.00000876   -0.00002929
     atom   26 type  2   force =     0.00000356    0.00000039   -0.00001102
     atom   27 type  1   force =     0.00000207   -0.00005898    0.00000822
     atom   28 type  2   force =    -0.00000342    0.00001061   -0.00000118
     atom   29 type  2   force =     0.00000080   -0.00001918   -0.00000233
     atom   30 type  1   force =    -0.00006505   -0.00001156    0.00001417
     atom   31 type  2   force =    -0.00001437   -0.00001908    0.00002387
     atom   32 type  2   force =    -0.00001012   -0.00001715   -0.00001452
     atom   33 type  1   force =     0.00000740    0.00005260   -0.00004561
     atom   34 type  2   force =    -0.00001166   -0.00000190   -0.00000290
     atom   35 type  2   force =    -0.00000582    0.00002205   -0.00000717
     atom   36 type  3   force =    -0.00000177   -0.00000242    0.00000146

     Total force =     0.006550     Total SCF correction =     0.000221
     Energy error            =      9.2E-05 Ry
     Gradient error          =      1.9E-03 Ry/Bohr

     bfgs converged in  34 scf cycles and  33 bfgs steps
     (criteria: energy <  1.0E-04 Ry, force <  1.0E-02 Ry/Bohr)

     End of BFGS Geometry Optimization

     Final energy             =   -2205.5899286243 Ry

     File ./MoS2-V-O.bfgs deleted, as requested
Begin final coordinates

ATOMIC_POSITIONS (angstrom)
Mo            6.5478959328        1.7885844363        2.7693798241
S             8.1101501311        0.8854938485        4.3825250915
S             8.1197714463        0.8723816292        1.1749609529
Mo            8.1147827043        4.5083891674        2.7323689546
S             6.5101384096        3.6828410446        4.3301467639
S             6.5453145382        3.5914101532        1.1268095226
Mo            6.5563864850        7.2058652922        2.6582919797
S             8.0640814812        6.3081038473        4.3312515957
S             8.1535089567        6.3181203017        1.1049205121
Mo            8.0908259609        9.9860234632        2.7741055227
S             6.5112222891        8.9643358198        4.3253558567
S             6.5790247354        9.0690672665        1.1201419159
Mo            3.4189108418        1.7876211676        2.7671701867
S             4.9821202330        0.8392701906        4.3501272519
S             4.9845734651        0.8700884046        1.1745554511
Mo            4.9831209413        4.5596907798        2.6772216343
S             3.4557769617        3.6838363456        4.3281668564
S             3.4268659982        3.5887905547        1.1194644555
Mo            3.4195161139        7.1983470505        2.6460046635
S             4.9940246640        6.3402387647        1.0620535053
Mo            4.9892834902        9.9278870662        2.7327201179
S             3.4673301265        8.9537933936        4.3145219021
S             3.4027543526        9.0672568431        1.1104219118
Mo            0.2558048218        1.7545229234        2.7743251469
S             1.8587181613        0.8775803547        4.3775289448
S             1.8468359842        0.8725969874        1.1723890936
Mo            1.8576071476        4.5080349226        2.7227277883
S             0.2621904567        3.6128567889        4.3289953271
S             0.2531854653        3.5720042846        1.1603137006
Mo            0.2606346590        7.1793704553        2.7496540007
S             1.9169099125        6.3053570688        4.3222157568
S             1.8159535614        6.3181529651        1.0940986341
Mo            1.8873603163        9.9815314930        2.7638453520
S             0.2675420935        9.0498609132        4.2490918088
S             0.2574468013        9.0640684092        1.2138643541
H             0.3047773724        9.1021497912        5.6130252003
End final coordinates



     Writing all to output data dir ./MoS2-V-O.save/
 
     init_run     :      2.41s CPU      2.67s WALL (       1 calls)
     electrons    :   3411.94s CPU   3794.71s WALL (      34 calls)
     update_pot   :     46.26s CPU     48.58s WALL (      33 calls)
     forces       :     44.58s CPU     51.07s WALL (      34 calls)

     Called by init_run:
     wfcinit      :      0.40s CPU      0.44s WALL (       1 calls)
     potinit      :      1.33s CPU      1.45s WALL (       1 calls)
     hinit0       :      0.17s CPU      0.19s WALL (       1 calls)

     Called by electrons:
     c_bands      :    377.80s CPU    383.47s WALL (     317 calls)
     sum_band     :     90.85s CPU    112.51s WALL (     317 calls)
     v_of_rho     :    128.94s CPU    155.37s WALL (     337 calls)
     newd         :     42.97s CPU     63.15s WALL (     337 calls)
     mix_rho      :   2784.43s CPU   3092.70s WALL (     317 calls)

     Called by c_bands:
     init_us_2    :      6.67s CPU      7.25s WALL (     635 calls)
     init_us_2:cp :      6.66s CPU      7.25s WALL (     635 calls)
     regterg      :    354.25s CPU    359.27s WALL (     317 calls)

     Called by *egterg:
     rdiaghg      :     29.37s CPU     29.72s WALL (    1711 calls)
     h_psi        :    204.20s CPU    206.02s WALL (    1759 calls)
     s_psi        :     26.60s CPU     26.74s WALL (    1759 calls)
     g_psi        :      1.28s CPU      1.30s WALL (    1441 calls)

     Called by h_psi:
     h_psi:calbec :     29.42s CPU     29.58s WALL (    1759 calls)
     vloc_psi     :    145.79s CPU    147.26s WALL (    1759 calls)
     add_vuspsi   :     26.10s CPU     26.27s WALL (    1759 calls)

     General routines
     calbec       :     41.91s CPU     42.12s WALL (    2212 calls)
     fft          :     83.02s CPU     98.45s WALL (   22542 calls)
     ffts         :   1252.58s CPU   1550.52s WALL (  680339 calls)
     fftw         :    125.57s CPU    126.69s WALL (  187565 calls)
     interpolate  :      2.43s CPU      2.86s WALL (     337 calls)
 
     Parallel routines
 
     PWSCF        :  58m30.95s CPU      1h 5m WALL

 
   This run was terminated on:   9:52:58   4Nov2023            

=------------------------------------------------------------------------------=
   JOB DONE.
=------------------------------------------------------------------------------=
