
     Program PWSCF v.7.2 starts on  4Nov2023 at  0:16:24 

     This program is part of the open-source Quantum ESPRESSO suite
     for quantum simulation of materials; please cite
         "P. Giannozzi et al., J. Phys.:Condens. Matter 21 395502 (2009);
         "P. Giannozzi et al., J. Phys.:Condens. Matter 29 465901 (2017);
         "P. Giannozzi et al., J. Chem. Phys. 152 154105 (2020);
          URL http://www.quantum-espresso.org", 
     in publications or presentations arising from this work. More details at
     http://www.quantum-espresso.org/quote

     Parallel version (MPI & OpenMP), running on      48 processor cores
     Number of MPI processes:                48
     Threads/MPI process:                     1

     MPI processes distributed on     1 nodes
     47418 MiB available memory on the printing compute node when the environment starts
 
     Waiting for input...
     Reading input from standard input
Warning: card &CELL ignored
Warning: card CELL_DYNAMICS = 'BFGS', ignored
Warning: card CELL_DOFREE = '2DXY' ignored
Warning: card / ignored

     Current dimensions of program PWSCF are:
     Max number of different atomic species (ntypx) = 10
     Max number of k-points (npk) =  40000
     Max angular momentum in pseudopotentials (lmaxx) =  4

     IMPORTANT: XC functional enforced from input :
     Exchange-correlation= RVV10
                           (   1   4  13   4  26   0   0)
     Any further DFT definition will be discarded
     Please, verify this is what you really want


     gamma-point specific algorithms are used
     signal trapping enabled: kill the code with -SIGUSR1 to stop cleanly the simulation 
 
     R & G space division:  proc/nbgrp/npool/nimage =      48
     Subspace diagonalization in iterative solution of the eigenvalue problem:
     one sub-group per band group will be used
     scalapack distributed-memory algorithm (size of sub-group:  2*  2 procs)

 
     Parallelization info
     --------------------
     sticks:   dense  smooth     PW     G-vecs:    dense   smooth      PW
     Min         243     194     47                49060    35090    4376
     Max         246     196     50                49086    35128    4410
     Sum       11735    9389   2349              2355467  1685513  210763
 
     Using Slab Decomposition
 


     bravais-lattice index     =            0
     lattice parameter (alat)  =      17.8707  a.u.
     unit-cell volume          =   17436.2743 (a.u.)^3
     number of atoms/cell      =           36
     number of atomic types    =            3
     number of electrons       =       307.00
     number of Kohn-Sham states=          185
     kinetic-energy cutoff     =      80.0000  Ry
     charge density cutoff     =     400.0000  Ry
     scf convergence threshold =      1.0E-06
     mixing beta               =       0.7000
     number of iterations used =            8  local-TF  mixing
     energy convergence thresh.=      1.0E-04
     force convergence thresh. =      1.0E-02
     Exchange-correlation= RVV10
                           (   1   4  13   4  26   0   0)
     nstep                     =          200


     celldm(1)=  17.870686  celldm(2)=   0.000000  celldm(3)=   0.000000
     celldm(4)=   0.000000  celldm(5)=   0.000000  celldm(6)=   0.000000

     crystal axes: (cart. coord. in units of alat)
               a(1) = (   1.000000   0.000000   0.000000 )  
               a(2) = (   0.000000   1.155671   0.000000 )  
               a(3) = (   0.000000   0.000000   2.643601 )  

     reciprocal axes: (cart. coord. in units 2 pi/alat)
               b(1) = (  1.000000  0.000000  0.000000 )  
               b(2) = (  0.000000  0.865298  0.000000 )  
               b(3) = (  0.000000  0.000000  0.378272 )  


     PseudoPot. # 1 for Mo read from file:
     ../pseudo/Mo_ONCV_PBE-1.0.oncvpsp.upf
     MD5 check sum: 1b5d28e075c9ccadda658a603575cd1f
     Pseudo is Norm-conserving, Zval = 14.0
     Generated using ONCVPSP code by D. R. Hamann
     Using radial grid of 1526 points,  6 beta functions with: 
                l(1) =   0
                l(2) =   0
                l(3) =   1
                l(4) =   1
                l(5) =   2
                l(6) =   2

     PseudoPot. # 2 for S  read from file:
     ../pseudo/s_pbe_v1.4.uspp.F.UPF
     MD5 check sum: 88d86576ff6df21479756cfb9bdac1df
     Pseudo is Ultrasoft + core correction, Zval =  6.0
     Generated by new atomic code, or converted to UPF format
     Using radial grid of  907 points,  6 beta functions with: 
                l(1) =   0
                l(2) =   0
                l(3) =   1
                l(4) =   1
                l(5) =   2
                l(6) =   2
     Q(r) pseudized with  8 coefficients,  rinner =    1.300   1.300   1.300
                                                       1.300   1.300

     PseudoPot. # 3 for H  read from file:
     ../pseudo/H_ONCV_PBE-1.0.oncvpsp.upf
     MD5 check sum: 1790becc920ee074925cf490c71280fe
     Pseudo is Norm-conserving, Zval =  1.0
     Generated using ONCVPSP code by D. R. Hamann
     Using radial grid of 1166 points,  2 beta functions with: 
                l(1) =   0
                l(2) =   0

     atomic species   valence    mass     pseudopotential
        Mo            14.00    95.94000     Mo( 1.00)
        S              6.00    32.06500     S ( 1.00)
        H              1.00     1.00794     H ( 1.00)

     No symmetry found



   Cartesian axes

     site n.     atom                  positions (alat units)
         1           Mo  tau(   1) = (   0.6952221   0.1890506   0.2985846  )
         2           S   tau(   2) = (   0.8646417   0.0856217   0.4689279  )
         3           S   tau(   3) = (   0.8663890   0.0857843   0.1351291  )
         4           Mo  tau(   4) = (   0.8560186   0.4753274   0.2873942  )
         5           S   tau(   5) = (   0.6873294   0.3936244   0.4596353  )
         6           S   tau(   6) = (   0.6929804   0.3713468   0.1185692  )
         7           Mo  tau(   7) = (   0.6862796   0.7633098   0.2825370  )
         8           S   tau(   8) = (   0.8545980   0.6708292   0.4486168  )
         9           S   tau(   9) = (   0.8545123   0.6666874   0.1146125  )
        10           Mo  tau(  10) = (   0.8629403   1.0471007   0.3006803  )
        11           S   tau(  11) = (   0.6868280   0.9456650   0.4634891  )
        12           S   tau(  12) = (   0.6998113   0.9568511   0.1205389  )
        13           Mo  tau(  13) = (   0.3618216   0.1847309   0.2935964  )
        14           S   tau(  14) = (   0.5260962   0.0863870   0.4600448  )
        15           S   tau(  15) = (   0.5348379   0.0894875   0.1297123  )
        16           Mo  tau(  16) = (   0.5265817   0.4772436   0.2784130  )
        17           S   tau(  17) = (   0.3624753   0.3882513   0.4525556  )
        18           S   tau(  18) = (   0.3635411   0.3752055   0.1119148  )
        19           Mo  tau(  19) = (   0.3652268   0.7630864   0.2781795  )
        20           S   tau(  20) = (   0.5269494   0.6690381   0.1096838  )
        21           Mo  tau(  21) = (   0.5300192   1.0470394   0.2900995  )
        22           S   tau(  22) = (   0.3670346   0.9457522   0.4574073  )
        23           S   tau(  23) = (   0.3604225   0.9585725   0.1159032  )
        24           Mo  tau(  24) = (   0.0313099   0.1847895   0.3013130  )
        25           S   tau(  25) = (   0.1956761   0.0838230   0.4650863  )
        26           S   tau(  26) = (   0.1967693   0.0903508   0.1278874  )
        27           Mo  tau(  27) = (   0.1967578   0.4753919   0.2813011  )
        28           S   tau(  28) = (   0.0287851   0.3864324   0.4586755  )
        29           S   tau(  29) = (   0.0244514   0.3729871   0.1239344  )
        30           Mo  tau(  30) = (   0.0286728   0.7631204   0.2856894  )
        31           S   tau(  31) = (   0.2011512   0.6675435   0.4465001  )
        32           S   tau(  32) = (   0.1969214   0.6672839   0.1104564  )
        33           Mo  tau(  33) = (   0.1950294   1.0511147   0.2932237  )
        34           S   tau(  34) = (   0.0312912   0.9612169   0.4667423  )
        35           S   tau(  35) = (   0.0292670   0.9563028   0.1216485  )
        36           H   tau(  36) = (   0.2222222   0.3852236   0.5650415  )

     number of k points=     1  Gaussian smearing, width (Ry)=  0.0100
                       cart. coord. in units 2pi/alat
        k(    1) = (   0.0000000   0.0000000   0.0000000), wk =   2.0000000

     Dense  grid:  1177734 G-vectors     FFT dimensions: ( 120, 135, 320)

     Smooth grid:   842757 G-vectors     FFT dimensions: ( 108, 120, 270)

     Estimated max dynamical RAM per process >     146.59 MB

     Estimated total dynamical RAM >       6.87 GB

     Initial potential from superposition of free atoms

     starting charge     306.9873, renormalised to     307.0000

     negative rho (up, down):  1.408E-04 0.000E+00


---------------------------------------------------------------------------------
Carrying out rVV10 run using the following parameters:
Nqs =      20    Nr_points =    1024   r_max =   100.000
b_value =  6.30000    beta =  0.00901
     q_mesh =  0.00010000  0.00030000  0.00058939  0.00100810
               0.00161396  0.00249058  0.00375900  0.00559430
               0.00824984  0.01209221  0.01765183  0.02569619
               0.03733578  0.05417739  0.07854596  0.11380545
               0.16482331  0.23864234  0.34545298  0.50000000

Gradients computed in Reciprocal space

---------------------------------------------------------------------------------


     Starting wfcs are  213 randomized atomic wfcs

     total cpu time spent up to now is        2.8 secs

     Self-consistent Calculation

     iteration #  1     ecut=    80.00 Ry     beta= 0.70
     Davidson diagonalization with overlap
     ethr =  1.00E-02,  avg # of iterations =  2.0

     Threshold (ethr) on eigenvalues was too large:
     Diagonalizing with lowered threshold

     Davidson diagonalization with overlap
     ethr =  3.67E-04,  avg # of iterations =  4.0

     negative rho (up, down):  2.672E-08 0.000E+00

     total cpu time spent up to now is       20.9 secs

     total energy              =   -2205.60389360 Ry
     estimated scf accuracy    <       1.41651657 Ry

     iteration #  2     ecut=    80.00 Ry     beta= 0.70
     Davidson diagonalization with overlap
     ethr =  4.61E-04,  avg # of iterations =  2.0

     total cpu time spent up to now is       23.3 secs

     total energy              =   -2205.43196018 Ry
     estimated scf accuracy    <       0.57207809 Ry

     iteration #  3     ecut=    80.00 Ry     beta= 0.70
     Davidson diagonalization with overlap
     ethr =  1.86E-04,  avg # of iterations =  5.0

     total cpu time spent up to now is       25.9 secs

     total energy              =   -2205.53438569 Ry
     estimated scf accuracy    <       0.04844697 Ry

     iteration #  4     ecut=    80.00 Ry     beta= 0.70
     Davidson diagonalization with overlap
     c_bands:  1 eigenvalues not converged
     ethr =  1.58E-05,  avg # of iterations = 20.0

     total cpu time spent up to now is       29.4 secs

     total energy              =   -2205.53537063 Ry
     estimated scf accuracy    <       0.02521768 Ry

     iteration #  5     ecut=    80.00 Ry     beta= 0.70
     Davidson diagonalization with overlap
     ethr =  8.21E-06,  avg # of iterations =  2.0

     total cpu time spent up to now is       31.6 secs

     total energy              =   -2205.53522099 Ry
     estimated scf accuracy    <       0.01859363 Ry

     iteration #  6     ecut=    80.00 Ry     beta= 0.70
     Davidson diagonalization with overlap
     ethr =  6.06E-06,  avg # of iterations =  2.0

     total cpu time spent up to now is       33.7 secs

     total energy              =   -2205.53393600 Ry
     estimated scf accuracy    <       0.01151674 Ry

     iteration #  7     ecut=    80.00 Ry     beta= 0.70
     Davidson diagonalization with overlap
     ethr =  3.75E-06,  avg # of iterations =  1.0

     negative rho (up, down):  5.550E-05 0.000E+00

     total cpu time spent up to now is       38.8 secs

     total energy              =   -2205.53261305 Ry
     estimated scf accuracy    <       0.00616319 Ry

     iteration #  8     ecut=    80.00 Ry     beta= 0.70
     Davidson diagonalization with overlap
     ethr =  2.01E-06,  avg # of iterations =  2.0

     negative rho (up, down):  1.172E-02 0.000E+00

     total cpu time spent up to now is       42.7 secs

     total energy              =   -2205.53216198 Ry
     estimated scf accuracy    <       0.00323237 Ry

     iteration #  9     ecut=    80.00 Ry     beta= 0.70
     Davidson diagonalization with overlap
     ethr =  1.05E-06,  avg # of iterations =  2.0

     negative rho (up, down):  3.398E-02 0.000E+00

     total cpu time spent up to now is       46.8 secs

     total energy              =   -2205.53224612 Ry
     estimated scf accuracy    <       0.00177413 Ry

     iteration # 10     ecut=    80.00 Ry     beta= 0.70
     Davidson diagonalization with overlap
     ethr =  5.78E-07,  avg # of iterations =  2.0

     negative rho (up, down):  2.513E-02 0.000E+00

     total cpu time spent up to now is       51.3 secs

     total energy              =   -2205.53228328 Ry
     estimated scf accuracy    <       0.00054100 Ry

     iteration # 11     ecut=    80.00 Ry     beta= 0.70
     Davidson diagonalization with overlap
     ethr =  1.76E-07,  avg # of iterations =  4.0

     negative rho (up, down):  9.620E-03 0.000E+00

     total cpu time spent up to now is       57.8 secs

     total energy              =   -2205.53233737 Ry
     estimated scf accuracy    <       0.00009667 Ry

     iteration # 12     ecut=    80.00 Ry     beta= 0.70
     Davidson diagonalization with overlap
     ethr =  3.15E-08,  avg # of iterations = 10.0

     negative rho (up, down):  2.858E-03 0.000E+00

     total cpu time spent up to now is       63.6 secs

     total energy              =   -2205.53237713 Ry
     estimated scf accuracy    <       0.00001600 Ry

     iteration # 13     ecut=    80.00 Ry     beta= 0.70
     Davidson diagonalization with overlap
     ethr =  5.21E-09,  avg # of iterations =  5.0

     negative rho (up, down):  2.809E-04 0.000E+00

     total cpu time spent up to now is       75.2 secs

     total energy              =   -2205.53238157 Ry
     estimated scf accuracy    <       0.00000266 Ry

     iteration # 14     ecut=    80.00 Ry     beta= 0.70
     Davidson diagonalization with overlap
     ethr =  8.65E-10,  avg # of iterations =  4.0

     negative rho (up, down):  1.372E-04 0.000E+00

     total cpu time spent up to now is       77.4 secs

     End of self-consistent calculation

          k = 0.0000 0.0000 0.0000 (105382 PWs)   bands (ev):

   -62.8690 -62.8573 -62.8500 -62.8432 -62.8407 -62.8334 -62.8133 -62.7996
   -62.7839 -62.7762 -62.7170 -62.6477 -37.2177 -37.1490 -37.1393 -37.1352
   -37.1144 -37.0999 -37.0799 -37.0687 -37.0541 -37.0489 -37.0402 -37.0373
   -37.0309 -37.0227 -37.0163 -37.0047 -37.0008 -36.9987 -36.9916 -36.9865
   -36.9514 -36.9437 -36.9337 -36.9267 -36.9193 -36.9085 -36.8860 -36.8724
   -36.8632 -36.8435 -36.8340 -36.8259 -36.8048 -36.8001 -36.6918 -36.6480
   -16.0347 -15.4046 -15.1094 -15.0357 -14.9226 -14.8280 -14.6725 -14.4889
   -14.4613 -14.4029 -14.3820 -14.3382 -14.3104 -14.2878 -14.1897 -14.1514
   -14.1046 -14.0826 -14.0108 -13.9054 -13.8277 -13.8028 -13.7804  -8.2085
    -7.6539  -7.4375  -7.2997  -7.2564  -7.2469  -7.1683  -7.1415  -6.9967
    -6.8442  -6.7937  -6.7444  -6.6674  -6.5547  -6.5065  -6.4428  -6.4186
    -6.2863  -6.2201  -6.0851  -5.9618  -5.9491  -5.8879  -5.8449  -5.8215
    -5.7379  -5.6980  -5.6918  -5.6468  -5.6090  -5.5644  -5.5401  -5.4589
    -5.4308  -5.3696  -5.1542  -5.1285  -5.0442  -4.9813  -4.9755  -4.9663
    -4.9226  -4.8210  -4.6916  -4.5113  -4.4039  -4.3308  -4.2995  -4.2427
    -4.1949  -4.0601  -4.0205  -3.8369  -3.8152  -3.7699  -3.7268  -3.7256
    -3.6918  -3.6055  -3.5401  -3.5154  -3.4850  -3.4478  -3.4341  -3.3723
    -3.3429  -3.1880  -3.1497  -2.8835  -2.8756  -2.7860  -2.7708  -2.7238
    -2.7076  -2.6499  -2.6323  -2.6076  -2.5820  -2.2767  -2.0815  -1.9864
    -1.8968  -1.0454  -0.7767  -0.5156  -0.1717  -0.1050  -0.0636  -0.0406
     0.0159   0.1515   0.2084   0.2307   0.2449   0.3058   0.3209   0.4137
     0.4775   0.5467   0.5681   0.6216   0.6618   0.7128   0.7251   0.7470
     0.7912   0.8021   0.8519   0.9264   0.9299   0.9769   1.0384   1.2915
     1.3638

     the Fermi energy is    -1.0460 ev

!    total energy              =   -2205.53238387 Ry
     estimated scf accuracy    <       0.00000037 Ry
     smearing contrib. (-TS)   =      -0.00575380 Ry
     internal energy E=F+TS    =   -2205.52663007 Ry

     The total energy is F=E-TS. E is the sum of the following terms:
     one-electron contribution =  -18047.19434275 Ry
     hartree contribution      =    9010.43222849 Ry
     xc contribution           =    -385.24654457 Ry
     ewald contribution        =    7216.48202877 Ry

     convergence has been achieved in  14 iterations

     negative rho (up, down):  1.372E-04 0.000E+00

     Forces acting on atoms (cartesian axes, Ry/au):

     atom    1 type  1   force =     0.01153210   -0.02332097    0.00482899
     atom    2 type  2   force =    -0.01587191    0.01668671    0.00168662
     atom    3 type  2   force =    -0.01291358    0.00839465   -0.00335588
     atom    4 type  1   force =     0.00210891    0.00556640   -0.00257273
     atom    5 type  2   force =     0.00009041   -0.00598469   -0.01110787
     atom    6 type  2   force =     0.00214592    0.00903658   -0.00087609
     atom    7 type  1   force =     0.00677467    0.00299511   -0.01410576
     atom    8 type  2   force =     0.00176220   -0.00290745    0.01894962
     atom    9 type  2   force =     0.01073593    0.00301442    0.01196707
     atom   10 type  1   force =    -0.01222776    0.01001043   -0.02833562
     atom   11 type  2   force =     0.00415295   -0.00255940   -0.00513351
     atom   12 type  2   force =    -0.00101302    0.00101561    0.00767221
     atom   13 type  1   force =     0.00166849    0.01093027    0.00065155
     atom   14 type  2   force =     0.00911537   -0.00272222    0.01273960
     atom   15 type  2   force =    -0.01013170    0.00197925   -0.00994166
     atom   16 type  1   force =     0.00526703    0.01913716   -0.00213279
     atom   17 type  2   force =    -0.04986273   -0.01445209    0.04546960
     atom   18 type  2   force =    -0.00329036   -0.00576135    0.01261626
     atom   19 type  1   force =     0.00759737   -0.02151694   -0.00713664
     atom   20 type  2   force =     0.00405815   -0.00490049    0.00294535
     atom   21 type  1   force =    -0.00166751    0.00611169   -0.00036631
     atom   22 type  2   force =    -0.00416533   -0.00154989   -0.00271560
     atom   23 type  2   force =    -0.00155168    0.00298987    0.01003646
     atom   24 type  1   force =    -0.00852193   -0.00132970   -0.01970081
     atom   25 type  2   force =     0.01660835    0.01957519    0.00847260
     atom   26 type  2   force =    -0.01012707   -0.00141160   -0.00569948
     atom   27 type  1   force =    -0.00363522    0.00511637   -0.01749845
     atom   28 type  2   force =     0.01304288   -0.00498371    0.00398043
     atom   29 type  2   force =     0.00352049    0.00074188   -0.00380141
     atom   30 type  1   force =    -0.00352544    0.00749626   -0.00480871
     atom   31 type  2   force =     0.00062585    0.00049407    0.01798147
     atom   32 type  2   force =    -0.00931262    0.00734308    0.00703878
     atom   33 type  1   force =     0.01415684   -0.00553277   -0.01026878
     atom   34 type  2   force =     0.00285217   -0.04389644   -0.01022931
     atom   35 type  2   force =    -0.00812933    0.00739888    0.01566816
     atom   36 type  3   force =     0.03813113   -0.00320415   -0.02291736
     The non-local contrib.  to forces
     atom    1 type  1   force =     0.00226193    0.02981555   -0.01196448
     atom    2 type  2   force =    -0.01303879    0.00549393   -0.27022765
     atom    3 type  2   force =    -0.01672566   -0.00218490    0.26965519
     atom    4 type  1   force =    -0.00079491    0.00051006    0.00389267
     atom    5 type  2   force =     0.01398621   -0.03561182   -0.24054844
     atom    6 type  2   force =    -0.00269483    0.01861436    0.26383231
     atom    7 type  1   force =    -0.02267391   -0.00476787   -0.01069608
     atom    8 type  2   force =     0.00492629   -0.00303440   -0.25247311
     atom    9 type  2   force =     0.01014425   -0.00969792    0.27825050
     atom   10 type  1   force =     0.00386971   -0.00006213   -0.00061555
     atom   11 type  2   force =     0.01385273    0.00724914   -0.25781875
     atom   12 type  2   force =    -0.01142854   -0.01714285    0.26276692
     atom   13 type  1   force =    -0.00074844    0.01660701   -0.00950826
     atom   14 type  2   force =     0.01269966   -0.00815535   -0.26115126
     atom   15 type  2   force =    -0.01240657   -0.00595254    0.26024889
     atom   16 type  1   force =    -0.01773807    0.03102569   -0.02358303
     atom   17 type  2   force =    -0.19820173   -0.02366613   -0.00948074
     atom   18 type  2   force =    -0.00595302   -0.00361102    0.27603386
     atom   19 type  1   force =     0.01767554    0.00379239   -0.01597541
     atom   20 type  2   force =    -0.00258812   -0.02357084    0.26625627
     atom   21 type  1   force =     0.00470554    0.02012068    0.00442728
     atom   22 type  2   force =    -0.00803124    0.00258048   -0.25902869
     atom   23 type  2   force =     0.00614114   -0.01591523    0.26847611
     atom   24 type  1   force =     0.00393798    0.01566073   -0.01040693
     atom   25 type  2   force =     0.01133732    0.01375216   -0.25538036
     atom   26 type  2   force =     0.00011303   -0.01096840    0.26486226
     atom   27 type  1   force =     0.00137481    0.01859348    0.01236276
     atom   28 type  2   force =     0.04087056   -0.03135078   -0.20325021
     atom   29 type  2   force =     0.00762866    0.00289580    0.26590314
     atom   30 type  1   force =    -0.00253076    0.01921119    0.01043625
     atom   31 type  2   force =    -0.00789993    0.00118967   -0.24606206
     atom   32 type  2   force =    -0.00393788   -0.01540409    0.27473113
     atom   33 type  1   force =    -0.00692322    0.00373714    0.00324784
     atom   34 type  2   force =    -0.00031345   -0.03839055   -0.27401284
     atom   35 type  2   force =    -0.00229060   -0.01163891    0.27129184
     atom   36 type  3   force =     0.01392614   -0.00013555   -0.01554595
     The ionic contribution  to forces
     atom    1 type  1   force =     0.41545532    0.12677619    5.63738834
     atom    2 type  2   force =    -0.73156012    0.31523847   39.27029867
     atom    3 type  2   force =    -0.18187000   -0.01446888  -36.09571695
     atom    4 type  1   force =    -0.07607466    0.65452208    0.52522370
     atom    5 type  2   force =    -0.92756420    1.49997028   38.72350762
     atom    6 type  2   force =     0.35190840   -0.50263010  -38.04880037
     atom    7 type  1   force =    -2.59861627   -2.68909164    2.56114031
     atom    8 type  2   force =    -1.05100783    0.11480231   37.37334877
     atom    9 type  2   force =     0.32568243   -0.00805002  -38.01381068
     atom   10 type  1   force =    -1.14111573   -0.36398067    5.67454149
     atom   11 type  2   force =    -0.55653431   -1.59950099   39.14814899
     atom   12 type  2   force =     0.44405734    0.69439330  -37.84020457
     atom   13 type  1   force =     0.68843579    0.66232719    2.48772430
     atom   14 type  2   force =     0.14960004   -0.11933886   38.49662072
     atom   15 type  2   force =     0.17919056   -0.09631720  -36.81997254
     atom   16 type  1   force =     0.20551327    4.04300688    0.27069163
     atom   17 type  2   force =     1.69333554    1.51905540   37.23641900
     atom   18 type  2   force =    -0.12696315   -0.64885410  -38.65784150
     atom   19 type  1   force =     2.79131882   -2.25714955    0.55878513
     atom   20 type  2   force =     0.24960420   -0.16619951  -38.49438464
     atom   21 type  1   force =     0.08993525   -0.00222866    1.16707103
     atom   22 type  2   force =     0.48274061   -1.70320608   38.42964111
     atom   23 type  2   force =    -0.07801507    0.66750970  -38.28833358
     atom   24 type  1   force =    -0.78899233    0.85864959    5.54416360
     atom   25 type  2   force =     0.62946109   -0.03320030   39.18070059
     atom   26 type  2   force =    -0.29304798    0.01255246  -37.38024273
     atom   27 type  1   force =    -0.05098485    0.68474559   -3.05351469
     atom   28 type  2   force =    -0.58908233    1.01043182   37.86405440
     atom   29 type  2   force =    -0.30863418   -0.43125595  -37.34779721
     atom   30 type  1   force =    -0.42782191   -0.72925488   -0.11094333
     atom   31 type  2   force =     1.20153801    0.28129620   37.20376156
     atom   32 type  2   force =    -0.48481150    0.04232587  -38.68167432
     atom   33 type  1   force =     0.78251286   -0.95060333    2.02658228
     atom   34 type  2   force =     0.20962529   -1.43902798   39.35556039
     atom   35 type  2   force =    -0.31118975    0.48002942  -37.81108705
     atom   36 type  3   force =    -0.16602865    0.08672595    7.90895056
     The local contribution  to forces
     atom    1 type  1   force =    -0.40619429   -0.17994211   -5.61990593
     atom    2 type  2   force =     0.72837056   -0.30378313  -39.01879832
     atom    3 type  2   force =     0.18491423    0.02500982   35.84377097
     atom    4 type  1   force =     0.07906274   -0.64943164   -0.53106658
     atom    5 type  2   force =     0.91453175   -1.47232911  -38.51356951
     atom    6 type  2   force =    -0.34739338    0.49449987   37.80512490
     atom    7 type  1   force =     2.62817528    2.69704998   -2.56399611
     atom    8 type  2   force =     1.04810664   -0.11513739  -37.12187886
     atom    9 type  2   force =    -0.32475384    0.02016818   37.76865298
     atom   10 type  1   force =     1.12505664    0.37395897   -5.70153683
     atom   11 type  2   force =     0.54753108    1.59042354  -38.91561562
     atom   12 type  2   force =    -0.43472260   -0.67761644   37.60602202
     atom   13 type  1   force =    -0.68600497   -0.66804951   -2.47679211
     atom   14 type  2   force =    -0.15256705    0.12489226  -38.24295044
     atom   15 type  2   force =    -0.17760566    0.10385187   36.57047797
     atom   16 type  1   force =    -0.18246338   -4.05503370   -0.24867959
     atom   17 type  2   force =    -1.55675228   -1.51114758  -37.18775899
     atom   18 type  2   force =     0.12949490    0.64718980   38.41569153
     atom   19 type  1   force =    -2.80159557    2.23203140   -0.54941144
     atom   20 type  2   force =    -0.24327433    0.18402404   38.25230513
     atom   21 type  1   force =    -0.09633365   -0.01184875   -1.17123372
     atom   22 type  2   force =    -0.47914773    1.69948934  -38.19359371
     atom   23 type  2   force =     0.07082880   -0.64997074   38.05099973
     atom   24 type  1   force =     0.77652445   -0.87573638   -5.55265370
     atom   25 type  2   force =    -0.62398691    0.03993587  -38.93694002
     atom   26 type  2   force =     0.28311754   -0.00366286   37.13080149
     atom   27 type  1   force =     0.04591303   -0.69810685    3.02426636
     atom   28 type  2   force =     0.56375175   -0.98615793  -37.67364095
     atom   29 type  2   force =     0.30512429    0.42976123   37.09896993
     atom   30 type  1   force =     0.42687445    0.71760073    0.09624114
     atom   31 type  2   force =    -1.19342279   -0.28220287  -36.95950374
     atom   32 type  2   force =     0.47954420   -0.02033465   38.43521261
     atom   33 type  1   force =    -0.76145989    0.94121069   -2.03942734
     atom   34 type  2   force =    -0.20682929    1.43236098  -39.11260369
     atom   35 type  2   force =     0.30544630   -0.46204574   37.57673936
     atom   36 type  3   force =     0.19023849   -0.08980381   -7.91627807
     The core correction contribution to forces
     atom    1 type  1   force =     0.00000000    0.00000000    0.00000000
     atom    2 type  2   force =     0.00037463   -0.00034970    0.02072052
     atom    3 type  2   force =     0.00075833   -0.00002226   -0.02087052
     atom    4 type  1   force =     0.00000000    0.00000000    0.00000000
     atom    5 type  2   force =    -0.00086087    0.00193412    0.01979036
     atom    6 type  2   force =     0.00030452   -0.00143881   -0.02089824
     atom    7 type  1   force =     0.00000000    0.00000000    0.00000000
     atom    8 type  2   force =    -0.00020621    0.00051556    0.02027507
     atom    9 type  2   force =    -0.00030907    0.00062980   -0.02104157
     atom   10 type  1   force =     0.00000000    0.00000000    0.00000000
     atom   11 type  2   force =    -0.00064591   -0.00066498    0.02050207
     atom   12 type  2   force =     0.00109348    0.00136835   -0.02078511
     atom   13 type  1   force =     0.00000000    0.00000000    0.00000000
     atom   14 type  2   force =    -0.00062375   -0.00014689    0.02054587
     atom   15 type  2   force =     0.00069524    0.00035519   -0.02054467
     atom   16 type  1   force =     0.00000000    0.00000000    0.00000000
     atom   17 type  2   force =     0.01173031    0.00124879    0.00672206
     atom   18 type  2   force =     0.00015820   -0.00045767   -0.02115187
     atom   19 type  1   force =     0.00000000    0.00000000    0.00000000
     atom   20 type  2   force =     0.00027244    0.00089785   -0.02120268
     atom   21 type  1   force =     0.00000000    0.00000000    0.00000000
     atom   22 type  2   force =     0.00025306   -0.00041815    0.02053874
     atom   23 type  2   force =    -0.00051119    0.00129814   -0.02093204
     atom   24 type  1   force =     0.00000000    0.00000000    0.00000000
     atom   25 type  2   force =    -0.00022267   -0.00094776    0.02040041
     atom   26 type  2   force =    -0.00030637    0.00060241   -0.02091148
     atom   27 type  1   force =     0.00000000    0.00000000    0.00000000
     atom   28 type  2   force =    -0.00247131    0.00207139    0.01717507
     atom   29 type  2   force =    -0.00061383   -0.00061582   -0.02071426
     atom   30 type  1   force =     0.00000000    0.00000000    0.00000000
     atom   31 type  2   force =     0.00040888    0.00025607    0.02005961
     atom   32 type  2   force =    -0.00008557    0.00083429   -0.02108548
     atom   33 type  1   force =     0.00000000    0.00000000    0.00000000
     atom   34 type  2   force =     0.00034019    0.00119460    0.02115488
     atom   35 type  2   force =    -0.00009856    0.00102154   -0.02110113
     atom   36 type  3   force =     0.00000000    0.00000000    0.00000000
     The Hubbard contrib.    to forces
     atom    1 type  1   force =     0.00000000    0.00000000    0.00000000
     atom    2 type  2   force =     0.00000000    0.00000000    0.00000000
     atom    3 type  2   force =     0.00000000    0.00000000    0.00000000
     atom    4 type  1   force =     0.00000000    0.00000000    0.00000000
     atom    5 type  2   force =     0.00000000    0.00000000    0.00000000
     atom    6 type  2   force =     0.00000000    0.00000000    0.00000000
     atom    7 type  1   force =     0.00000000    0.00000000    0.00000000
     atom    8 type  2   force =     0.00000000    0.00000000    0.00000000
     atom    9 type  2   force =     0.00000000    0.00000000    0.00000000
     atom   10 type  1   force =     0.00000000    0.00000000    0.00000000
     atom   11 type  2   force =     0.00000000    0.00000000    0.00000000
     atom   12 type  2   force =     0.00000000    0.00000000    0.00000000
     atom   13 type  1   force =     0.00000000    0.00000000    0.00000000
     atom   14 type  2   force =     0.00000000    0.00000000    0.00000000
     atom   15 type  2   force =     0.00000000    0.00000000    0.00000000
     atom   16 type  1   force =     0.00000000    0.00000000    0.00000000
     atom   17 type  2   force =     0.00000000    0.00000000    0.00000000
     atom   18 type  2   force =     0.00000000    0.00000000    0.00000000
     atom   19 type  1   force =     0.00000000    0.00000000    0.00000000
     atom   20 type  2   force =     0.00000000    0.00000000    0.00000000
     atom   21 type  1   force =     0.00000000    0.00000000    0.00000000
     atom   22 type  2   force =     0.00000000    0.00000000    0.00000000
     atom   23 type  2   force =     0.00000000    0.00000000    0.00000000
     atom   24 type  1   force =     0.00000000    0.00000000    0.00000000
     atom   25 type  2   force =     0.00000000    0.00000000    0.00000000
     atom   26 type  2   force =     0.00000000    0.00000000    0.00000000
     atom   27 type  1   force =     0.00000000    0.00000000    0.00000000
     atom   28 type  2   force =     0.00000000    0.00000000    0.00000000
     atom   29 type  2   force =     0.00000000    0.00000000    0.00000000
     atom   30 type  1   force =     0.00000000    0.00000000    0.00000000
     atom   31 type  2   force =     0.00000000    0.00000000    0.00000000
     atom   32 type  2   force =     0.00000000    0.00000000    0.00000000
     atom   33 type  1   force =     0.00000000    0.00000000    0.00000000
     atom   34 type  2   force =     0.00000000    0.00000000    0.00000000
     atom   35 type  2   force =     0.00000000    0.00000000    0.00000000
     atom   36 type  3   force =     0.00000000    0.00000000    0.00000000
     The SCF correction term to forces
     atom    1 type  1   force =     0.00000895    0.00002673   -0.00067355
     atom    2 type  2   force =    -0.00001839    0.00008446   -0.00029121
     atom    3 type  2   force =     0.00000933    0.00005818   -0.00017919
     atom    4 type  1   force =    -0.00008446   -0.00003678   -0.00060713
     atom    5 type  2   force =    -0.00000268    0.00004915   -0.00027252
     atom    6 type  2   force =     0.00002102   -0.00001143   -0.00011930
     atom    7 type  1   force =    -0.00011062   -0.00019804   -0.00053851
     atom    8 type  2   force =    -0.00005689   -0.00005620   -0.00030686
     atom    9 type  2   force =    -0.00002802   -0.00003830   -0.00006878
     atom   10 type  1   force =    -0.00003856    0.00009157   -0.00070936
     atom   11 type  2   force =    -0.00005083   -0.00006880   -0.00033482
     atom   12 type  2   force =    -0.00001289    0.00001057   -0.00011167
     atom   13 type  1   force =    -0.00001409    0.00004289   -0.00075700
     atom   14 type  2   force =     0.00000627    0.00002393   -0.00030990
     atom   15 type  2   force =    -0.00000545    0.00003925   -0.00013593
     atom   16 type  1   force =    -0.00004498    0.00013561   -0.00054642
     atom   17 type  2   force =     0.00002523    0.00005476   -0.00041635
     atom   18 type  2   force =    -0.00002748   -0.00003106   -0.00010038
     atom   19 type  1   force =     0.00019838   -0.00019386   -0.00051953
     atom   20 type  2   force =     0.00004377   -0.00005471   -0.00001335
     atom   21 type  1   force =     0.00002516    0.00006574   -0.00061552
     atom   22 type  2   force =     0.00001978    0.00000184   -0.00025767
     atom   23 type  2   force =     0.00000445    0.00006531   -0.00015839
     atom   24 type  1   force =     0.00000777    0.00009368   -0.00078840
     atom   25 type  2   force =     0.00001932    0.00003254   -0.00029264
     atom   26 type  2   force =    -0.00000348    0.00006211   -0.00019364
     atom   27 type  1   force =     0.00006159   -0.00011854   -0.00059750
     atom   28 type  2   force =    -0.00002597    0.00001910   -0.00034250
     atom   29 type  2   force =     0.00001535   -0.00004606   -0.00014763
     atom   30 type  1   force =    -0.00004741   -0.00006348   -0.00052739
     atom   31 type  2   force =     0.00000147   -0.00004768   -0.00025852
     atom   32 type  2   force =    -0.00002206   -0.00008101   -0.00012978
     atom   33 type  1   force =     0.00002690    0.00012004   -0.00065618
     atom   34 type  2   force =     0.00002924   -0.00003617   -0.00031266
     atom   35 type  2   force =     0.00000307    0.00002989   -0.00015948
     atom   36 type  3   force =    -0.00000503    0.00000656   -0.00002851

     Total force =     0.133504     Total SCF correction =     0.002530

     BFGS Geometry Optimization
     Energy error            =      0.0E+00 Ry
     Gradient error          =      5.0E-02 Ry/Bohr

     number of scf cycles    =   1
     number of bfgs steps    =   0

     energy             new  =   -2205.5323838717 Ry

     new trust radius        =       0.0690118767 bohr
     new conv_thr            =       0.0000010000 Ry


ATOMIC_POSITIONS (angstrom)
Mo            6.5806509336        1.7754653036        2.8261984251
S             8.1683102865        0.8185342508        4.4354308726
S             8.1863995118        0.8156840001        1.2761075713
Mo            8.0962785527        4.4980025588        2.7164569656
S             6.4999570977        3.7192445243        4.3407826166
S             6.5544853717        3.5165195051        1.1208166231
Mo            6.4935666973        7.2200222277        2.6644200395
S             8.0826602429        6.3423324387        4.2524892690
S             8.0865988580        6.3062974774        1.0901956982
Mo            8.1541483982        9.9074777068        2.8284671941
S             6.4973652425        8.9415724379        4.3803889992
S             6.6174111316        9.0492486532        1.1439672631
Mo            3.4225425884        1.7527398980        2.7768159470
S             4.9799891351        0.8155006716        4.3572745963
S             5.0524722910        0.8473094807        1.2213975606
Mo            4.9825438746        4.5233049534        2.6317559242
S             3.4014554392        3.6639519713        4.3037710531
S             3.4361793958        3.5451799205        1.0650279179
Mo            3.4578820936        7.2049382628        2.6269003168
S             4.9853816723        6.3243390594        1.0388123437
Mo            5.0113815138        9.9048342192        2.7432071174
S             3.4687539212        8.9429311020        4.3241542766
S             3.4076080494        9.0665721550        1.1013793633
Mo            0.2915808759        1.7468058833        2.8390194882
S             1.8592509709        0.8030527491        4.4026929471
S             1.8554410209        0.8536789337        1.2063848216
Mo            1.8587676321        4.4983742274        2.6509375988
S             0.2791158461        3.6517615580        4.3396904520
S             0.2330941690        3.5276418130        1.1700062628
Mo            0.2692865682        7.2206129427        2.6991517671
S             1.9025694314        6.3130602866        4.2319595066
S             1.8573101873        6.3142296053        1.0482840477
Mo            1.8518381392        9.9372113360        2.7675122451
S             0.2974222021        9.0667688298        4.4084563502
S             0.2724695434        9.0474410320        1.1586920118
H             2.1216803492        3.6412711020        5.3313344184



     Writing config-only to output data dir ./MoS2-V-O.save/
     NEW-OLD atomic charge density approx. for the potential

     negative rho (up, down):  1.451E-04 0.000E+00

     total cpu time spent up to now is       80.8 secs

     Self-consistent Calculation

     iteration #  1     ecut=    80.00 Ry     beta= 0.70
     Davidson diagonalization with overlap
     ethr =  1.00E-06,  avg # of iterations =  8.0

     negative rho (up, down):  9.656E-05 0.000E+00

     total cpu time spent up to now is       95.6 secs

     total energy              =   -2205.54751379 Ry
     estimated scf accuracy    <       0.00186880 Ry

     iteration #  2     ecut=    80.00 Ry     beta= 0.70
     Davidson diagonalization with overlap
     ethr =  6.09E-07,  avg # of iterations =  2.0

     negative rho (up, down):  8.554E-05 0.000E+00

     total cpu time spent up to now is      113.7 secs

     total energy              =   -2205.54755946 Ry
     estimated scf accuracy    <       0.00037565 Ry

     iteration #  3     ecut=    80.00 Ry     beta= 0.70
     Davidson diagonalization with overlap
     ethr =  1.22E-07,  avg # of iterations =  5.0

     negative rho (up, down):  8.188E-05 0.000E+00

     total cpu time spent up to now is      128.5 secs

     total energy              =   -2205.54758202 Ry
     estimated scf accuracy    <       0.00010584 Ry

     iteration #  4     ecut=    80.00 Ry     beta= 0.70
     Davidson diagonalization with overlap
     ethr =  3.45E-08,  avg # of iterations =  4.0

     negative rho (up, down):  7.897E-05 0.000E+00

     total cpu time spent up to now is      140.1 secs

     total energy              =   -2205.54759916 Ry
     estimated scf accuracy    <       0.00000876 Ry

     iteration #  5     ecut=    80.00 Ry     beta= 0.70
     Davidson diagonalization with overlap
     ethr =  2.85E-09,  avg # of iterations =  5.0

     negative rho (up, down):  7.550E-05 0.000E+00

     total cpu time spent up to now is      157.0 secs

     total energy              =   -2205.54760266 Ry
     estimated scf accuracy    <       0.00000308 Ry

     iteration #  6     ecut=    80.00 Ry     beta= 0.70
     Davidson diagonalization with overlap
     ethr =  1.00E-09,  avg # of iterations =  2.0

     negative rho (up, down):  1.376E-04 0.000E+00

     total cpu time spent up to now is      159.1 secs

     End of self-consistent calculation

          k = 0.0000 0.0000 0.0000 (105382 PWs)   bands (ev):

   -62.8703 -62.8585 -62.8458 -62.8422 -62.8387 -62.8343 -62.8085 -62.7893
   -62.7751 -62.7676 -62.7137 -62.6310 -37.2128 -37.1451 -37.1345 -37.1303
   -37.1083 -37.0958 -37.0788 -37.0654 -37.0504 -37.0467 -37.0377 -37.0335
   -37.0301 -37.0175 -37.0125 -37.0026 -36.9988 -36.9943 -36.9880 -36.9758
   -36.9463 -36.9353 -36.9286 -36.9223 -36.9129 -36.9017 -36.8827 -36.8674
   -36.8580 -36.8361 -36.8279 -36.8176 -36.7986 -36.7877 -36.6854 -36.6356
   -16.0421 -15.4390 -15.1052 -15.0382 -14.9037 -14.8287 -14.6796 -14.4683
   -14.4494 -14.4003 -14.3792 -14.3283 -14.3084 -14.2863 -14.1879 -14.1457
   -14.0986 -14.0852 -14.0085 -13.8870 -13.8339 -13.8072 -13.7758  -8.3099
    -7.6477  -7.4307  -7.2826  -7.2572  -7.2315  -7.1643  -7.1431  -7.0101
    -6.8407  -6.7855  -6.7361  -6.6539  -6.5498  -6.4983  -6.4387  -6.4133
    -6.2828  -6.2146  -6.1032  -5.9538  -5.9335  -5.8809  -5.8366  -5.8178
    -5.7365  -5.6962  -5.6896  -5.6420  -5.6031  -5.5633  -5.5403  -5.4562
    -5.4149  -5.3516  -5.1410  -5.1140  -5.0336  -4.9854  -4.9651  -4.9601
    -4.9289  -4.8222  -4.6902  -4.5106  -4.4165  -4.3216  -4.2894  -4.2328
    -4.1922  -4.0706  -4.0218  -3.8338  -3.8067  -3.7652  -3.7253  -3.7170
    -3.6789  -3.6090  -3.5362  -3.5141  -3.4890  -3.4446  -3.4203  -3.3756
    -3.3393  -3.1879  -3.1524  -2.8735  -2.8669  -2.7811  -2.7647  -2.7212
    -2.6909  -2.6626  -2.6370  -2.6053  -2.5773  -2.2659  -2.0765  -1.9876
    -1.9095  -1.0276  -0.7595  -0.5031  -0.1599  -0.1050  -0.0638  -0.0311
     0.0256   0.1532   0.2092   0.2311   0.2677   0.3120   0.3364   0.4173
     0.4817   0.5592   0.5703   0.6275   0.6683   0.7136   0.7332   0.7365
     0.7944   0.8043   0.8547   0.9272   0.9450   0.9903   1.0508   1.2993
     1.3710

     the Fermi energy is    -1.0283 ev

!    total energy              =   -2205.54760290 Ry
     estimated scf accuracy    <       0.00000092 Ry
     smearing contrib. (-TS)   =      -0.00575570 Ry
     internal energy E=F+TS    =   -2205.54184720 Ry

     The total energy is F=E-TS. E is the sum of the following terms:
     one-electron contribution =  -18045.46164540 Ry
     hartree contribution      =    9009.63623251 Ry
     xc contribution           =    -385.24972261 Ry
     ewald contribution        =    7215.53328830 Ry

     convergence has been achieved in   6 iterations

     negative rho (up, down):  1.376E-04 0.000E+00

     Forces acting on atoms (cartesian axes, Ry/au):

     atom    1 type  1   force =     0.00178553   -0.01068168    0.00015816
     atom    2 type  2   force =    -0.00994240    0.01065824   -0.00082470
     atom    3 type  2   force =    -0.01099400    0.00748112   -0.00894695
     atom    4 type  1   force =     0.00520265    0.00308462    0.00296001
     atom    5 type  2   force =    -0.00008865   -0.00544233   -0.01044172
     atom    6 type  2   force =     0.00118848    0.00685668    0.00085969
     atom    7 type  1   force =     0.00785195    0.00009634   -0.00516045
     atom    8 type  2   force =     0.00099444   -0.00194409    0.01269238
     atom    9 type  2   force =     0.00980075    0.00321536    0.00659516
     atom   10 type  1   force =    -0.00498926    0.00801077   -0.00966379
     atom   11 type  2   force =     0.00388852   -0.00143056   -0.00716830
     atom   12 type  2   force =    -0.00289785    0.00242767    0.00099161
     atom   13 type  1   force =     0.00062453    0.00689540    0.00346533
     atom   14 type  2   force =     0.00676186   -0.00220187    0.00881578
     atom   15 type  2   force =    -0.00821211    0.00232249   -0.00704033
     atom   16 type  1   force =    -0.00216263    0.01041118    0.00446874
     atom   17 type  2   force =    -0.04053644   -0.00961257    0.03771190
     atom   18 type  2   force =    -0.00054270   -0.00318818    0.00973897
     atom   19 type  1   force =     0.00425383   -0.01577823   -0.00045631
     atom   20 type  2   force =     0.00540463   -0.00370692   -0.00295224
     atom   21 type  1   force =    -0.00186364    0.00363121    0.00250880
     atom   22 type  2   force =    -0.00237337   -0.00317468   -0.00454928
     atom   23 type  2   force =     0.00038112    0.00054759    0.00622859
     atom   24 type  1   force =    -0.00497780   -0.00172823   -0.00830909
     atom   25 type  2   force =     0.01076357    0.01322988    0.00152430
     atom   26 type  2   force =    -0.00569437   -0.00074936   -0.00534273
     atom   27 type  1   force =    -0.00348055    0.00379084   -0.00362930
     atom   28 type  2   force =     0.00559925   -0.00311510   -0.00393552
     atom   29 type  2   force =     0.00144624    0.00142686   -0.00651050
     atom   30 type  1   force =    -0.00217357    0.00094912    0.00337795
     atom   31 type  2   force =     0.00029368   -0.00073844    0.01029313
     atom   32 type  2   force =    -0.00768613    0.00756452    0.00253321
     atom   33 type  1   force =     0.00644149   -0.00124338   -0.00005657
     atom   34 type  2   force =     0.00015284   -0.03181469   -0.01508771
     atom   35 type  2   force =    -0.00589094    0.00771981    0.00853103
     atom   36 type  3   force =     0.04167105   -0.00376937   -0.02337924
     The non-local contrib.  to forces
     atom    1 type  1   force =     0.00444753    0.02562036   -0.01210763
     atom    2 type  2   force =    -0.00903534    0.00186826   -0.26977812
     atom    3 type  2   force =    -0.01386939   -0.00378788    0.26503715
     atom    4 type  1   force =    -0.00198637    0.00242337    0.00325968
     atom    5 type  2   force =     0.01495205   -0.03556441   -0.24059375
     atom    6 type  2   force =    -0.00352815    0.01651379    0.26617405
     atom    7 type  1   force =    -0.02313878   -0.00363584   -0.01162984
     atom    8 type  2   force =     0.00487757   -0.00290823   -0.25700642
     atom    9 type  2   force =     0.00855430   -0.00934445    0.27500081
     atom   10 type  1   force =     0.00170412   -0.00045937   -0.00143789
     atom   11 type  2   force =     0.01273386    0.00808582   -0.25905043
     atom   12 type  2   force =    -0.01211156   -0.01590323    0.25910516
     atom   13 type  1   force =    -0.00033422    0.01825522   -0.01180098
     atom   14 type  2   force =     0.01062594   -0.00727892   -0.26274726
     atom   15 type  2   force =    -0.01038042   -0.00630563    0.26140117
     atom   16 type  1   force =    -0.01751397    0.03424011   -0.02682179
     atom   17 type  2   force =    -0.21138738   -0.01810786   -0.00542730
     atom   18 type  2   force =    -0.00483332   -0.00065326    0.27503733
     atom   19 type  1   force =     0.02045230    0.00392593   -0.01813112
     atom   20 type  2   force =    -0.00093656   -0.02203429    0.26248121
     atom   21 type  1   force =     0.00479774    0.02034895    0.00279014
     atom   22 type  2   force =    -0.00550370    0.00027040   -0.26116459
     atom   23 type  2   force =     0.00788158   -0.01872024    0.26672027
     atom   24 type  1   force =     0.00225100    0.01587520   -0.01051332
     atom   25 type  2   force =     0.00761775    0.00990847   -0.26066798
     atom   26 type  2   force =     0.00369692   -0.00999782    0.26595851
     atom   27 type  1   force =     0.00132856    0.01838586    0.01036378
     atom   28 type  2   force =     0.02845424   -0.02888558   -0.21200163
     atom   29 type  2   force =     0.00631459    0.00285224    0.26530149
     atom   30 type  1   force =    -0.00266314    0.02004248    0.00928895
     atom   31 type  2   force =    -0.00864040    0.00040690   -0.25031764
     atom   32 type  2   force =    -0.00218337   -0.01546751    0.27189851
     atom   33 type  1   force =    -0.00504085    0.00217365    0.00151784
     atom   34 type  2   force =    -0.00235392   -0.02927138   -0.27832919
     atom   35 type  2   force =    -0.00107612   -0.01117274    0.26769730
     atom   36 type  3   force =     0.01786185   -0.00019133   -0.01817787
     The ionic contribution  to forces
     atom    1 type  1   force =     0.11082476    0.50027450    5.74876011
     atom    2 type  2   force =    -0.54076488    0.19734894   39.34771809
     atom    3 type  2   force =    -0.15196172    0.02884792  -36.20401592
     atom    4 type  1   force =    -0.10748963    0.53991420    0.63621394
     atom    5 type  2   force =    -0.97553090    1.47926905   38.60716556
     atom    6 type  2   force =     0.29545619   -0.57642858  -37.95165678
     atom    7 type  1   force =    -2.59207720   -2.66660218    2.37331843
     atom    8 type  2   force =    -1.08331454    0.11277890   37.49180004
     atom    9 type  2   force =     0.32314612   -0.04232224  -37.98904547
     atom   10 type  1   force =    -0.82446652   -0.35333340    5.35075456
     atom   11 type  2   force =    -0.52926512   -1.61057323   39.13942661
     atom   12 type  2   force =     0.35619984    0.67737582  -37.86053685
     atom   13 type  1   force =     0.78092040    0.66206736    2.58219754
     atom   14 type  2   force =     0.07600249   -0.08276981   38.55684594
     atom   15 type  2   force =     0.14741129   -0.02324250  -36.84287764
     atom   16 type  1   force =     0.08867853    3.62556681    0.54125467
     atom   17 type  2   force =     1.90016495    1.55826868   37.30833438
     atom   18 type  2   force =    -0.04368432   -0.66046311  -38.55090760
     atom   19 type  1   force =     2.72947946   -2.05286448    0.55305195
     atom   20 type  2   force =     0.24894069   -0.15144363  -38.56387274
     atom   21 type  1   force =    -0.04415456   -0.04420004    1.30031778
     atom   22 type  2   force =     0.48061513   -1.72440472   38.39686474
     atom   23 type  2   force =    -0.05344587    0.62058228  -38.22356703
     atom   24 type  1   force =    -0.61555929    0.72707426    5.28090543
     atom   25 type  2   force =     0.49450895   -0.14669223   39.13750821
     atom   26 type  2   force =    -0.22811710    0.00971046  -37.34259072
     atom   27 type  1   force =     0.01909565    0.64861713   -3.37461366
     atom   28 type  2   force =    -0.62218766    0.97664267   37.85054229
     atom   29 type  2   force =    -0.34068441   -0.42484302  -37.37183669
     atom   30 type  1   force =    -0.34035899   -0.78642154   -0.07207597
     atom   31 type  2   force =     1.19770972    0.28501232   37.26996927
     atom   32 type  2   force =    -0.47306515    0.08302146  -38.67469258
     atom   33 type  1   force =     0.62598612   -0.75238334    2.07915708
     atom   34 type  2   force =     0.16619135   -1.21526831   39.25040418
     atom   35 type  2   force =    -0.24000795    0.49222405  -37.72878134
     atom   36 type  3   force =    -0.23519584    0.08965954    7.94856017
     The local contribution  to forces
     atom    1 type  1   force =    -0.11360097   -0.53663495   -5.73739768
     atom    2 type  2   force =     0.53951782   -0.18839324  -39.09998207
     atom    3 type  2   force =     0.15413972   -0.01770356   35.95055255
     atom    4 type  1   force =     0.11453261   -0.53898574   -0.63739177
     atom    5 type  2   force =     0.96138273   -1.45103062  -38.39732807
     atom    6 type  2   force =    -0.29112616    0.56816319   37.70702887
     atom    7 type  1   force =     2.62326894    2.67049871   -2.36750366
     atom    8 type  2   force =     1.07964941   -0.11214906  -37.24295730
     atom    9 type  2   force =    -0.32164512    0.05439848   37.74137430
     atom   10 type  1   force =     0.81781081    0.36156600   -5.35972907
     atom   11 type  2   force =     0.52106834    1.60172071  -38.90852835
     atom   12 type  2   force =    -0.34803536   -0.66035631   37.62286252
     atom   13 type  1   force =    -0.77977683   -0.67354221   -2.56793523
     atom   14 type  2   force =    -0.07919612    0.08793400  -38.30640807
     atom   15 type  2   force =    -0.14580081    0.03145013   36.59474420
     atom   16 type  1   force =    -0.07308630   -3.64933767   -0.51105976
     atom   17 type  2   force =    -1.74224838   -1.55081135  -37.27160967
     atom   18 type  2   force =     0.04787289    0.65854018   38.30654742
     atom   19 type  1   force =    -2.74582536    2.03325259   -0.53622822
     atom   20 type  2   force =    -0.24278488    0.16893187   38.31929574
     atom   21 type  1   force =     0.03754467    0.02733070   -1.30150903
     atom   22 type  2   force =    -0.47766081    1.72134773  -38.16132458
     atom   23 type  2   force =     0.04650431   -0.60266220   37.98367597
     atom   24 type  1   force =     0.60827890   -0.74497323   -5.27955917
     atom   25 type  2   force =    -0.49130658    0.15069438  -38.89641133
     atom   26 type  2   force =     0.21914188   -0.00110059   37.09197549
     atom   27 type  1   force =    -0.02392214   -0.66295543    3.35970889
     atom   28 type  2   force =     0.60120008   -0.95274866  -37.66054623
     atom   29 type  2   force =     0.33641299    0.42404981   37.12042538
     atom   30 type  1   force =     0.34076516    0.76750869    0.06545962
     atom   31 type  2   force =    -1.18929774   -0.28633378  -37.03005273
     atom   32 type  2   force =     0.46769493   -0.06080146   38.42609048
     atom   33 type  1   force =    -0.61461327    0.74870673   -2.08156696
     atom   34 type  2   force =    -0.16409337    1.21172816  -39.00893029
     atom   35 type  2   force =     0.23531490   -0.47438335   37.49040681
     atom   36 type  3   force =     0.25899844   -0.09323142   -7.95388557
     The core correction contribution to forces
     atom    1 type  1   force =     0.00000000    0.00000000    0.00000000
     atom    2 type  2   force =     0.00030574   -0.00029149    0.02074047
     atom    3 type  2   force =     0.00062972    0.00007774   -0.02078760
     atom    4 type  1   force =     0.00000000    0.00000000    0.00000000
     atom    5 type  2   force =    -0.00091714    0.00189866    0.01975331
     atom    6 type  2   force =     0.00031557   -0.00140358   -0.02092411
     atom    7 type  1   force =     0.00000000    0.00000000    0.00000000
     atom    8 type  2   force =    -0.00022582    0.00051983    0.02042333
     atom    9 type  2   force =    -0.00021952    0.00058570   -0.02098122
     atom   10 type  1   force =     0.00000000    0.00000000    0.00000000
     atom   11 type  2   force =    -0.00054962   -0.00072333    0.02053729
     atom   12 type  2   force =     0.00104718    0.00129940   -0.02069414
     atom   13 type  1   force =     0.00000000    0.00000000    0.00000000
     atom   14 type  2   force =    -0.00057850   -0.00016769    0.02060085
     atom   15 type  2   force =     0.00060032    0.00040657   -0.02058033
     atom   16 type  1   force =     0.00000000    0.00000000    0.00000000
     atom   17 type  2   force =     0.01291298    0.00104355    0.00585224
     atom   18 type  2   force =     0.00016666   -0.00059737   -0.02115007
     atom   19 type  1   force =     0.00000000    0.00000000    0.00000000
     atom   20 type  2   force =     0.00021453    0.00085098   -0.02112267
     atom   21 type  1   force =     0.00000000    0.00000000    0.00000000
     atom   22 type  2   force =     0.00014102   -0.00036726    0.02060749
     atom   23 type  2   force =    -0.00054824    0.00136541   -0.02088184
     atom   24 type  1   force =     0.00000000    0.00000000    0.00000000
     atom   25 type  2   force =    -0.00012385   -0.00084262    0.02052743
     atom   26 type  2   force =    -0.00042398    0.00055444   -0.02093638
     atom   27 type  1   force =     0.00000000    0.00000000    0.00000000
     atom   28 type  2   force =    -0.00188904    0.00192841    0.01751625
     atom   29 type  2   force =    -0.00059026   -0.00060087   -0.02071187
     atom   30 type  1   force =     0.00000000    0.00000000    0.00000000
     atom   31 type  2   force =     0.00041826    0.00031443    0.02014033
     atom   32 type  2   force =    -0.00019465    0.00087637   -0.02101522
     atom   33 type  1   force =     0.00000000    0.00000000    0.00000000
     atom   34 type  2   force =     0.00036678    0.00090552    0.02128193
     atom   35 type  2   force =    -0.00012466    0.00100240   -0.02099648
     atom   36 type  3   force =     0.00000000    0.00000000    0.00000000
     The Hubbard contrib.    to forces
     atom    1 type  1   force =     0.00000000    0.00000000    0.00000000
     atom    2 type  2   force =     0.00000000    0.00000000    0.00000000
     atom    3 type  2   force =     0.00000000    0.00000000    0.00000000
     atom    4 type  1   force =     0.00000000    0.00000000    0.00000000
     atom    5 type  2   force =     0.00000000    0.00000000    0.00000000
     atom    6 type  2   force =     0.00000000    0.00000000    0.00000000
     atom    7 type  1   force =     0.00000000    0.00000000    0.00000000
     atom    8 type  2   force =     0.00000000    0.00000000    0.00000000
     atom    9 type  2   force =     0.00000000    0.00000000    0.00000000
     atom   10 type  1   force =     0.00000000    0.00000000    0.00000000
     atom   11 type  2   force =     0.00000000    0.00000000    0.00000000
     atom   12 type  2   force =     0.00000000    0.00000000    0.00000000
     atom   13 type  1   force =     0.00000000    0.00000000    0.00000000
     atom   14 type  2   force =     0.00000000    0.00000000    0.00000000
     atom   15 type  2   force =     0.00000000    0.00000000    0.00000000
     atom   16 type  1   force =     0.00000000    0.00000000    0.00000000
     atom   17 type  2   force =     0.00000000    0.00000000    0.00000000
     atom   18 type  2   force =     0.00000000    0.00000000    0.00000000
     atom   19 type  1   force =     0.00000000    0.00000000    0.00000000
     atom   20 type  2   force =     0.00000000    0.00000000    0.00000000
     atom   21 type  1   force =     0.00000000    0.00000000    0.00000000
     atom   22 type  2   force =     0.00000000    0.00000000    0.00000000
     atom   23 type  2   force =     0.00000000    0.00000000    0.00000000
     atom   24 type  1   force =     0.00000000    0.00000000    0.00000000
     atom   25 type  2   force =     0.00000000    0.00000000    0.00000000
     atom   26 type  2   force =     0.00000000    0.00000000    0.00000000
     atom   27 type  1   force =     0.00000000    0.00000000    0.00000000
     atom   28 type  2   force =     0.00000000    0.00000000    0.00000000
     atom   29 type  2   force =     0.00000000    0.00000000    0.00000000
     atom   30 type  1   force =     0.00000000    0.00000000    0.00000000
     atom   31 type  2   force =     0.00000000    0.00000000    0.00000000
     atom   32 type  2   force =     0.00000000    0.00000000    0.00000000
     atom   33 type  1   force =     0.00000000    0.00000000    0.00000000
     atom   34 type  2   force =     0.00000000    0.00000000    0.00000000
     atom   35 type  2   force =     0.00000000    0.00000000    0.00000000
     atom   36 type  3   force =     0.00000000    0.00000000    0.00000000
     The SCF correction term to forces
     atom    1 type  1   force =     0.00011607    0.00005795    0.00088270
     atom    2 type  2   force =     0.00003611    0.00012530    0.00045627
     atom    3 type  2   force =     0.00006953    0.00004644    0.00024620
     atom    4 type  1   force =     0.00014790   -0.00026768    0.00085751
     atom    5 type  2   force =     0.00002646   -0.00001549    0.00054057
     atom    6 type  2   force =     0.00007288    0.00001139    0.00021700
     atom    7 type  1   force =    -0.00019915   -0.00016482    0.00063397
     atom    8 type  2   force =     0.00000968   -0.00018601    0.00041207
     atom    9 type  2   force =    -0.00003316   -0.00010260    0.00022609
     atom   10 type  1   force =    -0.00003582    0.00023708    0.00072796
     atom   11 type  2   force =    -0.00009708    0.00005900    0.00042593
     atom   12 type  2   force =     0.00000391    0.00001152    0.00023426
     atom   13 type  1   force =    -0.00018297    0.00011456    0.00098334
     atom   14 type  2   force =    -0.00009009    0.00008009    0.00050367
     atom   15 type  2   force =    -0.00004063    0.00001345    0.00025160
     atom   16 type  1   force =    -0.00023904   -0.00005854    0.00107497
     atom   17 type  2   force =     0.00002324   -0.00000606    0.00054161
     atom   18 type  2   force =    -0.00006275   -0.00001509    0.00019124
     atom   19 type  1   force =     0.00014929   -0.00009273    0.00083042
     atom   20 type  2   force =    -0.00002729   -0.00001231    0.00024556
     atom   21 type  1   force =    -0.00004964    0.00015113    0.00088926
     atom   22 type  2   force =     0.00003684   -0.00002130    0.00044700
     atom   23 type  2   force =    -0.00000881   -0.00001813    0.00026057
     atom   24 type  1   force =     0.00005345    0.00029507    0.00083732
     atom   25 type  2   force =     0.00006915    0.00016143    0.00054730
     atom   26 type  2   force =     0.00000975    0.00008368    0.00022972
     atom   27 type  1   force =     0.00001923   -0.00025718    0.00089103
     atom   28 type  2   force =     0.00002348   -0.00005242    0.00053315
     atom   29 type  2   force =    -0.00000481   -0.00003176    0.00029052
     atom   30 type  1   force =     0.00008526   -0.00018099    0.00068470
     atom   31 type  2   force =     0.00010569   -0.00013878    0.00053325
     atom   32 type  2   force =     0.00006394   -0.00006480    0.00023135
     atom   33 type  1   force =     0.00011135    0.00025911    0.00081483
     atom   34 type  2   force =     0.00004386    0.00009086    0.00046500
     atom   35 type  2   force =     0.00000474    0.00004898    0.00018409
     atom   36 type  3   force =     0.00000846   -0.00000663    0.00010337

     Total force =     0.101010     Total SCF correction =     0.003594
     Energy error            =      1.5E-02 Ry
     Gradient error          =      4.2E-02 Ry/Bohr

     number of scf cycles    =   2
     number of bfgs steps    =   1

     energy             old  =   -2205.5323838716 Ry
     energy             new  =   -2205.5476028980 Ry

     CASE: energy            _new < energy            _old

     new trust radius        =       0.0759130644 bohr
     new conv_thr            =       0.0000000417 Ry


ATOMIC_POSITIONS (angstrom)
Mo            6.5832307896        1.7664044314        2.8269582607
S             8.1606907610        0.8266566043        4.4352179259
S             8.1786211579        0.8209221644        1.2707757164
Mo            8.0994010002        4.5004561196        2.7177070162
S             6.4999215206        3.7154509461        4.3335564582
S             6.5554308794        3.5215077968        1.1211616990
Mo            6.4987803825        7.2204925504        2.6596464404
S             8.0834467266        6.3408699119        4.2620331586
S             8.0934246863        6.3084659908        1.0954507650
Mo            8.1497299226        9.9132292628        2.8192598798
S             6.5000585611        8.9404376339        4.3757759603
S             6.6156945023        9.0507100581        1.1455769156
Mo            3.4231149121        1.7580134931        2.7787906177
S             4.9849368809        0.8139238625        4.3638445949
S             5.0465943653        0.8488481761        1.2161831333
Mo            4.9821032538        4.5316349542        2.6338875107
S             3.3724617684        3.6567098687        4.3306162667
S             3.4354252300        3.5426428635        1.0720825470
Mo            3.4612546462        7.1933586464        2.6256563884
S             4.9888859189        6.3216401439        1.0376185132
Mo            5.0101357463        9.9076609948        2.7445197840
S             3.4668825116        8.9409890679        4.3213023394
S             3.4075986986        9.0672870462        1.1061657572
Mo            0.2876857549        1.7456808627        2.8317535275
S             1.8674196478        0.8129761202        4.4047038601
S             1.8509323833        0.8530746021        1.2026851826
Mo            1.8563683294        4.5011488909        2.6465228981
S             0.2839796623        3.6493727382        4.3381065504
S             0.2343716080        3.5285209811        1.1659366884
Mo            0.2676130619        7.2221749441        2.7003169890
S             1.9028164076        6.3127278179        4.2400640680
S             1.8518324810        6.3193663631        1.0506433225
Mo            1.8573152414        9.9357633646        2.7660485422
S             0.2979032932        9.0433488630        4.3988272332
S             0.2681328268        9.0526699911        1.1655158855
H             2.1496537146        3.6387749502        5.3154274757



     Writing config-only to output data dir ./MoS2-V-O.save/
     NEW-OLD atomic charge density approx. for the potential

     negative rho (up, down):  1.461E-04 0.000E+00

     total cpu time spent up to now is      162.4 secs

     Self-consistent Calculation

     iteration #  1     ecut=    80.00 Ry     beta= 0.70
     Davidson diagonalization with overlap
     ethr =  1.00E-06,  avg # of iterations = 20.0

     negative rho (up, down):  8.617E-05 0.000E+00

     total cpu time spent up to now is      176.5 secs

     total energy              =   -2205.55958581 Ry
     estimated scf accuracy    <       0.00138317 Ry

     iteration #  2     ecut=    80.00 Ry     beta= 0.70
     Davidson diagonalization with overlap
     ethr =  4.51E-07,  avg # of iterations =  2.0

     negative rho (up, down):  6.298E-05 0.000E+00

     total cpu time spent up to now is      189.4 secs

     total energy              =   -2205.55962338 Ry
     estimated scf accuracy    <       0.00025414 Ry

     iteration #  3     ecut=    80.00 Ry     beta= 0.70
     Davidson diagonalization with overlap
     ethr =  8.28E-08,  avg # of iterations =  2.0

     negative rho (up, down):  4.995E-05 0.000E+00

     total cpu time spent up to now is      202.1 secs

     total energy              =   -2205.55964025 Ry
     estimated scf accuracy    <       0.00007001 Ry

     iteration #  4     ecut=    80.00 Ry     beta= 0.70
     Davidson diagonalization with overlap
     ethr =  2.28E-08,  avg # of iterations =  5.0

     negative rho (up, down):  4.798E-05 0.000E+00

     total cpu time spent up to now is      214.6 secs

     total energy              =   -2205.55965067 Ry
     estimated scf accuracy    <       0.00000625 Ry

     iteration #  5     ecut=    80.00 Ry     beta= 0.70
     Davidson diagonalization with overlap
     ethr =  2.03E-09,  avg # of iterations =  5.0

     negative rho (up, down):  5.082E-05 0.000E+00

     total cpu time spent up to now is      226.5 secs

     total energy              =   -2205.55965307 Ry
     estimated scf accuracy    <       0.00000221 Ry

     iteration #  6     ecut=    80.00 Ry     beta= 0.70
     Davidson diagonalization with overlap
     ethr =  7.18E-10,  avg # of iterations =  3.0

     negative rho (up, down):  5.793E-05 0.000E+00

     total cpu time spent up to now is      238.8 secs

     total energy              =   -2205.55965334 Ry
     estimated scf accuracy    <       0.00000049 Ry

     iteration #  7     ecut=    80.00 Ry     beta= 0.70
     Davidson diagonalization with overlap
     ethr =  1.61E-10,  avg # of iterations =  5.0

     negative rho (up, down):  6.943E-05 0.000E+00

     total cpu time spent up to now is      250.9 secs

     total energy              =   -2205.55965337 Ry
     estimated scf accuracy    <       0.00000015 Ry

     iteration #  8     ecut=    80.00 Ry     beta= 0.70
     Davidson diagonalization with overlap
     ethr =  4.86E-11,  avg # of iterations =  2.0

     negative rho (up, down):  9.829E-05 0.000E+00

     total cpu time spent up to now is      264.5 secs

     total energy              =   -2205.55965325 Ry
     estimated scf accuracy    <       0.00000007 Ry

     iteration #  9     ecut=    80.00 Ry     beta= 0.70
     Davidson diagonalization with overlap
     ethr =  2.30E-11,  avg # of iterations =  3.0

     negative rho (up, down):  1.382E-04 0.000E+00

     total cpu time spent up to now is      266.5 secs

     End of self-consistent calculation

          k = 0.0000 0.0000 0.0000 (105382 PWs)   bands (ev):

   -62.8675 -62.8562 -62.8407 -62.8357 -62.8308 -62.8275 -62.7990 -62.7747
   -62.7603 -62.7529 -62.7031 -62.6087 -37.2039 -37.1377 -37.1256 -37.1214
   -37.0984 -37.0867 -37.0745 -37.0583 -37.0468 -37.0367 -37.0301 -37.0278
   -37.0202 -37.0083 -37.0057 -36.9981 -36.9879 -36.9852 -36.9797 -36.9607
   -36.9362 -36.9222 -36.9178 -36.9126 -36.9001 -36.8892 -36.8731 -36.8579
   -36.8476 -36.8252 -36.8160 -36.8035 -36.7857 -36.7687 -36.6708 -36.6158
   -16.0596 -15.4948 -15.0972 -15.0387 -14.8830 -14.8249 -14.6808 -14.4521
   -14.4350 -14.3916 -14.3728 -14.3135 -14.3017 -14.2758 -14.1813 -14.1323
   -14.0887 -14.0804 -13.9997 -13.8756 -13.8267 -13.8054 -13.7643  -8.4491
    -7.6389  -7.4223  -7.2641  -7.2536  -7.2118  -7.1555  -7.1367  -7.0152
    -6.8339  -6.7755  -6.7264  -6.6367  -6.5408  -6.4852  -6.4339  -6.4041
    -6.2745  -6.2069  -6.1262  -5.9513  -5.9182  -5.8691  -5.8286  -5.8031
    -5.7289  -5.6900  -5.6785  -5.6276  -5.5929  -5.5538  -5.5313  -5.4478
    -5.3985  -5.3372  -5.1332  -5.0958  -5.0198  -4.9847  -4.9536  -4.9432
    -4.9305  -4.8165  -4.6883  -4.5054  -4.4243  -4.3141  -4.2729  -4.2183
    -4.1828  -4.0693  -4.0124  -3.8305  -3.7939  -3.7541  -3.7188  -3.7050
    -3.6617  -3.6031  -3.5276  -3.5104  -3.4844  -3.4375  -3.4045  -3.3700
    -3.3286  -3.1833  -3.1494  -2.8619  -2.8553  -2.7774  -2.7529  -2.7118
    -2.6794  -2.6606  -2.6346  -2.5928  -2.5665  -2.2532  -2.0640  -1.9805
    -1.9110  -1.0034  -0.7336  -0.4814  -0.1463  -0.1027  -0.0576  -0.0217
     0.0419   0.1560   0.2070   0.2327   0.2904   0.3258   0.3528   0.4275
     0.4890   0.5748   0.5768   0.6402   0.6805   0.7115   0.7290   0.7491
     0.8015   0.8194   0.8649   0.9307   0.9646   1.0006   1.0651   1.3027
     1.3867

     the Fermi energy is    -1.0040 ev

!    total energy              =   -2205.55965317 Ry
     estimated scf accuracy    <       0.00000002 Ry
     smearing contrib. (-TS)   =      -0.00575040 Ry
     internal energy E=F+TS    =   -2205.55390277 Ry

     The total energy is F=E-TS. E is the sum of the following terms:
     one-electron contribution =  -18043.95051194 Ry
     hartree contribution      =    9008.95117049 Ry
     xc contribution           =    -385.26147075 Ry
     ewald contribution        =    7214.70690943 Ry

     convergence has been achieved in   9 iterations

     negative rho (up, down):  1.382E-04 0.000E+00

     Forces acting on atoms (cartesian axes, Ry/au):

     atom    1 type  1   force =    -0.00467505   -0.00149322   -0.00383152
     atom    2 type  2   force =    -0.00525875    0.00613508   -0.00170472
     atom    3 type  2   force =    -0.00858398    0.00609196   -0.01071482
     atom    4 type  1   force =     0.00630623    0.00091803    0.00468387
     atom    5 type  2   force =    -0.00058660   -0.00459184   -0.00827345
     atom    6 type  2   force =     0.00001153    0.00614684    0.00293111
     atom    7 type  1   force =     0.00755873   -0.00171476   -0.00077141
     atom    8 type  2   force =     0.00034497   -0.00172516    0.00875766
     atom    9 type  2   force =     0.00870067    0.00284281    0.00316525
     atom   10 type  1   force =    -0.00118370    0.00632918   -0.00007553
     atom   11 type  2   force =     0.00355174   -0.00048409   -0.00709010
     atom   12 type  2   force =    -0.00376829    0.00328805   -0.00214666
     atom   13 type  1   force =    -0.00078557    0.00327056    0.00468083
     atom   14 type  2   force =     0.00447008   -0.00160108    0.00571873
     atom   15 type  2   force =    -0.00696299    0.00208368   -0.00387179
     atom   16 type  1   force =    -0.00619294    0.00477098    0.00655822
     atom   17 type  2   force =    -0.02803638   -0.00625618    0.02965676
     atom   18 type  2   force =     0.00099344   -0.00058368    0.00814586
     atom   19 type  1   force =     0.00181580   -0.01108385    0.00184895
     atom   20 type  2   force =     0.00596297   -0.00288370   -0.00484487
     atom   21 type  1   force =    -0.00133524    0.00196704    0.00254741
     atom   22 type  2   force =    -0.00095991   -0.00437531   -0.00431832
     atom   23 type  2   force =     0.00147520   -0.00136830    0.00440296
     atom   24 type  1   force =    -0.00281372   -0.00133454   -0.00324885
     atom   25 type  2   force =     0.00553618    0.00736087   -0.00180235
     atom   26 type  2   force =    -0.00189191   -0.00013367   -0.00343137
     atom   27 type  1   force =    -0.00363760    0.00221692    0.00346716
     atom   28 type  2   force =    -0.00222787   -0.00158605   -0.00914339
     atom   29 type  2   force =     0.00036205    0.00184737   -0.00665606
     atom   30 type  1   force =    -0.00106421   -0.00270999    0.00547283
     atom   31 type  2   force =     0.00030492   -0.00152604    0.00595076
     atom   32 type  2   force =    -0.00564014    0.00672761    0.00065982
     atom   33 type  1   force =     0.00101222    0.00127039    0.00391208
     atom   34 type  2   force =    -0.00141076   -0.02039882   -0.01451504
     atom   35 type  2   force =    -0.00367189    0.00681788    0.00433951
     atom   36 type  3   force =     0.04228078   -0.00423499   -0.02045951
     The non-local contrib.  to forces
     atom    1 type  1   force =     0.00593867    0.02221705   -0.01177379
     atom    2 type  2   force =    -0.00555759   -0.00110762   -0.26851623
     atom    3 type  2   force =    -0.01091483   -0.00510169    0.26270876
     atom    4 type  1   force =    -0.00285079    0.00424584    0.00310456
     atom    5 type  2   force =     0.01577372   -0.03477523   -0.23961326
     atom    6 type  2   force =    -0.00426260    0.01530879    0.26858655
     atom    7 type  1   force =    -0.02337667   -0.00248693   -0.01161320
     atom    8 type  2   force =     0.00524900   -0.00349124   -0.25972770
     atom    9 type  2   force =     0.00672833   -0.00946425    0.27251493
     atom   10 type  1   force =     0.00030836   -0.00065703   -0.00144535
     atom   11 type  2   force =     0.01186976    0.00870806   -0.25908143
     atom   12 type  2   force =    -0.01206998   -0.01521842    0.25754697
     atom   13 type  1   force =     0.00005038    0.01967157   -0.01369992
     atom   14 type  2   force =     0.00818128   -0.00643086   -0.26359950
     atom   15 type  2   force =    -0.00874660   -0.00693499    0.26268990
     atom   16 type  1   force =    -0.01787009    0.03682657   -0.02896115
     atom   17 type  2   force =    -0.22404210   -0.01456163    0.00076209
     atom   18 type  2   force =    -0.00480366    0.00180855    0.27449887
     atom   19 type  1   force =     0.02305757    0.00457298   -0.01940658
     atom   20 type  2   force =     0.00013251   -0.02063932    0.26080258
     atom   21 type  1   force =     0.00485011    0.02019331    0.00175114
     atom   22 type  2   force =    -0.00352566   -0.00156822   -0.26182554
     atom   23 type  2   force =     0.00896764   -0.02109635    0.26611296
     atom   24 type  1   force =     0.00093252    0.01573448   -0.00983204
     atom   25 type  2   force =     0.00410856    0.00623536   -0.26343306
     atom   26 type  2   force =     0.00694623   -0.00896574    0.26776143
     atom   27 type  1   force =     0.00126786    0.01856995    0.00844908
     atom   28 type  2   force =     0.01407524   -0.02661371   -0.22067787
     atom   29 type  2   force =     0.00558510    0.00257783    0.26597056
     atom   30 type  1   force =    -0.00295658    0.02079563    0.00899924
     atom   31 type  2   force =    -0.00938073   -0.00034531   -0.25234180
     atom   32 type  2   force =    -0.00021777   -0.01628890    0.27020663
     atom   33 type  1   force =    -0.00381127    0.00098319    0.00076898
     atom   34 type  2   force =    -0.00331544   -0.02047447   -0.27900551
     atom   35 type  2   force =     0.00034405   -0.01191628    0.26597044
     atom   36 type  3   force =     0.02353810   -0.00022322   -0.02197779
     The ionic contribution  to forces
     atom    1 type  1   force =    -0.10656746    0.77461371    5.72314118
     atom    2 type  2   force =    -0.39935421    0.11359774   39.39847969
     atom    3 type  2   force =    -0.12067445    0.05089842  -36.32728521
     atom    4 type  1   force =    -0.21507925    0.43452661    0.75320131
     atom    5 type  2   force =    -1.01648947    1.46063889   38.47886095
     atom    6 type  2   force =     0.24628342   -0.60402916  -37.85795582
     atom    7 type  1   force =    -2.64856707   -2.62772113    2.18493236
     atom    8 type  2   force =    -1.13580445    0.10843930   37.61382270
     atom    9 type  2   force =     0.30694069   -0.07065561  -37.97992410
     atom   10 type  1   force =    -0.61379103   -0.33345075    5.13270156
     atom   11 type  2   force =    -0.52082222   -1.61677403   39.10026984
     atom   12 type  2   force =     0.28837215    0.65775833  -37.87376671
     atom   13 type  1   force =     0.87231240    0.65501618    2.67888925
     atom   14 type  2   force =     0.02421913   -0.05868898   38.61176723
     atom   15 type  2   force =     0.11270391    0.01768520  -36.87769346
     atom   16 type  1   force =     0.03632813    3.31228232    0.86511239
     atom   17 type  2   force =     2.13356811    1.57491922   37.40064549
     atom   18 type  2   force =     0.01522937   -0.65986773  -38.45298746
     atom   19 type  1   force =     2.72914733   -1.83942808    0.53975021
     atom   20 type  2   force =     0.25174389   -0.13229248  -38.63381674
[...]
     atom   27 type  1   force =    -0.00623596    0.01760866   -0.00398201
     atom   28 type  2   force =     0.00777404   -0.01106851   -0.26071640
     atom   29 type  2   force =     0.00153912   -0.00797803    0.26637569
     atom   30 type  1   force =    -0.00433633    0.02372091    0.00753203
     atom   31 type  2   force =    -0.00511652   -0.00859378   -0.25860708
     atom   32 type  2   force =     0.00351677   -0.02270648    0.26842422
     atom   33 type  1   force =    -0.00524157   -0.00534819    0.00071175
     atom   34 type  2   force =     0.00227843   -0.00706789   -0.27076127
     atom   35 type  2   force =    -0.00079968   -0.01464539    0.26599785
     atom   36 type  3   force =     0.01537810    0.00257673   -0.05783853
     The ionic contribution  to forces
     atom    1 type  1   force =    -0.15583189    0.94579270    2.27961597
     atom    2 type  2   force =    -0.20104190    0.02941766   38.79783184
     atom    3 type  2   force =     0.05950615    0.02069521  -37.55227749
     atom    4 type  1   force =    -0.95375403    0.72815113    0.86654389
     atom    5 type  2   force =    -0.83330173    1.30564198   38.06475458
     atom    6 type  2   force =     0.06960331   -0.20937608  -37.78909532
     atom    7 type  1   force =    -2.55022209   -2.86260067    1.45948718
     atom    8 type  2   force =    -1.42584222    0.12101597   38.06401842
     atom    9 type  2   force =     0.19597097   -0.09067359  -37.83926798
     atom   10 type  1   force =    -0.13831042   -0.35071780    2.54909732
     atom   11 type  2   force =    -0.40077362   -1.48965185   38.79927610
     atom   12 type  2   force =     0.13632443    0.34201238  -38.35261358
     atom   13 type  1   force =     0.39204104    0.57728402    3.04597333
     atom   14 type  2   force =     0.12218370   -0.06865304   38.71579931
     atom   15 type  2   force =    -0.07739080    0.02939269  -37.53589008
     atom   16 type  1   force =     0.78563336    3.57272264    1.92252466
     atom   17 type  2   force =     1.40593508    1.26226694   36.29247194
     atom   18 type  2   force =    -0.11257749   -0.35698762  -37.73591401
     atom   19 type  1   force =     2.47155222   -1.69054150    3.29363068
     atom   20 type  2   force =     0.05004119   -0.10522106  -38.51833194
     atom   21 type  1   force =    -0.37632070   -0.41586551    1.16783277
     atom   22 type  2   force =     0.41801377   -1.44747481   38.49187223
     atom   23 type  2   force =    -0.25607565    0.17559709  -37.68183010
     atom   24 type  1   force =    -0.07734072    0.19571999    2.05981724
     atom   25 type  2   force =    -0.00250783   -0.16279366   38.95044103
     atom   26 type  2   force =    -0.03808504   -0.06179963  -37.54375859
     atom   27 type  1   force =     0.30439462    0.73287901    0.24936682
     atom   28 type  2   force =    -0.27811914    0.43410917   38.30537062
     atom   29 type  2   force =    -0.04828738   -0.15618740  -37.87725317
     atom   30 type  1   force =     0.11976649   -0.52114717    1.76537823
     atom   31 type  2   force =     1.13048815    0.37906771   38.21650470
     atom   32 type  2   force =    -0.12067062    0.12921658  -37.82208300
     atom   33 type  1   force =     0.53245592   -0.74260445    2.99552807
     atom   34 type  2   force =    -0.03937490   -0.47200420   38.78106275
     atom   35 type  2   force =     0.08940967    0.13060867  -37.49654079
     atom   36 type  3   force =    -0.19749189    0.09270850    8.61065637
     The local contribution  to forces
     atom    1 type  1   force =     0.15204247   -0.96736909   -2.27286436
     atom    2 type  2   force =     0.20273150   -0.02345951  -38.55334792
     atom    3 type  2   force =    -0.05757192   -0.01315677   37.30497932
     atom    4 type  1   force =     0.95354423   -0.74196289   -0.87090494
     atom    5 type  2   force =     0.82874343   -1.28991271  -37.84239002
     atom    6 type  2   force =    -0.06783318    0.21022471   37.54302419
     atom    7 type  1   force =     2.57051988    2.86995076   -1.45392238
     atom    8 type  2   force =     1.41673282   -0.11673203  -37.82026563
     atom    9 type  2   force =    -0.19103953    0.10220154   37.58964692
     atom   10 type  1   force =     0.13982495    0.34867973   -2.55206571
     atom   11 type  2   force =     0.39480918    1.48322686  -38.56282563
     atom   12 type  2   force =    -0.13096194   -0.33122964   38.11465422
     atom   13 type  1   force =    -0.39747012   -0.58514662   -3.03207163
     atom   14 type  2   force =    -0.11616084    0.07108340  -38.47616132
     atom   15 type  2   force =     0.07800398   -0.02044046   37.29341585
     atom   16 type  1   force =    -0.78790174   -3.62575391   -1.90269837
     atom   17 type  2   force =    -1.31057056   -1.23664728  -36.52334655
     atom   18 type  2   force =     0.11537434    0.36188640   37.48079444
     atom   19 type  1   force =    -2.50845532    1.69462401   -3.26849802
     atom   20 type  2   force =    -0.04951108    0.11871473   38.27773045
     atom   21 type  1   force =     0.37097980    0.40151692   -1.16766920
     atom   22 type  2   force =    -0.41426754    1.45027290  -38.25205732
     atom   23 type  2   force =     0.24557947   -0.16134792   37.43671351
     atom   24 type  1   force =     0.07952904   -0.21139542   -2.05820499
     atom   25 type  2   force =    -0.00395172    0.16404494  -38.71370091
     atom   26 type  2   force =     0.03499916    0.07245468   37.29490271
     atom   27 type  1   force =    -0.29769377   -0.75092309   -0.24623662
     atom   28 type  2   force =     0.27265353   -0.42406802  -38.06505733
     atom   29 type  2   force =     0.04749876    0.16392510   37.63172687
     atom   30 type  1   force =    -0.11572303    0.49779542   -1.77255310
     atom   31 type  2   force =    -1.12562822   -0.37283894  -37.97910837
     atom   32 type  2   force =     0.11790216   -0.10745852   37.57443341
     atom   33 type  1   force =    -0.52771619    0.74804580   -2.99571318
     atom   34 type  2   force =     0.03696946    0.47995476  -38.53038593
     atom   35 type  2   force =    -0.08903728   -0.11710208   37.25152374
     atom   36 type  3   force =     0.18316209   -0.09410635   -8.55406353
     The core correction contribution to forces
     atom    1 type  1   force =     0.00000000    0.00000000    0.00000000
     atom    2 type  2   force =     0.00005641    0.00021974    0.02068626
     atom    3 type  2   force =     0.00011834    0.00033674   -0.02097257
     atom    4 type  1   force =     0.00000000    0.00000000    0.00000000
     atom    5 type  2   force =    -0.00027552    0.00075108    0.01970059
     atom    6 type  2   force =     0.00007568   -0.00029882   -0.02077111
     atom    7 type  1   force =     0.00000000    0.00000000    0.00000000
     atom    8 type  2   force =    -0.00069174    0.00048588    0.02063900
     atom    9 type  2   force =     0.00035609    0.00058221   -0.02088887
     atom   10 type  1   force =     0.00000000    0.00000000    0.00000000
     atom   11 type  2   force =    -0.00013762   -0.00062725    0.02047449
     atom   12 type  2   force =     0.00045612    0.00094094   -0.02068882
     atom   13 type  1   force =     0.00000000    0.00000000    0.00000000
     atom   14 type  2   force =     0.00051792   -0.00036602    0.02046977
     atom   15 type  2   force =     0.00000907    0.00045060   -0.02075475
     atom   16 type  1   force =     0.00000000    0.00000000    0.00000000
     atom   17 type  2   force =     0.00653036    0.00154422   -0.00923662
     atom   18 type  2   force =    -0.00003203   -0.00020719   -0.02122546
     atom   19 type  1   force =     0.00000000    0.00000000    0.00000000
     atom   20 type  2   force =     0.00017902    0.00058407   -0.02112014
     atom   21 type  1   force =     0.00000000    0.00000000    0.00000000
     atom   22 type  2   force =     0.00007813   -0.00007136    0.02045185
     atom   23 type  2   force =    -0.00077752    0.00087391   -0.02077727
     atom   24 type  1   force =     0.00000000    0.00000000    0.00000000
     atom   25 type  2   force =    -0.00052848   -0.00031230    0.02023414
     atom   26 type  2   force =    -0.00021978    0.00039924   -0.02107988
     atom   27 type  1   force =     0.00000000    0.00000000    0.00000000
     atom   28 type  2   force =    -0.00065992    0.00068251    0.02046720
     atom   29 type  2   force =    -0.00017668    0.00014798   -0.02085351
     atom   30 type  1   force =     0.00000000    0.00000000    0.00000000
     atom   31 type  2   force =     0.00018926    0.00095121    0.02020570
     atom   32 type  2   force =    -0.00029887    0.00124898   -0.02088741
     atom   33 type  1   force =     0.00000000    0.00000000    0.00000000
     atom   34 type  2   force =    -0.00021797    0.00023758    0.02105802
     atom   35 type  2   force =    -0.00000236    0.00086215   -0.02090494
     atom   36 type  3   force =     0.00000000    0.00000000    0.00000000
     The Hubbard contrib.    to forces
     atom    1 type  1   force =     0.00000000    0.00000000    0.00000000
     atom    2 type  2   force =     0.00000000    0.00000000    0.00000000
     atom    3 type  2   force =     0.00000000    0.00000000    0.00000000
     atom    4 type  1   force =     0.00000000    0.00000000    0.00000000
     atom    5 type  2   force =     0.00000000    0.00000000    0.00000000
     atom    6 type  2   force =     0.00000000    0.00000000    0.00000000
     atom    7 type  1   force =     0.00000000    0.00000000    0.00000000
     atom    8 type  2   force =     0.00000000    0.00000000    0.00000000
     atom    9 type  2   force =     0.00000000    0.00000000    0.00000000
     atom   10 type  1   force =     0.00000000    0.00000000    0.00000000
     atom   11 type  2   force =     0.00000000    0.00000000    0.00000000
     atom   12 type  2   force =     0.00000000    0.00000000    0.00000000
     atom   13 type  1   force =     0.00000000    0.00000000    0.00000000
     atom   14 type  2   force =     0.00000000    0.00000000    0.00000000
     atom   15 type  2   force =     0.00000000    0.00000000    0.00000000
     atom   16 type  1   force =     0.00000000    0.00000000    0.00000000
     atom   17 type  2   force =     0.00000000    0.00000000    0.00000000
     atom   18 type  2   force =     0.00000000    0.00000000    0.00000000
     atom   19 type  1   force =     0.00000000    0.00000000    0.00000000
     atom   20 type  2   force =     0.00000000    0.00000000    0.00000000
     atom   21 type  1   force =     0.00000000    0.00000000    0.00000000
     atom   22 type  2   force =     0.00000000    0.00000000    0.00000000
     atom   23 type  2   force =     0.00000000    0.00000000    0.00000000
     atom   24 type  1   force =     0.00000000    0.00000000    0.00000000
     atom   25 type  2   force =     0.00000000    0.00000000    0.00000000
     atom   26 type  2   force =     0.00000000    0.00000000    0.00000000
     atom   27 type  1   force =     0.00000000    0.00000000    0.00000000
     atom   28 type  2   force =     0.00000000    0.00000000    0.00000000
     atom   29 type  2   force =     0.00000000    0.00000000    0.00000000
     atom   30 type  1   force =     0.00000000    0.00000000    0.00000000
     atom   31 type  2   force =     0.00000000    0.00000000    0.00000000
     atom   32 type  2   force =     0.00000000    0.00000000    0.00000000
     atom   33 type  1   force =     0.00000000    0.00000000    0.00000000
     atom   34 type  2   force =     0.00000000    0.00000000    0.00000000
     atom   35 type  2   force =     0.00000000    0.00000000    0.00000000
     atom   36 type  3   force =     0.00000000    0.00000000    0.00000000
     The SCF correction term to forces
     atom    1 type  1   force =    -0.00001364    0.00002633    0.00004990
     atom    2 type  2   force =    -0.00000649    0.00002403    0.00001275
     atom    3 type  2   force =     0.00000241    0.00000786    0.00000080
     atom    4 type  1   force =     0.00001161   -0.00000337    0.00004509
     atom    5 type  2   force =    -0.00001852    0.00000154    0.00003829
     atom    6 type  2   force =     0.00001153   -0.00000441    0.00001292
     atom    7 type  1   force =    -0.00000257   -0.00003714    0.00002412
     atom    8 type  2   force =    -0.00000159   -0.00002088    0.00000705
     atom    9 type  2   force =     0.00001011   -0.00000065    0.00000972
     atom   10 type  1   force =     0.00000450    0.00001658   -0.00001604
     atom   11 type  2   force =    -0.00000878   -0.00001013    0.00000996
     atom   12 type  2   force =     0.00000237   -0.00000558   -0.00000127
     atom   13 type  1   force =     0.00000902    0.00003225    0.00007054
     atom   14 type  2   force =    -0.00001213    0.00003495    0.00001277
     atom   15 type  2   force =    -0.00000747    0.00000522    0.00001531
     atom   16 type  1   force =     0.00000375   -0.00001984    0.00011200
     atom   17 type  2   force =     0.00000897   -0.00000456    0.00004760
     atom   18 type  2   force =    -0.00001403   -0.00001354    0.00002077
     atom   19 type  1   force =    -0.00001571   -0.00003558    0.00004877
     atom   20 type  2   force =     0.00000970    0.00000525    0.00001803
     atom   21 type  1   force =    -0.00001372    0.00002656    0.00001590
     atom   22 type  2   force =     0.00000121   -0.00000676    0.00001154
     atom   23 type  2   force =    -0.00000263    0.00000310    0.00000616
     atom   24 type  1   force =     0.00000580    0.00003595    0.00001579
     atom   25 type  2   force =     0.00001851    0.00002505    0.00000664
     atom   26 type  2   force =     0.00000623    0.00000918    0.00000808
     atom   27 type  1   force =    -0.00000784   -0.00001179    0.00006760
     atom   28 type  2   force =     0.00000558    0.00000957    0.00000693
     atom   29 type  2   force =     0.00000163    0.00000555    0.00001450
     atom   30 type  1   force =     0.00000740   -0.00004296    0.00000320
     atom   31 type  2   force =     0.00000904   -0.00002428    0.00001272
     atom   32 type  2   force =    -0.00001687   -0.00000327    0.00001682
     atom   33 type  1   force =     0.00001247    0.00001412    0.00000160
     atom   34 type  2   force =     0.00000751   -0.00001191    0.00000384
     atom   35 type  2   force =     0.00000048   -0.00000981   -0.00000158
     atom   36 type  3   force =     0.00000492    0.00000139   -0.00000352

     Total force =     0.006186     Total SCF correction =     0.000232
     Energy error            =      7.8E-05 Ry
     Gradient error          =      1.7E-03 Ry/Bohr

     bfgs converged in  31 scf cycles and  30 bfgs steps
     (criteria: energy <  1.0E-04 Ry, force <  1.0E-02 Ry/Bohr)

     End of BFGS Geometry Optimization

     Final energy             =   -2205.5945491713 Ry

     File ./MoS2-V-O.bfgs deleted, as requested
Begin final coordinates

ATOMIC_POSITIONS (angstrom)
Mo            6.5354893133        1.7620931059        2.7554704631
S             8.1108523184        0.8561492551        4.3615084686
S             8.1193504202        0.8534888092        1.1707654265
Mo            8.1001562803        4.4985582227        2.7186767665
S             6.4933302409        3.6714880420        4.2954188800
S             6.5241295862        3.5746634385        1.1193332641
Mo            6.5048804656        7.2415561795        2.6474679518
S             8.0543494368        6.3248454912        4.2948123135
S             8.1241464144        6.3225872551        1.1112936517
Mo            8.1141418027        9.9464043314        2.7586780827
S             6.5026878526        8.9670966897        4.3314534606
S             6.5699199228        9.0640916841        1.1047895384
Mo            3.3956938551        1.7342361076        2.7779198482
S             4.9858180534        0.8108584917        4.3541059330
S             4.9669351198        0.8467613690        1.1691877511
Mo            4.9408304465        4.5438490230        2.6623647950
S             3.3993750878        3.6511544984        4.2687963122
S             3.3843319078        3.5525225117        1.1351013850
Mo            3.4742217567        7.1680363862        2.6827661476
S             4.9896803737        6.3075587505        1.0496234879
Mo            4.9815451171        9.9166780177        2.7314597392
S             3.4542555101        8.9459107501        4.3283365138
S             3.3830408741        9.0248479268        1.1349701154
Mo            0.2453384800        1.7481229192        2.7639803467
S             1.8231408157        0.8316524599        4.3785408302
S             1.8289424871        0.8338202666        1.1745932273
Mo            1.8002638336        4.4964078306        2.7177150191
S             0.2156587071        3.6096398522        4.3212503675
S             0.2270890395        3.5629470260        1.1383961246
Mo            0.2456320885        7.2176228953        2.7335182940
S             1.8816211957        6.3165203575        4.3129198221
S             1.8308616145        6.3229281409        1.1166579537
Mo            1.8300341889        9.9312573749        2.7710190982
S             0.2380390741        9.0225268577        4.3521798396
S             0.2487069126        9.0519433438        1.1702829034
H             3.0493586406        3.5930874154        5.6049857493
End final coordinates



     Writing all to output data dir ./MoS2-V-O.save/
 
     init_run     :      2.40s CPU      2.66s WALL (       1 calls)
     electrons    :   2783.50s CPU   3097.60s WALL (      31 calls)
     update_pot   :     42.21s CPU     44.35s WALL (      30 calls)
     forces       :     40.20s CPU     46.08s WALL (      31 calls)

     Called by init_run:
     wfcinit      :      0.39s CPU      0.43s WALL (       1 calls)
     potinit      :      1.33s CPU      1.45s WALL (       1 calls)
     hinit0       :      0.17s CPU      0.19s WALL (       1 calls)

     Called by electrons:
     c_bands      :    317.81s CPU    322.63s WALL (     265 calls)
     sum_band     :     76.67s CPU     93.98s WALL (     265 calls)
     v_of_rho     :    106.67s CPU    128.43s WALL (     278 calls)
     newd         :     36.29s CPU     52.58s WALL (     278 calls)
     mix_rho      :   2258.56s CPU   2511.69s WALL (     265 calls)

     Called by c_bands:
     init_us_2    :      5.63s CPU      6.11s WALL (     531 calls)
     init_us_2:cp :      5.63s CPU      6.10s WALL (     531 calls)
     regterg      :    298.07s CPU    302.33s WALL (     265 calls)

     Called by *egterg:
     rdiaghg      :     24.29s CPU     24.61s WALL (    1383 calls)
     h_psi        :    172.87s CPU    174.52s WALL (    1432 calls)
     s_psi        :     21.78s CPU     21.85s WALL (    1432 calls)
     g_psi        :      1.12s CPU      1.13s WALL (    1166 calls)

     Called by h_psi:
     h_psi:calbec :     23.88s CPU     24.00s WALL (    1432 calls)
     vloc_psi     :    125.02s CPU    126.38s WALL (    1432 calls)
     add_vuspsi   :     21.45s CPU     21.61s WALL (    1432 calls)

     General routines
     calbec       :     34.24s CPU     34.41s WALL (    1821 calls)
     fft          :     70.06s CPU     82.92s WALL (   18773 calls)
     ffts         :   1016.17s CPU   1260.92s WALL (  553643 calls)
     fftw         :    107.22s CPU    108.25s WALL (  160463 calls)
     interpolate  :      1.98s CPU      2.36s WALL (     278 calls)
 
     Parallel routines
 
     PWSCF        :  47m53.77s CPU  53m19.54s WALL

 
   This run was terminated on:   1: 9:43   4Nov2023            

=------------------------------------------------------------------------------=
   JOB DONE.
=------------------------------------------------------------------------------=
