
     Program PWSCF v.7.2 starts on  4Nov2023 at  7:16:44 

     This program is part of the open-source Quantum ESPRESSO suite
     for quantum simulation of materials; please cite
         "P. Giannozzi et al., J. Phys.:Condens. Matter 21 395502 (2009);
         "P. Giannozzi et al., J. Phys.:Condens. Matter 29 465901 (2017);
         "P. Giannozzi et al., J. Chem. Phys. 152 154105 (2020);
          URL http://www.quantum-espresso.org", 
     in publications or presentations arising from this work. More details at
     http://www.quantum-espresso.org/quote

     Parallel version (MPI & OpenMP), running on      48 processor cores
     Number of MPI processes:                48
     Threads/MPI process:                     1

     MPI processes distributed on     1 nodes
     87865 MiB available memory on the printing compute node when the environment starts
 
     Waiting for input...
     Reading input from standard input
Warning: card &CELL ignored
Warning: card CELL_DYNAMICS = 'BFGS', ignored
Warning: card CELL_DOFREE = '2DXY' ignored
Warning: card / ignored

     Current dimensions of program PWSCF are:
     Max number of different atomic species (ntypx) = 10
     Max number of k-points (npk) =  40000
     Max angular momentum in pseudopotentials (lmaxx) =  4

     IMPORTANT: XC functional enforced from input :
     Exchange-correlation= RVV10
                           (   1   4  13   4  26   0   0)
     Any further DFT definition will be discarded
     Please, verify this is what you really want


     gamma-point specific algorithms are used
     signal trapping enabled: kill the code with -SIGUSR1 to stop cleanly the simulation 
 
     R & G space division:  proc/nbgrp/npool/nimage =      48
     Subspace diagonalization in iterative solution of the eigenvalue problem:
     one sub-group per band group will be used
     scalapack distributed-memory algorithm (size of sub-group:  2*  2 procs)

 
     Parallelization info
     --------------------
     sticks:   dense  smooth     PW     G-vecs:    dense   smooth      PW
     Min         243     194     47                49060    35090    4376
     Max         246     196     50                49086    35128    4410
     Sum       11735    9389   2349              2355467  1685513  210763
 
     Using Slab Decomposition
 


     bravais-lattice index     =            0
     lattice parameter (alat)  =      17.8707  a.u.
     unit-cell volume          =   17436.2743 (a.u.)^3
     number of atoms/cell      =           36
     number of atomic types    =            3
     number of electrons       =       307.00
     number of Kohn-Sham states=          185
     kinetic-energy cutoff     =      80.0000  Ry
     charge density cutoff     =     400.0000  Ry
     scf convergence threshold =      1.0E-06
     mixing beta               =       0.7000
     number of iterations used =            8  local-TF  mixing
     energy convergence thresh.=      1.0E-04
     force convergence thresh. =      1.0E-02
     Exchange-correlation= RVV10
                           (   1   4  13   4  26   0   0)
     nstep                     =          200


     celldm(1)=  17.870686  celldm(2)=   0.000000  celldm(3)=   0.000000
     celldm(4)=   0.000000  celldm(5)=   0.000000  celldm(6)=   0.000000

     crystal axes: (cart. coord. in units of alat)
               a(1) = (   1.000000   0.000000   0.000000 )  
               a(2) = (   0.000000   1.155671   0.000000 )  
               a(3) = (   0.000000   0.000000   2.643601 )  

     reciprocal axes: (cart. coord. in units 2 pi/alat)
               b(1) = (  1.000000  0.000000  0.000000 )  
               b(2) = (  0.000000  0.865298  0.000000 )  
               b(3) = (  0.000000  0.000000  0.378272 )  


     PseudoPot. # 1 for Mo read from file:
     ../pseudo/Mo_ONCV_PBE-1.0.oncvpsp.upf
     MD5 check sum: 1b5d28e075c9ccadda658a603575cd1f
     Pseudo is Norm-conserving, Zval = 14.0
     Generated using ONCVPSP code by D. R. Hamann
     Using radial grid of 1526 points,  6 beta functions with: 
                l(1) =   0
                l(2) =   0
                l(3) =   1
                l(4) =   1
                l(5) =   2
                l(6) =   2

     PseudoPot. # 2 for S  read from file:
     ../pseudo/s_pbe_v1.4.uspp.F.UPF
     MD5 check sum: 88d86576ff6df21479756cfb9bdac1df
     Pseudo is Ultrasoft + core correction, Zval =  6.0
     Generated by new atomic code, or converted to UPF format
     Using radial grid of  907 points,  6 beta functions with: 
                l(1) =   0
                l(2) =   0
                l(3) =   1
                l(4) =   1
                l(5) =   2
                l(6) =   2
     Q(r) pseudized with  8 coefficients,  rinner =    1.300   1.300   1.300
                                                       1.300   1.300

     PseudoPot. # 3 for H  read from file:
     ../pseudo/H_ONCV_PBE-1.0.oncvpsp.upf
     MD5 check sum: 1790becc920ee074925cf490c71280fe
     Pseudo is Norm-conserving, Zval =  1.0
     Generated using ONCVPSP code by D. R. Hamann
     Using radial grid of 1166 points,  2 beta functions with: 
                l(1) =   0
                l(2) =   0

     atomic species   valence    mass     pseudopotential
        Mo            14.00    95.94000     Mo( 1.00)
        S              6.00    32.06500     S ( 1.00)
        H              1.00     1.00794     H ( 1.00)

     No symmetry found



   Cartesian axes

     site n.     atom                  positions (alat units)
         1           Mo  tau(   1) = (   0.6952221   0.1890506   0.2985846  )
         2           S   tau(   2) = (   0.8646417   0.0856217   0.4689279  )
         3           S   tau(   3) = (   0.8663890   0.0857843   0.1351291  )
         4           Mo  tau(   4) = (   0.8560186   0.4753274   0.2873942  )
         5           S   tau(   5) = (   0.6873294   0.3936244   0.4596353  )
         6           S   tau(   6) = (   0.6929804   0.3713468   0.1185692  )
         7           Mo  tau(   7) = (   0.6862796   0.7633098   0.2825370  )
         8           S   tau(   8) = (   0.8545980   0.6708292   0.4486168  )
         9           S   tau(   9) = (   0.8545123   0.6666874   0.1146125  )
        10           Mo  tau(  10) = (   0.8629403   1.0471007   0.3006803  )
        11           S   tau(  11) = (   0.6868280   0.9456650   0.4634891  )
        12           S   tau(  12) = (   0.6998113   0.9568511   0.1205389  )
        13           Mo  tau(  13) = (   0.3618216   0.1847309   0.2935964  )
        14           S   tau(  14) = (   0.5260962   0.0863870   0.4600448  )
        15           S   tau(  15) = (   0.5348379   0.0894875   0.1297123  )
        16           Mo  tau(  16) = (   0.5265817   0.4772436   0.2784130  )
        17           S   tau(  17) = (   0.3624753   0.3882513   0.4525556  )
        18           S   tau(  18) = (   0.3635411   0.3752055   0.1119148  )
        19           Mo  tau(  19) = (   0.3652268   0.7630864   0.2781795  )
        20           S   tau(  20) = (   0.5269494   0.6690381   0.1096838  )
        21           Mo  tau(  21) = (   0.5300192   1.0470394   0.2900995  )
        22           S   tau(  22) = (   0.3670346   0.9457522   0.4574073  )
        23           S   tau(  23) = (   0.3604225   0.9585725   0.1159032  )
        24           Mo  tau(  24) = (   0.0313099   0.1847895   0.3013130  )
        25           S   tau(  25) = (   0.1956761   0.0838230   0.4650863  )
        26           S   tau(  26) = (   0.1967693   0.0903508   0.1278874  )
        27           Mo  tau(  27) = (   0.1967578   0.4753919   0.2813011  )
        28           S   tau(  28) = (   0.0287851   0.3864324   0.4586755  )
        29           S   tau(  29) = (   0.0244514   0.3729871   0.1239344  )
        30           Mo  tau(  30) = (   0.0286728   0.7631204   0.2856894  )
        31           S   tau(  31) = (   0.2011512   0.6675435   0.4465001  )
        32           S   tau(  32) = (   0.1969214   0.6672839   0.1104564  )
        33           Mo  tau(  33) = (   0.1950294   1.0511147   0.2932237  )
        34           S   tau(  34) = (   0.0312912   0.9612169   0.4667423  )
        35           S   tau(  35) = (   0.0292670   0.9563028   0.1216485  )
        36           H   tau(  36) = (   0.6666667   0.0000000   0.5407634  )

     number of k points=     1  Gaussian smearing, width (Ry)=  0.0100
                       cart. coord. in units 2pi/alat
        k(    1) = (   0.0000000   0.0000000   0.0000000), wk =   2.0000000

     Dense  grid:  1177734 G-vectors     FFT dimensions: ( 120, 135, 320)

     Smooth grid:   842757 G-vectors     FFT dimensions: ( 108, 120, 270)

     Estimated max dynamical RAM per process >     146.59 MB

     Estimated total dynamical RAM >       6.87 GB

     Initial potential from superposition of free atoms

     starting charge     306.9873, renormalised to     307.0000

     negative rho (up, down):  1.418E-04 0.000E+00


---------------------------------------------------------------------------------
Carrying out rVV10 run using the following parameters:
Nqs =      20    Nr_points =    1024   r_max =   100.000
b_value =  6.30000    beta =  0.00901
     q_mesh =  0.00010000  0.00030000  0.00058939  0.00100810
               0.00161396  0.00249058  0.00375900  0.00559430
               0.00824984  0.01209221  0.01765183  0.02569619
               0.03733578  0.05417739  0.07854596  0.11380545
               0.16482331  0.23864234  0.34545298  0.50000000

Gradients computed in Reciprocal space

---------------------------------------------------------------------------------


     Starting wfcs are  213 randomized atomic wfcs

     total cpu time spent up to now is        3.4 secs

     Self-consistent Calculation

     iteration #  1     ecut=    80.00 Ry     beta= 0.70
     Davidson diagonalization with overlap
     ethr =  1.00E-02,  avg # of iterations =  2.0

     Threshold (ethr) on eigenvalues was too large:
     Diagonalizing with lowered threshold

     Davidson diagonalization with overlap
     ethr =  3.57E-04,  avg # of iterations =  4.0

     negative rho (up, down):  2.332E-08 0.000E+00

     total cpu time spent up to now is       21.9 secs

     total energy              =   -2205.58087901 Ry
     estimated scf accuracy    <       1.37959523 Ry

     iteration #  2     ecut=    80.00 Ry     beta= 0.70
     Davidson diagonalization with overlap
     ethr =  4.49E-04,  avg # of iterations =  2.0

     total cpu time spent up to now is       24.2 secs

     total energy              =   -2205.43659424 Ry
     estimated scf accuracy    <       0.55597010 Ry

     iteration #  3     ecut=    80.00 Ry     beta= 0.70
     Davidson diagonalization with overlap
     ethr =  1.81E-04,  avg # of iterations =  2.0

     total cpu time spent up to now is       26.5 secs

     total energy              =   -2205.50662708 Ry
     estimated scf accuracy    <       0.09668450 Ry

     iteration #  4     ecut=    80.00 Ry     beta= 0.70
     Davidson diagonalization with overlap
     ethr =  3.15E-05,  avg # of iterations = 10.0

     total cpu time spent up to now is       29.3 secs

     total energy              =   -2205.51458500 Ry
     estimated scf accuracy    <       0.02876959 Ry

     iteration #  5     ecut=    80.00 Ry     beta= 0.70
     Davidson diagonalization with overlap
     ethr =  9.37E-06,  avg # of iterations =  3.0

     total cpu time spent up to now is       31.5 secs

     total energy              =   -2205.51465197 Ry
     estimated scf accuracy    <       0.01721626 Ry

     iteration #  6     ecut=    80.00 Ry     beta= 0.70
     Davidson diagonalization with overlap
     ethr =  5.61E-06,  avg # of iterations =  2.0

     total cpu time spent up to now is       33.6 secs

     total energy              =   -2205.51361726 Ry
     estimated scf accuracy    <       0.01247019 Ry

     iteration #  7     ecut=    80.00 Ry     beta= 0.70
     Davidson diagonalization with overlap
     ethr =  4.06E-06,  avg # of iterations =  2.0

     total cpu time spent up to now is       37.2 secs

     total energy              =   -2205.51183876 Ry
     estimated scf accuracy    <       0.00752649 Ry

     iteration #  8     ecut=    80.00 Ry     beta= 0.70
     Davidson diagonalization with overlap
     c_bands:  2 eigenvalues not converged
     ethr =  2.45E-06,  avg # of iterations = 20.0

     negative rho (up, down):  5.454E-03 0.000E+00

     total cpu time spent up to now is       42.3 secs

     total energy              =   -2205.51163693 Ry
     estimated scf accuracy    <       0.00352082 Ry

     iteration #  9     ecut=    80.00 Ry     beta= 0.70
     Davidson diagonalization with overlap
     ethr =  1.15E-06,  avg # of iterations =  9.0

     negative rho (up, down):  2.838E-02 0.000E+00

     total cpu time spent up to now is       47.2 secs

     total energy              =   -2205.51152491 Ry
     estimated scf accuracy    <       0.00218155 Ry

     iteration # 10     ecut=    80.00 Ry     beta= 0.70
     Davidson diagonalization with overlap
     ethr =  7.11E-07,  avg # of iterations =  2.0

     negative rho (up, down):  2.969E-02 0.000E+00

     total cpu time spent up to now is       52.4 secs

     total energy              =   -2205.51160391 Ry
     estimated scf accuracy    <       0.00085808 Ry

     iteration # 11     ecut=    80.00 Ry     beta= 0.70
     Davidson diagonalization with overlap
     ethr =  2.80E-07,  avg # of iterations =  2.0

     negative rho (up, down):  1.556E-02 0.000E+00

     total cpu time spent up to now is       57.5 secs

     total energy              =   -2205.51163493 Ry
     estimated scf accuracy    <       0.00021664 Ry

     iteration # 12     ecut=    80.00 Ry     beta= 0.70
     Davidson diagonalization with overlap
     ethr =  7.06E-08,  avg # of iterations =  2.0

     negative rho (up, down):  3.715E-03 0.000E+00

     total cpu time spent up to now is       64.6 secs

     total energy              =   -2205.51169772 Ry
     estimated scf accuracy    <       0.00003772 Ry

     iteration # 13     ecut=    80.00 Ry     beta= 0.70
     Davidson diagonalization with overlap
     ethr =  1.23E-08,  avg # of iterations =  5.0

     negative rho (up, down):  6.902E-04 0.000E+00

     total cpu time spent up to now is       72.4 secs

     total energy              =   -2205.51170946 Ry
     estimated scf accuracy    <       0.00000294 Ry

     iteration # 14     ecut=    80.00 Ry     beta= 0.70
     Davidson diagonalization with overlap
     ethr =  9.58E-10,  avg # of iterations =  5.0

     negative rho (up, down):  1.380E-04 0.000E+00

     total cpu time spent up to now is       74.8 secs

     End of self-consistent calculation

          k = 0.0000 0.0000 0.0000 (105382 PWs)   bands (ev):

   -62.8796 -62.8721 -62.8670 -62.8575 -62.8401 -62.8233 -62.8135 -62.8023
   -62.7937 -62.7928 -62.7677 -62.7521 -37.2337 -37.1623 -37.1549 -37.1471
   -37.1367 -37.1125 -37.0837 -37.0771 -37.0764 -37.0612 -37.0590 -37.0432
   -37.0396 -37.0371 -37.0231 -37.0167 -37.0093 -37.0037 -36.9975 -36.9780
   -36.9734 -36.9549 -36.9498 -36.9394 -36.9297 -36.9268 -36.9198 -36.9085
   -36.8906 -36.8862 -36.8781 -36.8631 -36.8521 -36.7969 -36.7501 -36.7148
   -16.0469 -15.2976 -15.1873 -15.0016 -14.9667 -14.8982 -14.5418 -14.5053
   -14.4838 -14.4716 -14.4224 -14.3832 -14.3751 -14.2933 -14.1706 -14.1641
   -14.1196 -14.1114 -14.0690 -13.9164 -13.8519 -13.8351 -13.8081  -8.2518
    -7.6338  -7.4677  -7.3014  -7.2918  -7.2472  -7.2049  -7.1362  -6.9699
    -6.8478  -6.7815  -6.7603  -6.6887  -6.6152  -6.5170  -6.4655  -6.4256
    -6.3786  -6.2887  -6.0306  -5.9934  -5.9319  -5.8550  -5.8301  -5.8105
    -5.7709  -5.7456  -5.6852  -5.6656  -5.6207  -5.5836  -5.5510  -5.4648
    -5.4399  -5.3918  -5.2142  -5.1467  -5.0561  -5.0289  -5.0008  -4.9352
    -4.9281  -4.8366  -4.7121  -4.5278  -4.3705  -4.3277  -4.2750  -4.2419
    -4.1918  -4.1547  -4.0087  -3.9766  -3.8354  -3.7941  -3.7589  -3.6938
    -3.6462  -3.5717  -3.5442  -3.5047  -3.4945  -3.4680  -3.4390  -3.4109
    -3.3940  -3.2224  -3.1494  -2.9158  -2.9133  -2.8025  -2.7783  -2.7408
    -2.7193  -2.6891  -2.6540  -2.6474  -2.5706  -2.2953  -2.0879  -2.0037
    -1.9213  -1.0137  -0.8071  -0.6716  -0.1940  -0.1321  -0.1014  -0.0427
     0.0213   0.1158   0.1574   0.2086   0.2502   0.2761   0.3591   0.4247
     0.4562   0.5163   0.5385   0.5696   0.5955   0.6553   0.6934   0.7409
     0.7446   0.7953   0.8234   0.8758   0.9387   0.9739   1.0398   1.3407
     1.3805

     the Fermi energy is    -1.0172 ev

!    total energy              =   -2205.51171542 Ry
     estimated scf accuracy    <       0.00000046 Ry
     smearing contrib. (-TS)   =      -0.00616660 Ry
     internal energy E=F+TS    =   -2205.50554881 Ry

     The total energy is F=E-TS. E is the sum of the following terms:
     one-electron contribution =  -18054.16055480 Ry
     hartree contribution      =    9013.73169029 Ry
     xc contribution           =    -385.25540586 Ry
     ewald contribution        =    7220.17872156 Ry

     convergence has been achieved in  14 iterations

     negative rho (up, down):  1.380E-04 0.000E+00

     Forces acting on atoms (cartesian axes, Ry/au):

     atom    1 type  1   force =     0.01397458   -0.01617884   -0.00841612
     atom    2 type  2   force =    -0.02888691    0.00721766    0.00929155
     atom    3 type  2   force =    -0.01215648    0.00971936   -0.00326500
     atom    4 type  1   force =     0.00713829   -0.00091308   -0.00262676
     atom    5 type  2   force =    -0.00066280   -0.00501529   -0.00650938
     atom    6 type  2   force =     0.00262517    0.01211141    0.00120212
     atom    7 type  1   force =     0.00257916   -0.01502776   -0.01902796
     atom    8 type  2   force =     0.00190984   -0.00443692    0.01768620
     atom    9 type  2   force =     0.01046729    0.00632377    0.01238520
     atom   10 type  1   force =    -0.00841943    0.00763696   -0.03166400
     atom   11 type  2   force =     0.00563497    0.02261762    0.00441594
     atom   12 type  2   force =    -0.00084125    0.00041408    0.00610553
     atom   13 type  1   force =    -0.01559922    0.01913014   -0.03055803
     atom   14 type  2   force =     0.05910969   -0.03105968    0.05066475
     atom   15 type  2   force =    -0.01309289    0.00327964   -0.00939755
     atom   16 type  1   force =    -0.00288044    0.00604778    0.00149672
     atom   17 type  2   force =     0.00451021    0.00017757    0.00573825
     atom   18 type  2   force =    -0.00311562   -0.00830511    0.01276673
     atom   19 type  1   force =     0.00560152   -0.01616984   -0.00407373
     atom   20 type  2   force =     0.00467103   -0.00506407    0.00222084
     atom   21 type  1   force =    -0.00647268   -0.00198627   -0.01288272
     atom   22 type  2   force =    -0.00393237   -0.00178441   -0.00209125
     atom   23 type  2   force =    -0.00420848    0.00244599    0.00738863
     atom   24 type  1   force =    -0.00130534    0.00246214   -0.02774187
     atom   25 type  2   force =     0.01554751    0.01803586    0.00892450
     atom   26 type  2   force =    -0.01072914   -0.00195732   -0.00526523
     atom   27 type  1   force =    -0.00040630    0.00207257    0.00751876
     atom   28 type  2   force =     0.00130573   -0.00062697   -0.00461698
     atom   29 type  2   force =     0.00305059   -0.00153560   -0.00212580
     atom   30 type  1   force =    -0.00469648    0.01259225   -0.00626350
     atom   31 type  2   force =     0.00073516    0.00007596    0.01602354
     atom   32 type  2   force =    -0.00869729    0.00693039    0.00783374
     atom   33 type  1   force =     0.01377843   -0.00255392   -0.00961396
     atom   34 type  2   force =     0.00349455   -0.04337304   -0.00917840
     atom   35 type  2   force =    -0.00620536    0.00529561    0.01389760
     atom   36 type  3   force =    -0.02382522    0.01140135    0.00975763
     The non-local contrib.  to forces
     atom    1 type  1   force =    -0.00176605    0.03202513   -0.00712870
     atom    2 type  2   force =    -0.04709662   -0.01158850   -0.23077571
     atom    3 type  2   force =    -0.01638064   -0.00239020    0.27122646
     atom    4 type  1   force =     0.00065334    0.00529869    0.00427783
     atom    5 type  2   force =     0.00553595   -0.03568961   -0.25084416
     atom    6 type  2   force =    -0.00187035    0.01039244    0.26361900
     atom    7 type  1   force =    -0.01872415    0.00183873   -0.02184647
     atom    8 type  2   force =     0.00600021   -0.00439064   -0.25355417
     atom    9 type  2   force =     0.00684596   -0.00837761    0.27834195
     atom   10 type  1   force =     0.00446263    0.00110239    0.00058088
     atom   11 type  2   force =     0.01376692    0.04997116   -0.20415695
     atom   12 type  2   force =    -0.01210362   -0.01656249    0.26349117
     atom   13 type  1   force =     0.00516656    0.01272444   -0.00325177
     atom   14 type  2   force =     0.15744972   -0.09397835   -0.12760597
     atom   15 type  2   force =    -0.01192810   -0.00646372    0.26185880
     atom   16 type  1   force =     0.00218520    0.03247925   -0.02853872
     atom   17 type  2   force =     0.00134514   -0.02584636   -0.24823285
     atom   18 type  2   force =    -0.00518616   -0.00537159    0.27550191
     atom   19 type  1   force =     0.01408267    0.00039979   -0.01673674
     atom   20 type  2   force =    -0.00021546   -0.02107907    0.26625721
     atom   21 type  1   force =     0.00152180    0.02440080    0.01197189
     atom   22 type  2   force =    -0.00775180    0.00495927   -0.25487120
     atom   23 type  2   force =     0.00547228   -0.01539014    0.26911129
     atom   24 type  1   force =     0.00316366    0.01475957   -0.00941025
     atom   25 type  2   force =     0.00616745    0.00461229   -0.24843379
     atom   26 type  2   force =    -0.00235425   -0.01035634    0.26658600
     atom   27 type  1   force =    -0.00372449    0.00895844    0.00913651
     atom   28 type  2   force =    -0.00360799   -0.02225235   -0.27299603
     atom   29 type  2   force =     0.00692342    0.00194556    0.26447321
     atom   30 type  1   force =     0.00063150    0.01629144    0.01077709
     atom   31 type  2   force =    -0.00762289    0.00175698   -0.25297008
     atom   32 type  2   force =    -0.00229257   -0.01047046    0.27343719
     atom   33 type  1   force =    -0.00500282    0.00552235    0.00647098
     atom   34 type  2   force =    -0.00157417   -0.03676270   -0.27203176
     atom   35 type  2   force =    -0.00120117   -0.01067881    0.27153813
     atom   36 type  3   force =    -0.01059152    0.00614872   -0.00895539
     The ionic contribution  to forces
     atom    1 type  1   force =     0.46380732    0.74747259    5.10611645
     atom    2 type  2   force =    -0.06652809    0.67087156   39.08200001
     atom    3 type  2   force =    -0.11089182    0.04281787  -36.17629003
     atom    4 type  1   force =     0.15171163    0.67934093    0.65174116
     atom    5 type  2   force =    -0.95695923    1.66995122   38.73090878
     atom    6 type  2   force =     0.34899430   -0.45491540  -38.05340629
     atom    7 type  1   force =    -2.60300002   -2.99896031    2.46769173
     atom    8 type  2   force =    -0.94941926   -0.02667459   37.39350288
     atom    9 type  2   force =     0.35425286   -0.05232002  -38.00400960
     atom   10 type  1   force =    -0.68554944   -0.56377873    5.19985043
     atom   11 type  2   force =    -0.49899769   -2.27764524   38.91599843
     atom   12 type  2   force =     0.45136939    0.63537192  -37.94126355
     atom   13 type  1   force =     0.26348585    1.15853016    2.69966770
     atom   14 type  2   force =    -0.76788207    0.50813097   38.06126635
     atom   15 type  2   force =     0.11542068   -0.03144903  -36.91711210
     atom   16 type  1   force =    -0.07120088    4.05207688    0.45609995
     atom   17 type  2   force =     0.75720843    1.58085572   37.93552889
     atom   18 type  2   force =    -0.17816121   -0.61764200  -38.57047396
     atom   19 type  1   force =     2.64044621   -2.56113110    0.62994299
     atom   20 type  2   force =     0.21886221   -0.21485609  -38.48127876
     atom   21 type  1   force =    -0.33260052   -0.26068280    0.52883745
     atom   22 type  2   force =     0.29754949   -1.85155082   38.40162541
     atom   23 type  2   force =    -0.11817693    0.63428813  -38.32217616
     atom   24 type  1   force =    -0.39057451    1.27477545    5.74196850
     atom   25 type  2   force =     0.62484283    0.31629797   39.26303074
     atom   26 type  2   force =    -0.29649216    0.07795410  -37.35558328
     atom   27 type  1   force =     0.01364065    0.45787567   -2.23100976
     atom   28 type  2   force =     0.09309508    1.07299604   38.21423924
     atom   29 type  2   force =    -0.25078795   -0.40105367  -37.26696267
     atom   30 type  1   force =    -0.27966247   -1.00095830   -0.04070926
     atom   31 type  2   force =     1.21907337   -0.07947798   37.34120981
     atom   32 type  2   force =    -0.48323909   -0.01580042  -38.62334745
     atom   33 type  1   force =     0.75253675   -0.92110063    1.99529584
     atom   34 type  2   force =     0.35274076   -1.53382359   39.34342518
     atom   35 type  2   force =    -0.27534162    0.44981867  -37.83755496
     atom   36 type  3   force =     0.19642717   -0.16560514    7.66122990
     The local contribution  to forces
     atom    1 type  1   force =    -0.44807307   -0.79544324   -5.10679062
     atom    2 type  2   force =     0.08233686   -0.65276313  -38.86027153
     atom    3 type  2   force =     0.11438994   -0.03069198   35.92283836
     atom    4 type  1   force =    -0.14525766   -0.68592191   -0.65823376
     atom    5 type  2   force =     0.95134575   -1.64143170  -38.50657459
     atom    6 type  2   force =    -0.34477452    0.45769413   37.81194302
     atom    7 type  1   force =     2.62447334    2.98238760   -2.46430128
     atom    8 type  2   force =     0.94551947    0.02611822  -37.14231702
     atom    9 type  2   force =    -0.35047436    0.06643749   37.75903335
     atom   10 type  1   force =     0.67261894    0.57034717   -5.23129871
     atom   11 type  2   force =     0.49150746    2.25351857  -38.72480162
     atom   12 type  2   force =    -0.44119674   -0.61979846   37.70471778
     atom   13 type  1   force =    -0.28434207   -1.15179218   -2.72660385
     atom   14 type  2   force =     0.67894105   -0.45033398  -37.89560383
     atom   15 type  2   force =    -0.11735314    0.04095227   36.66656445
     atom   16 type  1   force =     0.06607746   -4.07935625   -0.42554341
     atom   17 type  2   force =    -0.75402189   -1.55646958  -37.70151425
     atom   18 type  2   force =     0.18010276    0.61494155   38.32891693
     atom   19 type  1   force =    -2.64903057    2.54482373   -0.61678436
     atom   20 type  2   force =    -0.21413227    0.23010558   38.23830754
     atom   21 type  1   force =     0.32466837    0.23430205   -0.55309142
     atom   22 type  2   force =    -0.29385496    1.84540626  -38.16885718
     atom   23 type  2   force =     0.10896758   -0.61778053   38.08137671
     atom   24 type  1   force =     0.38614883   -1.28705252   -5.75948451
     atom   25 type  2   force =    -0.61548722   -0.30239849  -39.02551593
     atom   26 type  2   force =     0.28836630   -0.07002135   37.10484832
     atom   27 type  1   force =    -0.01026538   -0.46514925    2.22969579
     atom   28 type  2   force =    -0.08849523   -1.05320183  -37.96643664
     atom   29 type  2   force =     0.24750577    0.39815402   37.02102841
     atom   30 type  1   force =     0.27425458    0.99729720    0.02402505
     atom   31 type  2   force =    -1.21119235    0.07775394  -37.09242455
     atom   32 type  2   force =     0.47697589    0.03252439   38.37869198
     atom   33 type  1   force =    -0.73380803    0.91317478   -2.01073562
     atom   34 type  2   force =    -0.34821261    1.52621392  -39.10127557
     atom   35 type  2   force =     0.27044386   -0.43486014   37.60104850
     atom   36 type  3   force =    -0.20964336    0.17084791   -7.64245987
     The core correction contribution to forces
     atom    1 type  1   force =     0.00000000    0.00000000    0.00000000
     atom    2 type  2   force =     0.00245843    0.00068359    0.01866653
     atom    3 type  2   force =     0.00073856    0.00000597   -0.02093672
     atom    4 type  1   force =     0.00000000    0.00000000    0.00000000
     atom    5 type  2   force =    -0.00057350    0.00200513    0.02024258
     atom    6 type  2   force =     0.00027468   -0.00108773   -0.02091001
     atom    7 type  1   force =     0.00000000    0.00000000    0.00000000
     atom    8 type  2   force =    -0.00016126    0.00048985    0.02036662
     atom    9 type  2   force =    -0.00012375    0.00051642   -0.02105473
     atom   10 type  1   force =     0.00000000    0.00000000    0.00000000
     atom   11 type  2   force =    -0.00057631   -0.00315803    0.01771439
     atom   12 type  2   force =     0.00112724    0.00138200   -0.02083841
     atom   13 type  1   force =     0.00000000    0.00000000    0.00000000
     atom   14 type  2   force =    -0.00945767    0.00521568    0.01296890
     atom   15 type  2   force =     0.00065994    0.00039485   -0.02062834
     atom   16 type  1   force =     0.00000000    0.00000000    0.00000000
     atom   17 type  2   force =     0.00000690    0.00141532    0.02012723
     atom   18 type  2   force =     0.00011754   -0.00039114   -0.02110012
     atom   19 type  1   force =     0.00000000    0.00000000    0.00000000
     atom   20 type  2   force =     0.00014516    0.00077725   -0.02121785
     atom   21 type  1   force =     0.00000000    0.00000000    0.00000000
     atom   22 type  2   force =     0.00016592   -0.00056700    0.02032446
     atom   23 type  2   force =    -0.00047058    0.00127717   -0.02095586
     atom   24 type  1   force =     0.00000000    0.00000000    0.00000000
     atom   25 type  2   force =     0.00001144   -0.00038323    0.02008962
     atom   26 type  2   force =    -0.00014360    0.00061419   -0.02098132
     atom   27 type  1   force =     0.00000000    0.00000000    0.00000000
     atom   28 type  2   force =     0.00026837    0.00169986    0.02086889
     atom   29 type  2   force =    -0.00058212   -0.00058226   -0.02062907
     atom   30 type  1   force =     0.00000000    0.00000000    0.00000000
     atom   31 type  2   force =     0.00044888    0.00001141    0.02050828
     atom   32 type  2   force =    -0.00015816    0.00062781   -0.02102360
     atom   33 type  1   force =     0.00000000    0.00000000    0.00000000
     atom   34 type  2   force =     0.00043940    0.00111141    0.02105537
     atom   35 type  2   force =    -0.00014446    0.00098393   -0.02111173
     atom   36 type  3   force =     0.00000000    0.00000000    0.00000000
     The Hubbard contrib.    to forces
     atom    1 type  1   force =     0.00000000    0.00000000    0.00000000
     atom    2 type  2   force =     0.00000000    0.00000000    0.00000000
     atom    3 type  2   force =     0.00000000    0.00000000    0.00000000
     atom    4 type  1   force =     0.00000000    0.00000000    0.00000000
     atom    5 type  2   force =     0.00000000    0.00000000    0.00000000
     atom    6 type  2   force =     0.00000000    0.00000000    0.00000000
     atom    7 type  1   force =     0.00000000    0.00000000    0.00000000
     atom    8 type  2   force =     0.00000000    0.00000000    0.00000000
     atom    9 type  2   force =     0.00000000    0.00000000    0.00000000
     atom   10 type  1   force =     0.00000000    0.00000000    0.00000000
     atom   11 type  2   force =     0.00000000    0.00000000    0.00000000
     atom   12 type  2   force =     0.00000000    0.00000000    0.00000000
     atom   13 type  1   force =     0.00000000    0.00000000    0.00000000
     atom   14 type  2   force =     0.00000000    0.00000000    0.00000000
     atom   15 type  2   force =     0.00000000    0.00000000    0.00000000
     atom   16 type  1   force =     0.00000000    0.00000000    0.00000000
     atom   17 type  2   force =     0.00000000    0.00000000    0.00000000
     atom   18 type  2   force =     0.00000000    0.00000000    0.00000000
     atom   19 type  1   force =     0.00000000    0.00000000    0.00000000
     atom   20 type  2   force =     0.00000000    0.00000000    0.00000000
     atom   21 type  1   force =     0.00000000    0.00000000    0.00000000
     atom   22 type  2   force =     0.00000000    0.00000000    0.00000000
     atom   23 type  2   force =     0.00000000    0.00000000    0.00000000
     atom   24 type  1   force =     0.00000000    0.00000000    0.00000000
     atom   25 type  2   force =     0.00000000    0.00000000    0.00000000
     atom   26 type  2   force =     0.00000000    0.00000000    0.00000000
     atom   27 type  1   force =     0.00000000    0.00000000    0.00000000
     atom   28 type  2   force =     0.00000000    0.00000000    0.00000000
     atom   29 type  2   force =     0.00000000    0.00000000    0.00000000
     atom   30 type  1   force =     0.00000000    0.00000000    0.00000000
     atom   31 type  2   force =     0.00000000    0.00000000    0.00000000
     atom   32 type  2   force =     0.00000000    0.00000000    0.00000000
     atom   33 type  1   force =     0.00000000    0.00000000    0.00000000
     atom   34 type  2   force =     0.00000000    0.00000000    0.00000000
     atom   35 type  2   force =     0.00000000    0.00000000    0.00000000
     atom   36 type  3   force =     0.00000000    0.00000000    0.00000000
     The SCF correction term to forces
     atom    1 type  1   force =     0.00000634   -0.00023840   -0.00060317
     atom    2 type  2   force =    -0.00005753    0.00000907   -0.00031767
     atom    3 type  2   force =    -0.00001256   -0.00002738   -0.00009299
     atom    4 type  1   force =     0.00003094    0.00036412   -0.00040191
     atom    5 type  2   force =    -0.00001180    0.00014460   -0.00023191
     atom    6 type  2   force =     0.00000102    0.00002289   -0.00003352
     atom    7 type  1   force =    -0.00017005   -0.00029886   -0.00056186
     atom    8 type  2   force =    -0.00002936    0.00001517   -0.00030202
     atom    9 type  2   force =    -0.00003346    0.00006244    0.00008431
     atom   10 type  1   force =     0.00004840   -0.00003894   -0.00078651
     atom   11 type  2   force =    -0.00006546   -0.00007391   -0.00032823
     atom   12 type  2   force =    -0.00003754    0.00001605    0.00000863
     atom   13 type  1   force =     0.00009040   -0.00033735   -0.00036002
     atom   14 type  2   force =     0.00005862   -0.00009907   -0.00035061
     atom   15 type  2   force =     0.00010770   -0.00015981   -0.00007028
     atom   16 type  1   force =     0.00005775    0.00084282   -0.00051102
     atom   17 type  2   force =    -0.00002841    0.00021739   -0.00016068
     atom   18 type  2   force =     0.00001142    0.00015299   -0.00006794
     atom   19 type  1   force =     0.00010318   -0.00026733   -0.00048554
     atom   20 type  2   force =     0.00001134   -0.00001680    0.00016279
     atom   21 type  1   force =    -0.00006237   -0.00001139   -0.00059056
     atom   22 type  2   force =    -0.00004105   -0.00003719   -0.00030265
     atom   23 type  2   force =    -0.00000087    0.00004628    0.00004273
     atom   24 type  1   force =    -0.00004336   -0.00002542   -0.00080552
     atom   25 type  2   force =     0.00001296   -0.00009775   -0.00023605
     atom   26 type  2   force =    -0.00010546   -0.00015300   -0.00012487
     atom   27 type  1   force =    -0.00005711    0.00038263   -0.00029371
     atom   28 type  2   force =     0.00004545    0.00012623   -0.00028235
     atom   29 type  2   force =    -0.00000856   -0.00000433   -0.00002560
     atom   30 type  1   force =     0.00007988   -0.00004316   -0.00034630
     atom   31 type  2   force =     0.00002812    0.00002653   -0.00028984
     atom   32 type  2   force =     0.00001660    0.00004399    0.00008571
     atom   33 type  1   force =     0.00005249   -0.00015549   -0.00063507
     atom   34 type  2   force =     0.00010113   -0.00011715   -0.00034154
     atom   35 type  2   force =     0.00003799    0.00002688   -0.00001227
     atom   36 type  3   force =    -0.00001754    0.00000478   -0.00004693

     Total force =     0.143215     Total SCF correction =     0.002528

     BFGS Geometry Optimization
     Energy error            =      0.0E+00 Ry
     Gradient error          =      5.9E-02 Ry/Bohr

     number of scf cycles    =   1
     number of bfgs steps    =   0

     energy             new  =   -2205.5117154184 Ry

     new trust radius        =       0.0838187089 bohr
     new conv_thr            =       0.0000010000 Ry


ATOMIC_POSITIONS (angstrom)
Mo            6.5819434358        1.7792447546        2.8191894138
S             8.1614230431        0.8135234463        4.4394552310
S             8.1868001528        0.8163850073        1.2761556649
Mo            8.0989399844        4.4945737608        2.7164283736
S             6.4995585201        3.7197575128        4.3432160318
S             6.5547389774        3.5181466378        1.1219163639
Mo            6.4913465271        7.2104849376        2.6618153194
S             8.0827383710        6.3415230761        4.2518206958
S             8.0864566959        6.3080487135        1.0904169665
Mo            8.1561636776        9.9062217196        2.8267058934
S             6.4981494930        8.9548955436        4.3854423479
S             6.6175020301        9.0489303369        1.1431382110
Mo            3.4134049128        1.7570790861        2.7603005470
S             5.0064449911        0.8005051361        4.3773437249
S             5.0509052947        0.8479976174        1.2216854926
Mo            4.9782324207        4.5163783509        2.6336765781
S             3.4302283621        3.6716936535        4.2827461319
S             3.4362718681        3.5438338203        1.0651075438
Mo            3.4568259341        7.2077678279        2.6285211383
S             4.9857059934        6.3242524978        1.0384289506
Mo            5.0088387234        9.9005489624        2.7365837202
S             3.4688771966        8.9428069983        4.3244846722
S             3.4062021344        9.0662843468        1.0999781935
Mo            0.2953997322        1.7488124418        2.8347643444
S             1.8586896005        0.8022381707        4.4029320819
S             1.8551224154        0.8533901467        1.2066146141
Mo            1.8604763059        4.4967635179        2.6641761351
S             0.2729048108        3.6540670466        4.3351409008
S             0.2328455082        3.5264366220        1.1708929563
Mo            0.2686668827        7.2233096280        2.6983819243
S             1.9026272796        6.3128390333        4.2309234132
S             1.8576358089        6.3140112151        1.0487047179
Mo            1.8516378921        9.9387876772        2.7678587643
S             0.2977621354        9.0670458050        4.4090124642
S             0.2734876625        9.0463280291        1.1577550724
H             6.2918989046        0.0060333330        5.1190329814



     Writing config-only to output data dir ./MoS2-V-O.save/
     NEW-OLD atomic charge density approx. for the potential

     negative rho (up, down):  1.471E-04 0.000E+00

     total cpu time spent up to now is       78.3 secs

     Self-consistent Calculation

     iteration #  1     ecut=    80.00 Ry     beta= 0.70
     Davidson diagonalization with overlap
     ethr =  1.00E-06,  avg # of iterations = 10.0

     negative rho (up, down):  1.169E-04 0.000E+00

     total cpu time spent up to now is       90.6 secs

     total energy              =   -2205.52849561 Ry
     estimated scf accuracy    <       0.00163519 Ry

     iteration #  2     ecut=    80.00 Ry     beta= 0.70
     Davidson diagonalization with overlap
     ethr =  5.33E-07,  avg # of iterations =  2.0

     negative rho (up, down):  1.111E-04 0.000E+00

     total cpu time spent up to now is      116.7 secs

     total energy              =   -2205.52850409 Ry
     estimated scf accuracy    <       0.00036672 Ry

     iteration #  3     ecut=    80.00 Ry     beta= 0.70
     Davidson diagonalization with overlap
     ethr =  1.19E-07,  avg # of iterations =  4.0

     negative rho (up, down):  1.099E-04 0.000E+00

     total cpu time spent up to now is      132.7 secs

     total energy              =   -2205.52854953 Ry
     estimated scf accuracy    <       0.00004672 Ry

     iteration #  4     ecut=    80.00 Ry     beta= 0.70
     Davidson diagonalization with overlap
     ethr =  1.52E-08,  avg # of iterations = 18.0

     negative rho (up, down):  1.055E-04 0.000E+00

     total cpu time spent up to now is      152.0 secs

     total energy              =   -2205.52856122 Ry
     estimated scf accuracy    <       0.00001028 Ry

     iteration #  5     ecut=    80.00 Ry     beta= 0.70
     Davidson diagonalization with overlap
     ethr =  3.35E-09,  avg # of iterations =  2.0

     negative rho (up, down):  9.849E-05 0.000E+00

     total cpu time spent up to now is      163.5 secs

     total energy              =   -2205.52856222 Ry
     estimated scf accuracy    <       0.00000214 Ry

     iteration #  6     ecut=    80.00 Ry     beta= 0.70
     Davidson diagonalization with overlap
     ethr =  6.99E-10,  avg # of iterations =  5.0

     negative rho (up, down):  9.763E-05 0.000E+00

     total cpu time spent up to now is      176.6 secs

     total energy              =   -2205.52856264 Ry
     estimated scf accuracy    <       0.00000141 Ry

     iteration #  7     ecut=    80.00 Ry     beta= 0.70
     Davidson diagonalization with overlap
     ethr =  4.61E-10,  avg # of iterations =  2.0

     negative rho (up, down):  1.383E-04 0.000E+00

     total cpu time spent up to now is      178.5 secs

     End of self-consistent calculation

          k = 0.0000 0.0000 0.0000 (105382 PWs)   bands (ev):

   -62.8789 -62.8741 -62.8649 -62.8550 -62.8385 -62.8250 -62.8113 -62.8001
   -62.7928 -62.7803 -62.7709 -62.7582 -37.2311 -37.1642 -37.1525 -37.1432
   -37.1318 -37.1127 -37.0802 -37.0759 -37.0757 -37.0630 -37.0596 -37.0404
   -37.0368 -37.0302 -37.0188 -37.0162 -37.0073 -37.0024 -36.9951 -36.9740
   -36.9614 -36.9540 -36.9485 -36.9388 -36.9271 -36.9257 -36.9189 -36.9076
   -36.8908 -36.8877 -36.8786 -36.8628 -36.8525 -36.7897 -36.7528 -36.7204
   -16.0454 -15.3134 -15.1867 -15.0009 -14.9619 -14.8889 -14.5425 -14.5028
   -14.4743 -14.4524 -14.4222 -14.3855 -14.3720 -14.2899 -14.1657 -14.1603
   -14.1204 -14.1118 -14.0770 -13.8994 -13.8633 -13.8340 -13.8089  -8.2961
    -7.6294  -7.4559  -7.2925  -7.2712  -7.2458  -7.2018  -7.1434  -6.9721
    -6.8465  -6.7754  -6.7585  -6.6778  -6.6094  -6.5158  -6.4648  -6.4257
    -6.3776  -6.2766  -6.0226  -5.9855  -5.9074  -5.8518  -5.8240  -5.8187
    -5.7712  -5.7407  -5.6894  -5.6719  -5.6353  -5.5746  -5.5515  -5.4594
    -5.4180  -5.3718  -5.1957  -5.1395  -5.0493  -5.0189  -4.9995  -4.9420
    -4.9317  -4.8390  -4.7080  -4.5246  -4.3571  -4.3217  -4.2754  -4.2434
    -4.2042  -4.1735  -4.0160  -3.9897  -3.8379  -3.7821  -3.7505  -3.6892
    -3.6520  -3.5588  -3.5365  -3.5071  -3.5030  -3.4676  -3.4356  -3.3974
    -3.3871  -3.2332  -3.1582  -2.9161  -2.9056  -2.7945  -2.7814  -2.7271
    -2.7187  -2.7076  -2.6621  -2.6438  -2.5660  -2.2876  -2.0967  -1.9988
    -1.9502  -1.0099  -0.7985  -0.6824  -0.1950  -0.1355  -0.1049  -0.0300
     0.0413   0.1159   0.1513   0.2217   0.2708   0.2722   0.3836   0.4305
     0.4578   0.5285   0.5409   0.5716   0.6014   0.6493   0.6967   0.7285
     0.7543   0.8066   0.8278   0.8871   0.9537   0.9813   1.0341   1.3237
     1.3692

     the Fermi energy is    -1.0131 ev

!    total energy              =   -2205.52856202 Ry
     estimated scf accuracy    <       0.00000078 Ry
     smearing contrib. (-TS)   =      -0.00612329 Ry
     internal energy E=F+TS    =   -2205.52243872 Ry

     The total energy is F=E-TS. E is the sum of the following terms:
     one-electron contribution =  -18051.54504440 Ry
     hartree contribution      =    9012.45757818 Ry
     xc contribution           =    -385.25223942 Ry
     ewald contribution        =    7218.81726692 Ry

     convergence has been achieved in   7 iterations

     negative rho (up, down):  1.383E-04 0.000E+00

     Forces acting on atoms (cartesian axes, Ry/au):

     atom    1 type  1   force =     0.00460479   -0.00883841   -0.00366978
     atom    2 type  2   force =    -0.01597622    0.00626985   -0.00083796
     atom    3 type  2   force =    -0.01012057    0.00833716   -0.01060739
     atom    4 type  1   force =     0.00604466    0.00032144    0.00120607
     atom    5 type  2   force =     0.00070449   -0.00531431   -0.00749774
     atom    6 type  2   force =     0.00214390    0.00958370    0.00045293
     atom    7 type  1   force =     0.00376780   -0.00718508   -0.00323095
     atom    8 type  2   force =     0.00080769   -0.00359243    0.01070624
     atom    9 type  2   force =     0.01022528    0.00464971    0.00661939
     atom   10 type  1   force =    -0.00346504    0.00718718   -0.01010177
     atom   11 type  2   force =     0.00503250    0.01244828   -0.00517936
     atom   12 type  2   force =    -0.00237352   -0.00027032   -0.00098092
     atom   13 type  1   force =    -0.00190454    0.00895499   -0.01200416
     atom   14 type  2   force =     0.04757783   -0.02593813    0.03675522
     atom   15 type  2   force =    -0.01110152    0.00333555   -0.00849955
     atom   16 type  1   force =    -0.00171182    0.00258273    0.00260806
     atom   17 type  2   force =     0.00393004   -0.00060657    0.00421542
     atom   18 type  2   force =    -0.00356608   -0.00356871    0.00735516
     atom   19 type  1   force =     0.00298396   -0.01081217    0.00119058
     atom   20 type  2   force =     0.00329824   -0.00589383   -0.00326181
     atom   21 type  1   force =    -0.00324406   -0.00136575   -0.00141279
     atom   22 type  2   force =    -0.00193618   -0.00272556   -0.00442236
     atom   23 type  2   force =    -0.00322576   -0.00056723    0.00254703
     atom   24 type  1   force =    -0.00377287   -0.00137257   -0.00890606
     atom   25 type  2   force =     0.01178614    0.01522948   -0.00014204
     atom   26 type  2   force =    -0.00890518   -0.00242218   -0.00979683
     atom   27 type  1   force =    -0.00045969    0.00255942    0.00731371
     atom   28 type  2   force =     0.00098276   -0.00235501   -0.00543794
     atom   29 type  2   force =     0.00350634    0.00114603   -0.00474109
     atom   30 type  1   force =    -0.00278320    0.00341225    0.00291871
     atom   31 type  2   force =    -0.00013102    0.00071843    0.01065175
     atom   32 type  2   force =    -0.00733881    0.00546175    0.00580780
     atom   33 type  1   force =     0.00659129    0.00096983    0.00108011
     atom   34 type  2   force =     0.00068780   -0.03116456   -0.01460082
     atom   35 type  2   force =    -0.00404607    0.00661220    0.00607880
     atom   36 type  3   force =    -0.02861338    0.01421285    0.00782434
     The non-local contrib.  to forces
     atom    1 type  1   force =    -0.00051732    0.02888021   -0.00835154
     atom    2 type  2   force =    -0.03227465   -0.01240984   -0.23685486
     atom    3 type  2   force =    -0.01349798   -0.00416647    0.26643552
     atom    4 type  1   force =     0.00186159    0.00570032    0.00332455
     atom    5 type  2   force =     0.00634720   -0.03563652   -0.25208417
     atom    6 type  2   force =    -0.00207171    0.00794834    0.26420087
     atom    7 type  1   force =    -0.01868632    0.00029460   -0.02413587
     atom    8 type  2   force =     0.00543904   -0.00403291   -0.25778377
     atom    9 type  2   force =     0.00565309   -0.00945899    0.27510220
     atom   10 type  1   force =     0.00351112    0.00069994   -0.00214506
     atom   11 type  2   force =     0.01544881    0.03837555   -0.21353853
     atom   12 type  2   force =    -0.01289325   -0.01775009    0.26103282
     atom   13 type  1   force =     0.00337928    0.01478200   -0.00274960
     atom   14 type  2   force =     0.16330496   -0.09946963   -0.13131658
     atom   15 type  2   force =    -0.01051522   -0.00713915    0.26341316
     atom   16 type  1   force =     0.00139364    0.03267256   -0.02998034
     atom   17 type  2   force =     0.00060477   -0.02325530   -0.24876112
     atom   18 type  2   force =    -0.00554794   -0.00285539    0.27268763
     atom   19 type  1   force =     0.01505100    0.00026926   -0.01890388
     atom   20 type  2   force =    -0.00074906   -0.02085196    0.26272556
     atom   21 type  1   force =     0.00106789    0.02557705    0.00926753
     atom   22 type  2   force =    -0.00567348    0.00305517   -0.25652166
     atom   23 type  2   force =     0.00616192   -0.01870194    0.26650703
     atom   24 type  1   force =     0.00295837    0.01572675   -0.00879965
     atom   25 type  2   force =     0.00214261    0.00197769   -0.25315170
     atom   26 type  2   force =    -0.00111514   -0.00983870    0.26364353
     atom   27 type  1   force =    -0.00373117    0.00800171    0.00745788
     atom   28 type  2   force =    -0.00371029   -0.02218168   -0.27377926
     atom   29 type  2   force =     0.00705206    0.00228804    0.26377861
     atom   30 type  1   force =     0.00033578    0.01766299    0.00973317
     atom   31 type  2   force =    -0.00782157    0.00227908   -0.25670650
     atom   32 type  2   force =    -0.00097314   -0.01093346    0.27250846
     atom   33 type  1   force =    -0.00327175    0.00456012    0.00418315
     atom   34 type  2   force =    -0.00365688   -0.02694276   -0.27633673
     atom   35 type  2   force =    -0.00000494   -0.00943649    0.26733397
     atom   36 type  3   force =    -0.01360149    0.00807351   -0.01050989
     The ionic contribution  to forces
     atom    1 type  1   force =     0.05331173    0.94639669    4.96848748
     atom    2 type  2   force =     0.18116464    0.59173136   39.13496461
     atom    3 type  2   force =    -0.08985373    0.04535115  -36.25472788
     atom    4 type  1   force =     0.07663453    0.67957176    0.75365611
     atom    5 type  2   force =    -0.97461089    1.63040065   38.65507881
     atom    6 type  2   force =     0.29846067   -0.47516309  -37.97085561
     atom    7 type  1   force =    -2.56872018   -2.75763163    2.32246939
     atom    8 type  2   force =    -0.99266763    0.01290719   37.49756961
     atom    9 type  2   force =     0.37895635   -0.09760071  -37.96350409
     atom   10 type  1   force =    -0.46681910   -0.56090849    4.81452460
     atom   11 type  2   force =    -0.46510665   -2.36726070   38.85405197
     atom   12 type  2   force =     0.38540964    0.59534967  -37.90815436
     atom   13 type  1   force =     0.67325233    0.79222334    2.43583671
     atom   14 type  2   force =    -1.10467522    0.67250176   38.11382852
     atom   15 type  2   force =     0.12375233   -0.00464024  -36.85956598
     atom   16 type  1   force =     0.03332114    3.83550072    0.66545053
     atom   17 type  2   force =     0.80261787    1.46812305   38.01059595
     atom   18 type  2   force =    -0.14152288   -0.50792429  -38.54496492
     atom   19 type  1   force =     2.59878253   -2.39593455    0.69103639
     atom   20 type  2   force =     0.17817940   -0.21783342  -38.53795610
     atom   21 type  1   force =    -0.41667103   -0.16569096    0.42885963
     atom   22 type  2   force =     0.31410958   -1.82309139   38.38716953
     atom   23 type  2   force =    -0.11224080    0.56783594  -38.28059562
     atom   24 type  1   force =    -0.35204359    1.01700616    5.47411295
     atom   25 type  2   force =     0.57687815    0.25661907   39.25067486
     atom   26 type  2   force =    -0.28322613   -0.00890519  -37.36919307
     atom   27 type  1   force =    -0.01573002    0.55666040   -1.90328333
     atom   28 type  2   force =     0.07966806    0.97721192   38.23387086
     atom   29 type  2   force =    -0.23862885   -0.31019805  -37.30145018
     atom   30 type  1   force =    -0.21895226   -1.10839007   -0.01739740
     atom   31 type  2   force =     1.19380168   -0.03436295   37.42692182
     atom   32 type  2   force =    -0.47494571   -0.03641456  -38.57115800
     atom   33 type  1   force =     0.62729799   -0.72202119    2.17912224
     atom   34 type  2   force =     0.30115501   -1.30646132   39.25866947
     atom   35 type  2   force =    -0.20788825    0.46105576  -37.76816032
     atom   36 type  3   force =     0.24754929   -0.20601379    7.69401482
     The local contribution  to forces
     atom    1 type  1   force =    -0.04787263   -0.98410803   -4.96516850
     atom    2 type  2   force =    -0.16688784   -0.57362249  -38.91830160
     atom    3 type  2   force =     0.09259510   -0.03291775   35.99810646
     atom    4 type  1   force =    -0.07235709   -0.68506637   -0.75694010
     atom    5 type  2   force =     0.96958741   -1.60199079  -38.43114367
     atom    6 type  2   force =    -0.29448747    0.47773835   37.72763703
     atom    7 type  1   force =     2.59107976    2.75007858   -2.30286577
     atom    8 type  2   force =     0.98829375   -0.01303985  -37.24996637
     atom    9 type  2   force =    -0.37430275    0.11120728   37.71562952
     atom   10 type  1   force =     0.45986288    0.56749166   -4.82400427
     atom   11 type  2   force =     0.45527522    2.34405947  -38.66404988
     atom   12 type  2   force =    -0.37599096   -0.57919964   37.66645015
     atom   13 type  1   force =    -0.67882779   -0.79784316   -2.44663830
     atom   14 type  2   force =     0.99949172   -0.60496137  -37.95859995
     atom   15 type  2   force =    -0.12494371    0.01465800   36.60780771
     atom   16 type  1   force =    -0.03658460   -3.86549158   -0.63400599
     atom   17 type  2   force =    -0.79941316   -1.44655511  -37.77817793
     atom   18 type  2   force =     0.14335130    0.50758969   38.30038371
     atom   19 type  1   force =    -2.61098959    2.38473195   -0.67212688
     atom   20 type  2   force =    -0.17434770    0.23199138   38.29276684
     atom   21 type  1   force =     0.41239519    0.13866313   -0.44096587
     atom   22 type  2   force =    -0.31051414    1.81772992  -38.15590568
     atom   23 type  2   force =     0.10333107   -0.55105519   38.03716584
     atom   24 type  1   force =     0.34532878   -1.03393744   -5.47563126
     atom   25 type  2   force =    -0.56742982   -0.24301354  -39.01826086
     atom   26 type  2   force =     0.27561388    0.01583404   37.11622922
     atom   27 type  1   force =     0.01906564   -0.56212570    1.90205024
     atom   28 type  2   force =    -0.07519034   -0.95894603  -37.98685435
     atom   29 type  2   force =     0.23565138    0.30951384   37.05322982
     atom   30 type  1   force =     0.21603078    1.09411439    0.00938752
     atom   31 type  2   force =    -1.18649780    0.03272507  -37.18060210
     atom   32 type  2   force =     0.46884835    0.05224357   38.32515340
     atom   33 type  1   force =    -0.61748287    0.71830684   -2.18362709
     atom   34 type  2   force =    -0.29718198    1.30127472  -39.01855047
     atom   35 type  2   force =     0.20400710   -0.44594423   37.52751094
     atom   36 type  3   force =    -0.26255082    0.21215429   -7.67575920
     The core correction contribution to forces
     atom    1 type  1   force =     0.00000000    0.00000000    0.00000000
     atom    2 type  2   force =     0.00191238    0.00067272    0.01889655
     atom    3 type  2   force =     0.00062468    0.00009796   -0.02083902
     atom    4 type  1   force =     0.00000000    0.00000000    0.00000000
     atom    5 type  2   force =    -0.00061960    0.00196663    0.02024353
     atom    6 type  2   force =     0.00025395   -0.00096196   -0.02089558
     atom    7 type  1   force =     0.00000000    0.00000000    0.00000000
     atom    8 type  2   force =    -0.00014792    0.00049368    0.02049781
     atom    9 type  2   force =    -0.00001804    0.00051032   -0.02099828
     atom   10 type  1   force =     0.00000000    0.00000000    0.00000000
     atom   11 type  2   force =    -0.00061721   -0.00265551    0.01800624
     atom   12 type  2   force =     0.00111295    0.00140850   -0.02077526
     atom   13 type  1   force =     0.00000000    0.00000000    0.00000000
     atom   14 type  2   force =    -0.01034757    0.00591643    0.01252741
     atom   15 type  2   force =     0.00061988    0.00044650   -0.02066967
     atom   16 type  1   force =     0.00000000    0.00000000    0.00000000
     atom   17 type  2   force =     0.00006304    0.00122712    0.02015581
     atom   18 type  2   force =     0.00014069   -0.00039341   -0.02106909
     atom   19 type  1   force =     0.00000000    0.00000000    0.00000000
     atom   20 type  2   force =     0.00014035    0.00075803   -0.02114280
     atom   21 type  1   force =     0.00000000    0.00000000    0.00000000
     atom   22 type  2   force =     0.00008146   -0.00050418    0.02038551
     atom   23 type  2   force =    -0.00050629    0.00135769   -0.02090099
     atom   24 type  1   force =     0.00000000    0.00000000    0.00000000
     atom   25 type  2   force =     0.00017594   -0.00027768    0.02020876
     atom   26 type  2   force =    -0.00020550    0.00051365   -0.02089987
     atom   27 type  1   force =     0.00000000    0.00000000    0.00000000
     atom   28 type  2   force =     0.00026777    0.00161109    0.02092348
     atom   29 type  2   force =    -0.00055830   -0.00052452   -0.02063749
     atom   30 type  1   force =     0.00000000    0.00000000    0.00000000
     atom   31 type  2   force =     0.00041798    0.00003365    0.02060410
     atom   32 type  2   force =    -0.00024132    0.00060916   -0.02099339
     atom   33 type  1   force =     0.00000000    0.00000000    0.00000000
     atom   34 type  2   force =     0.00047497    0.00078850    0.02119177
     atom   35 type  2   force =    -0.00014519    0.00093728   -0.02100100
     atom   36 type  3   force =     0.00000000    0.00000000    0.00000000
     The Hubbard contrib.    to forces
     atom    1 type  1   force =     0.00000000    0.00000000    0.00000000
     atom    2 type  2   force =     0.00000000    0.00000000    0.00000000
     atom    3 type  2   force =     0.00000000    0.00000000    0.00000000
     atom    4 type  1   force =     0.00000000    0.00000000    0.00000000
     atom    5 type  2   force =     0.00000000    0.00000000    0.00000000
     atom    6 type  2   force =     0.00000000    0.00000000    0.00000000
     atom    7 type  1   force =     0.00000000    0.00000000    0.00000000
     atom    8 type  2   force =     0.00000000    0.00000000    0.00000000
     atom    9 type  2   force =     0.00000000    0.00000000    0.00000000
     atom   10 type  1   force =     0.00000000    0.00000000    0.00000000
     atom   11 type  2   force =     0.00000000    0.00000000    0.00000000
     atom   12 type  2   force =     0.00000000    0.00000000    0.00000000
     atom   13 type  1   force =     0.00000000    0.00000000    0.00000000
     atom   14 type  2   force =     0.00000000    0.00000000    0.00000000
     atom   15 type  2   force =     0.00000000    0.00000000    0.00000000
     atom   16 type  1   force =     0.00000000    0.00000000    0.00000000
     atom   17 type  2   force =     0.00000000    0.00000000    0.00000000
     atom   18 type  2   force =     0.00000000    0.00000000    0.00000000
     atom   19 type  1   force =     0.00000000    0.00000000    0.00000000
     atom   20 type  2   force =     0.00000000    0.00000000    0.00000000
     atom   21 type  1   force =     0.00000000    0.00000000    0.00000000
     atom   22 type  2   force =     0.00000000    0.00000000    0.00000000
     atom   23 type  2   force =     0.00000000    0.00000000    0.00000000
     atom   24 type  1   force =     0.00000000    0.00000000    0.00000000
     atom   25 type  2   force =     0.00000000    0.00000000    0.00000000
     atom   26 type  2   force =     0.00000000    0.00000000    0.00000000
     atom   27 type  1   force =     0.00000000    0.00000000    0.00000000
     atom   28 type  2   force =     0.00000000    0.00000000    0.00000000
     atom   29 type  2   force =     0.00000000    0.00000000    0.00000000
     atom   30 type  1   force =     0.00000000    0.00000000    0.00000000
     atom   31 type  2   force =     0.00000000    0.00000000    0.00000000
     atom   32 type  2   force =     0.00000000    0.00000000    0.00000000
     atom   33 type  1   force =     0.00000000    0.00000000    0.00000000
     atom   34 type  2   force =     0.00000000    0.00000000    0.00000000
     atom   35 type  2   force =     0.00000000    0.00000000    0.00000000
     atom   36 type  3   force =     0.00000000    0.00000000    0.00000000
     The SCF correction term to forces
     atom    1 type  1   force =    -0.00031453   -0.00000654    0.00133713
     atom    2 type  2   force =     0.00011173   -0.00010116    0.00043168
     atom    3 type  2   force =     0.00001384   -0.00002698    0.00039186
     atom    4 type  1   force =    -0.00009190    0.00011648    0.00113985
     atom    5 type  2   force =     0.00000283   -0.00005353    0.00038211
     atom    6 type  2   force =    -0.00000907    0.00002281    0.00034056
     atom    7 type  1   force =     0.00009700    0.00007412    0.00127564
     atom    8 type  2   force =    -0.00010708    0.00008021    0.00036331
     atom    9 type  2   force =    -0.00006091   -0.00000745    0.00036438
     atom   10 type  1   force =    -0.00001747   -0.00009517    0.00149730
     atom   11 type  2   force =     0.00003480   -0.00006979    0.00032518
     atom   12 type  2   force =    -0.00000944   -0.00007802    0.00044008
     atom   13 type  1   force =     0.00029412   -0.00020644    0.00152137
     atom   14 type  2   force =    -0.00019359    0.00007544    0.00029016
     atom   15 type  2   force =    -0.00001232    0.00001118    0.00048957
     atom   16 type  1   force =     0.00016048   -0.00009822    0.00111821
     atom   17 type  2   force =     0.00005998   -0.00014558    0.00037705
     atom   18 type  2   force =     0.00001521    0.00001544    0.00029218
     atom   19 type  1   force =     0.00014250    0.00012193    0.00115929
     atom   20 type  2   force =     0.00007772    0.00004288    0.00031903
     atom   21 type  1   force =    -0.00003364    0.00008578    0.00140027
     atom   22 type  2   force =     0.00006287    0.00008567    0.00042428
     atom   23 type  2   force =     0.00003082   -0.00000299    0.00034511
     atom   24 type  1   force =    -0.00001395   -0.00016729    0.00138625
     atom   25 type  2   force =     0.00002173   -0.00007531    0.00036125
     atom   26 type  2   force =     0.00003019   -0.00002523    0.00039770
     atom   27 type  1   force =    -0.00006166    0.00002376    0.00106326
     atom   28 type  2   force =    -0.00004996   -0.00004956    0.00037568
     atom   29 type  2   force =    -0.00000748    0.00006746    0.00031249
     atom   30 type  1   force =    -0.00019503    0.00002567    0.00116977
     atom   31 type  2   force =    -0.00002884    0.00004432    0.00040878
     atom   32 type  2   force =    -0.00002452   -0.00004222    0.00027168
     atom   33 type  1   force =     0.00005039    0.00012480    0.00137615
     atom   34 type  2   force =    -0.00010085    0.00017705    0.00039950
     atom   35 type  2   force =    -0.00001232    0.00000062    0.00036957
     atom   36 type  3   force =    -0.00000789   -0.00000041    0.00005295

     Total force =     0.101054     Total SCF correction =     0.004897
     Energy error            =      1.7E-02 Ry
     Gradient error          =      4.8E-02 Ry/Bohr

     number of scf cycles    =   2
     number of bfgs steps    =   1

     energy             old  =   -2205.5117154184 Ry
     energy             new  =   -2205.5285620164 Ry

     CASE: energy            _new < energy            _old

     new trust radius        =       0.0922005797 bohr
     new conv_thr            =       0.0000000476 Ry


ATOMIC_POSITIONS (angstrom)
Mo            6.5864319262        1.7720211604        2.8159680487
S             8.1484125301        0.8180908886        4.4401856978
S             8.1793613954        0.8224743757        1.2695980168
Mo            8.1033668992        4.4946401656        2.7167820232
S             6.4998790411        3.7160302859        4.3380315035
S             6.5563213070        3.5252692091        1.1223353104
Mo            6.4938614100        7.2043674164        2.6574601838
S             8.0834548881        6.3388666657        4.2603209180
S             8.0937351263        6.3115628912        1.0958620427
Mo            8.1530602158        9.9113741743        2.8167275700
S             6.5017948587        8.9650473534        4.3830261660
S             6.6160202182        9.0488282372        1.1433695106
Mo            3.4102646878        1.7647559170        2.7493672902
S             5.0416717208        0.7814528432        4.4052111832
S             5.0427771480        0.8503542576        1.2155443434
Mo            4.9768664477        4.5186617897        2.6353796449
S             3.4330894831        3.6713662872        4.2859327527
S             3.4338034319        3.5406853832        1.0710277566
Mo            3.4592829298        7.1994046354        2.6286766573
S             4.9882229786        6.3201839461        1.0368340723
Mo            5.0061175009        9.8994999116        2.7340828665
S             3.4672440172        8.9409984045        4.3216552570
S             3.4037875140        9.0662762919        1.1024163055
Mo            0.2930484555        1.7483410389        2.8259898897
S             1.8675343610        0.8133984130        4.4040167865
S             1.8485727314        0.8517342886        1.2002639354
Mo            1.8601574983        4.4985137637        2.6693862659
S             0.2736435325        3.6526239440        4.3313942946
S             0.2352709138        3.5268982302        1.1678748065
Mo            0.2664442476        7.2269281346        2.6992499607
S             1.9026476702        6.3132641981        4.2391747630
S             1.8522570855        6.3180740389        1.0530856583
Mo            1.8572488799        9.9390143079        2.7672260995
S             0.2986165447        9.0433629207        4.3993736032
S             0.2703378536        9.0508420529        1.1630854353
H             6.2722462285        0.0157385882        5.1248309569



     Writing config-only to output data dir ./MoS2-V-O.save/
     NEW-OLD atomic charge density approx. for the potential

     negative rho (up, down):  1.485E-04 0.000E+00

     total cpu time spent up to now is      181.7 secs

     Self-consistent Calculation

     iteration #  1     ecut=    80.00 Ry     beta= 0.70
     Davidson diagonalization with overlap
     ethr =  1.00E-06,  avg # of iterations = 10.0

     negative rho (up, down):  1.050E-04 0.000E+00

     total cpu time spent up to now is      196.8 secs

     total energy              =   -2205.54091734 Ry
     estimated scf accuracy    <       0.00104902 Ry

     iteration #  2     ecut=    80.00 Ry     beta= 0.70
     Davidson diagonalization with overlap
     ethr =  3.42E-07,  avg # of iterations =  2.0

     negative rho (up, down):  8.071E-05 0.000E+00

     total cpu time spent up to now is      219.1 secs

     total energy              =   -2205.54092978 Ry
     estimated scf accuracy    <       0.00022102 Ry

     iteration #  3     ecut=    80.00 Ry     beta= 0.70
     Davidson diagonalization with overlap
     ethr =  7.20E-08,  avg # of iterations =  5.0

     negative rho (up, down):  7.204E-05 0.000E+00

     total cpu time spent up to now is      231.3 secs

     total energy              =   -2205.54096102 Ry
     estimated scf accuracy    <       0.00002535 Ry

     iteration #  4     ecut=    80.00 Ry     beta= 0.70
     Davidson diagonalization with overlap
     ethr =  8.26E-09,  avg # of iterations =  6.0

     negative rho (up, down):  6.986E-05 0.000E+00

     total cpu time spent up to now is      246.6 secs

     total energy              =   -2205.54096699 Ry
     estimated scf accuracy    <       0.00000521 Ry

     iteration #  5     ecut=    80.00 Ry     beta= 0.70
     Davidson diagonalization with overlap
     ethr =  1.70E-09,  avg # of iterations =  3.0

     negative rho (up, down):  7.199E-05 0.000E+00

     total cpu time spent up to now is      259.3 secs

     total energy              =   -2205.54096748 Ry
     estimated scf accuracy    <       0.00000120 Ry

     iteration #  6     ecut=    80.00 Ry     beta= 0.70
     Davidson diagonalization with overlap
     ethr =  3.89E-10,  avg # of iterations =  5.0

     negative rho (up, down):  7.747E-05 0.000E+00

     total cpu time spent up to now is      272.0 secs

     total energy              =   -2205.54096763 Ry
     estimated scf accuracy    <       0.00000023 Ry

     iteration #  7     ecut=    80.00 Ry     beta= 0.70
     Davidson diagonalization with overlap
     ethr =  7.39E-11,  avg # of iterations =  4.0

     negative rho (up, down):  8.906E-05 0.000E+00

     total cpu time spent up to now is      282.4 secs

     total energy              =   -2205.54096759 Ry
     estimated scf accuracy    <       0.00000008 Ry

     iteration #  8     ecut=    80.00 Ry     beta= 0.70
     Davidson diagonalization with overlap
     ethr =  2.65E-11,  avg # of iterations =  4.0

     negative rho (up, down):  1.388E-04 0.000E+00

     total cpu time spent up to now is      284.4 secs

     End of self-consistent calculation

          k = 0.0000 0.0000 0.0000 (105382 PWs)   bands (ev):

   -62.8763 -62.8722 -62.8596 -62.8515 -62.8344 -62.8244 -62.8059 -62.7956
   -62.7876 -62.7738 -62.7644 -62.7578 -37.2264 -37.1629 -37.1480 -37.1376
   -37.1256 -37.1100 -37.0753 -37.0728 -37.0722 -37.0624 -37.0561 -37.0372
   -37.0305 -37.0233 -37.0154 -37.0102 -37.0033 -36.9984 -36.9908 -36.9702
   -36.9503 -36.9476 -36.9388 -36.9363 -36.9225 -36.9208 -36.9159 -36.9002
   -36.8891 -36.8849 -36.8764 -36.8587 -36.8495 -36.7786 -36.7509 -36.7227
   -16.0494 -15.3526 -15.1846 -15.0020 -14.9540 -14.8767 -14.5510 -14.4935
   -14.4635 -14.4363 -14.4174 -14.3851 -14.3594 -14.2834 -14.1600 -14.1511
   -14.1171 -14.1086 -14.0767 -13.8923 -13.8628 -13.8354 -13.7963  -8.3655
    -7.6240  -7.4450  -7.2830  -7.2633  -7.2320  -7.1909  -7.1402  -6.9773
    -6.8430  -6.7652  -6.7542  -6.6644  -6.6020  -6.5181  -6.4610  -6.4259
    -6.3697  -6.2650  -6.0187  -5.9801  -5.8795  -5.8562  -5.8296  -5.8063
    -5.7714  -5.7354  -5.6846  -5.6647  -5.6349  -5.5786  -5.5390  -5.4528
    -5.4005  -5.3597  -5.1819  -5.1290  -5.0472  -5.0164  -4.9817  -4.9490
    -4.9310  -4.8338  -4.7013  -4.5183  -4.3550  -4.3151  -4.2835  -4.2408
    -4.2100  -4.1805  -4.0240  -3.9936  -3.8343  -3.7656  -3.7363  -3.6836
    -3.6519  -3.5478  -3.5229  -3.5130  -3.5035  -3.4619  -3.4333  -3.3906
    -3.3642  -3.2443  -3.1590  -2.9161  -2.8959  -2.7865  -2.7754  -2.7250
    -2.7210  -2.7060  -2.6657  -2.6316  -2.5579  -2.2813  -2.0962  -1.9908
    -1.9653  -1.0002  -0.7873  -0.6906  -0.1918  -0.1371  -0.1077  -0.0143
     0.0619   0.1176   0.1445   0.2271   0.2745   0.2924   0.4011   0.4268
     0.4698   0.5397   0.5447   0.5757   0.6112   0.6478   0.7012   0.7265
     0.7620   0.8149   0.8509   0.8946   0.9620   0.9861   1.0357   1.3040
     1.3767

     the Fermi energy is    -1.0034 ev

!    total energy              =   -2205.54096740 Ry
     estimated scf accuracy    <       0.00000003 Ry
     smearing contrib. (-TS)   =      -0.00612063 Ry
     internal energy E=F+TS    =   -2205.53484677 Ry

     The total energy is F=E-TS. E is the sum of the following terms:
     one-electron contribution =  -18048.67453197 Ry
     hartree contribution      =    9011.06934577 Ry
     xc contribution           =    -385.25589967 Ry
     ewald contribution        =    7217.32623910 Ry

     convergence has been achieved in   8 iterations

     negative rho (up, down):  1.388E-04 0.000E+00

     Forces acting on atoms (cartesian axes, Ry/au):

     atom    1 type  1   force =    -0.00208682   -0.00318924   -0.00241185
     atom    2 type  2   force =    -0.00384181    0.00604756   -0.00686656
     atom    3 type  2   force =    -0.00781764    0.00629375   -0.01311038
     atom    4 type  1   force =     0.00456685    0.00115618    0.00176413
     atom    5 type  2   force =     0.00167298   -0.00494959   -0.00662297
     atom    6 type  2   force =     0.00167639    0.00722917    0.00047176
     atom    7 type  1   force =     0.00354184   -0.00157158    0.00462925
     atom    8 type  2   force =    -0.00004272   -0.00330954    0.00665794
     atom    9 type  2   force =     0.00893272    0.00313409    0.00318627
     atom   10 type  1   force =    -0.00093840    0.00645634   -0.00015295
     atom   11 type  2   force =     0.00478879    0.00189337   -0.01027484
     atom   12 type  2   force =    -0.00318995   -0.00068047   -0.00361749
     atom   13 type  1   force =     0.00353862    0.00207744   -0.00345821
     atom   14 type  2   force =     0.03685757   -0.02141487    0.02831557
     atom   15 type  2   force =    -0.00856562    0.00237705   -0.00565062
     atom   16 type  1   force =    -0.00056305    0.00014176    0.00207810
     atom   17 type  2   force =     0.00368133   -0.00116694    0.00362085
     atom   18 type  2   force =    -0.00375266    0.00042382    0.00360085
     atom   19 type  1   force =     0.00131502   -0.00579808    0.00259601
     atom   20 type  2   force =     0.00241244   -0.00541059   -0.00465569
     atom   21 type  1   force =    -0.00036026   -0.00063348    0.00291960
     atom   22 type  2   force =    -0.00055039   -0.00341318   -0.00404451
     atom   23 type  2   force =    -0.00238790   -0.00279025    0.00079235
     atom   24 type  1   force =    -0.00467533   -0.00290717    0.00027232
     atom   25 type  2   force =     0.00873399    0.01194123   -0.00472331
     atom   26 type  2   force =    -0.00588499   -0.00210078   -0.00912827
     atom   27 type  1   force =    -0.00022493    0.00204625    0.00517276
     atom   28 type  2   force =     0.00070214   -0.00343263   -0.00429441
     atom   29 type  2   force =     0.00365900    0.00263594   -0.00452226
     atom   30 type  1   force =    -0.00115790   -0.00245723    0.00557037
     atom   31 type  2   force =    -0.00035070    0.00056709    0.00754107
     atom   32 type  2   force =    -0.00551839    0.00388739    0.00499204
     atom   33 type  1   force =     0.00144683    0.00283476    0.00420863
     atom   34 type  2   force =    -0.00101053   -0.01918450   -0.01398000
     atom   35 type  2   force =    -0.00201312    0.00641660    0.00217209
     atom   36 type  3   force =    -0.03259340    0.01685034    0.00695237
     The non-local contrib.  to forces
     atom    1 type  1   force =    -0.00023445    0.02634963   -0.00881891
     atom    2 type  2   force =    -0.01698309   -0.01244940   -0.24143548
     atom    3 type  2   force =    -0.01078634   -0.00592483    0.26414046
     atom    4 type  1   force =     0.00307004    0.00603310    0.00314016
     atom    5 type  2   force =     0.00699344   -0.03503683   -0.25200766
     atom    6 type  2   force =    -0.00212830    0.00570464    0.26498023
     atom    7 type  1   force =    -0.01791326   -0.00089446   -0.02545445
     atom    8 type  2   force =     0.00510365   -0.00380762   -0.25993873
     atom    9 type  2   force =     0.00362778   -0.01061451    0.27300876
     atom   10 type  1   force =     0.00291311    0.00055143   -0.00329497
     atom   11 type  2   force =     0.01771633    0.02510801   -0.22084664
     atom   12 type  2   force =    -0.01306516   -0.01848814    0.26097515
     atom   13 type  1   force =     0.00295358    0.01564001   -0.00162619
     atom   14 type  2   force =     0.17367956   -0.10814485   -0.12842599
     atom   15 type  2   force =    -0.00816933   -0.00865629    0.26540415
     atom   16 type  1   force =     0.00040115    0.03280412   -0.03057360
     atom   17 type  2   force =    -0.00020104   -0.02106503   -0.24864589
     atom   18 type  2   force =    -0.00567566   -0.00076445    0.27068239
     atom   19 type  1   force =     0.01537586    0.00009700   -0.02010765
     atom   20 type  2   force =    -0.00087451   -0.01975426    0.26155800
     atom   21 type  1   force =     0.00047365    0.02682024    0.00758114
     atom   22 type  2   force =    -0.00409163    0.00175864   -0.25639778
     atom   23 type  2   force =     0.00662860   -0.02117825    0.26570144
     atom   24 type  1   force =     0.00256073    0.01608484   -0.00757851
     atom   25 type  2   force =    -0.00154864   -0.00100761   -0.25529489
     atom   26 type  2   force =     0.00130264   -0.00835983    0.26391313
     atom   27 type  1   force =    -0.00370307    0.00719229    0.00634394
     atom   28 type  2   force =    -0.00373758   -0.02201150   -0.27365471
     atom   29 type  2   force =     0.00687628    0.00182839    0.26471049
     atom   30 type  1   force =     0.00017186    0.01876110    0.00940519
     atom   31 type  2   force =    -0.00769670    0.00232858   -0.25870222
     atom   32 type  2   force =     0.00088381   -0.01153135    0.27203373
     atom   33 type  1   force =    -0.00218600    0.00382842    0.00329567
     atom   34 type  2   force =    -0.00487322   -0.01738544   -0.27676327
     atom   35 type  2   force =     0.00121714   -0.00963478    0.26572191
     atom   36 type  3   force =    -0.01798985    0.01090442   -0.01279014
     The ionic contribution  to forces
     atom    1 type  1   force =    -0.28199184    1.12130049    4.76056902
     atom    2 type  2   force =     0.38608121    0.53020609   39.16849434
     atom    3 type  2   force =    -0.06171987    0.03692077  -36.38006895
     atom    4 type  1   force =    -0.00837401    0.65510519    0.82342565
     atom    5 type  2   force =    -0.99015361    1.60556248   38.56466506
     atom    6 type  2   force =     0.26306699   -0.48738026  -37.90448409
     atom    7 type  1   force =    -2.59718883   -2.58503029    2.25244467
     atom    8 type  2   force =    -1.04067123    0.03278835   37.60312367
     atom    9 type  2   force =     0.37507463   -0.12042170  -37.93575215
     atom   10 type  1   force =    -0.29349759   -0.57354877    4.53081486
     atom   11 type  2   force =    -0.43582431   -2.44421635   38.77689199
     atom   12 type  2   force =     0.33385390    0.55499657  -37.89160610
     atom   13 type  1   force =     0.92493614    0.48115193    2.25857950
     atom   14 type  2   force =    -1.43594909    0.83183370   38.20050647
     atom   15 type  2   force =     0.12965450   -0.00988004  -36.84523560
     atom   16 type  1   force =     0.11657781    3.68929705    0.81949492
     atom   17 type  2   force =     0.83095792    1.37076545   38.06768592
     atom   18 type  2   force =    -0.12471269   -0.42341286  -38.51351006
     atom   19 type  1   force =     2.60486907   -2.23976615    0.72990415
     atom   20 type  2   force =     0.15655222   -0.19441703  -38.59418903
     atom   21 type  1   force =    -0.52403232   -0.09469774    0.36109410
[...]
     atom   27 type  1   force =    -0.00302311    0.00523951    0.00335968
     atom   28 type  2   force =    -0.00194073   -0.01179749   -0.27388440
     atom   29 type  2   force =     0.00126232   -0.00840557    0.26890897
     atom   30 type  1   force =     0.00126041    0.01974721    0.00647378
     atom   31 type  2   force =    -0.00541468    0.00447555   -0.26296892
     atom   32 type  2   force =     0.00603509   -0.01456267    0.26706557
     atom   33 type  1   force =    -0.00203902    0.00542907    0.00405098
     atom   34 type  2   force =    -0.00111505   -0.00772403   -0.27025607
     atom   35 type  2   force =    -0.00097988   -0.01100946    0.26794115
     atom   36 type  3   force =    -0.03250213    0.02048022   -0.03700031
     The ionic contribution  to forces
     atom    1 type  1   force =    -0.80812194    1.10245430    4.50223469
     atom    2 type  2   force =     0.44427432    0.24919599   38.60171341
     atom    3 type  2   force =    -0.10036575    0.00425976  -37.36220355
     atom    4 type  1   force =    -0.33082568    0.42266585    0.43396913
     atom    5 type  2   force =    -0.91032806    1.46025393   38.26753742
     atom    6 type  2   force =     0.21665410   -0.42266972  -37.78139902
     atom    7 type  1   force =    -2.79828559   -2.37658390    2.50897701
     atom    8 type  2   force =    -1.12194790    0.03505067   38.12732196
     atom    9 type  2   force =     0.25628299    0.00388346  -37.82492744
     atom   10 type  1   force =    -0.18134552   -0.58870661    2.56159059
     atom   11 type  2   force =    -0.23844506   -2.00164360   38.48250992
     atom   12 type  2   force =     0.09900259    0.33393988  -37.84538674
     atom   13 type  1   force =     1.35918243   -0.17506538   -0.24086134
     atom   14 type  2   force =    -1.86973341    1.15008176   38.40125682
     atom   15 type  2   force =     0.17301568   -0.28702183  -36.81409896
     atom   16 type  1   force =     0.27709698    3.57212245    1.21319419
     atom   17 type  2   force =     0.82667042    1.01865878   38.15677681
     atom   18 type  2   force =    -0.02674075   -0.12932761  -38.62997238
     atom   19 type  1   force =     2.89698383   -1.98471592    3.27549511
     atom   20 type  2   force =     0.05788662    0.04357480  -38.36156660
     atom   21 type  1   force =    -0.71803452    0.14811080    2.73466611
     atom   22 type  2   force =     0.16967881   -1.48700615   38.55805104
     atom   23 type  2   force =    -0.02339028    0.32916707  -37.64451996
     atom   24 type  1   force =    -0.14060835    0.50285811    1.56696101
     atom   25 type  2   force =     0.43068997    0.15227985   38.45806506
     atom   26 type  2   force =    -0.12020820   -0.30453980  -38.04275032
     atom   27 type  1   force =     0.07270556    0.51390169    0.15942587
     atom   28 type  2   force =     0.06663607    0.54365599   38.01823782
     atom   29 type  2   force =    -0.17416991   -0.03180281  -37.69296953
     atom   30 type  1   force =    -0.06447913   -0.66949794    1.86538793
     atom   31 type  2   force =     1.14220574    0.01830696   38.34025612
     atom   32 type  2   force =    -0.30391912    0.13092092  -37.93862522
     atom   33 type  1   force =     0.64499743   -0.43477035    2.42872712
     atom   34 type  2   force =     0.16283793   -0.52446090   38.72975489
     atom   35 type  2   force =    -0.01306305    0.11612236  -37.49748488
     atom   36 type  3   force =     0.64721075   -0.43365288    8.28465590
     The local contribution  to forces
     atom    1 type  1   force =     0.81497962   -1.12487047   -4.49218574
     atom    2 type  2   force =    -0.44030462   -0.23774774  -38.37036298
     atom    3 type  2   force =     0.09994630    0.00448198   37.11477451
     atom    4 type  1   force =     0.32485854   -0.42881096   -0.43870265
     atom    5 type  2   force =     0.90604046   -1.43103886  -38.03802942
     atom    6 type  2   force =    -0.21713710    0.42408275   37.53611076
     atom    7 type  1   force =     2.81068449    2.37839786   -2.48481615
     atom    8 type  2   force =     1.11622651   -0.03639638  -37.88376724
     atom    9 type  2   force =    -0.24962456    0.00882491   37.57628055
     atom   10 type  1   force =     0.17844210    0.58589117   -2.56337392
     atom   11 type  2   force =     0.22678205    1.99782633  -38.26255961
     atom   12 type  2   force =    -0.09346800   -0.31770788   37.60099335
     atom   13 type  1   force =    -1.36356024    0.16368022    0.23890341
     atom   14 type  2   force =     1.64315126   -1.01276393  -38.37675734
     atom   15 type  2   force =    -0.17179603    0.29799471   36.56824873
     atom   16 type  1   force =    -0.27291405   -3.60596071   -1.18485701
     atom   17 type  2   force =    -0.82010661   -1.01112979  -37.92894717
     atom   18 type  2   force =     0.02906362    0.13858470   38.38327512
     atom   19 type  1   force =    -2.90989411    1.98392993   -3.25309501
     atom   20 type  2   force =    -0.05814125   -0.02875085   38.11870573
     atom   21 type  1   force =     0.72015999   -0.17682119   -2.73169614
     atom   22 type  2   force =    -0.16949357    1.48504671  -38.32368758
     atom   23 type  2   force =     0.01759389   -0.31412330   37.39914493
     atom   24 type  1   force =     0.13735387   -0.51837740   -1.57050801
     atom   25 type  2   force =    -0.41872733   -0.13819138  -38.22617991
     atom   26 type  2   force =     0.11626991    0.30578841   37.79599180
     atom   27 type  1   force =    -0.06972434   -0.51961829   -0.16291520
     atom   28 type  2   force =    -0.06445975   -0.53221247  -37.76489345
     atom   29 type  2   force =     0.17245085    0.04097754   37.44441451
     atom   30 type  1   force =     0.06312906    0.64978370   -1.87219503
     atom   31 type  2   force =    -1.13652372   -0.02306511  -38.09892860
     atom   32 type  2   force =     0.29830917   -0.11867938   37.69157508
     atom   33 type  1   force =    -0.64252764    0.42882411   -2.43234031
     atom   34 type  2   force =    -0.16195023    0.53201116  -38.47957052
     atom   35 type  2   force =     0.01418758   -0.10640110   37.25086461
     atom   36 type  3   force =    -0.61571614    0.41481719   -8.24856955
     The core correction contribution to forces
     atom    1 type  1   force =     0.00000000    0.00000000    0.00000000
     atom    2 type  2   force =     0.00071226    0.00051426    0.01999280
     atom    3 type  2   force =    -0.00017445    0.00040771   -0.02095072
     atom    4 type  1   force =     0.00000000    0.00000000    0.00000000
     atom    5 type  2   force =    -0.00044977    0.00171235    0.02003243
     atom    6 type  2   force =     0.00016017   -0.00053426   -0.02081771
     atom    7 type  1   force =     0.00000000    0.00000000    0.00000000
     atom    8 type  2   force =    -0.00028936    0.00024720    0.02075502
     atom    9 type  2   force =     0.00065706    0.00070026   -0.02093059
     atom   10 type  1   force =     0.00000000    0.00000000    0.00000000
     atom   11 type  2   force =    -0.00011165   -0.00086377    0.01944886
     atom   12 type  2   force =     0.00046304    0.00123059   -0.02091129
     atom   13 type  1   force =     0.00000000    0.00000000    0.00000000
     atom   14 type  2   force =    -0.01579710    0.00935514    0.00380879
     atom   15 type  2   force =     0.00036475    0.00018531   -0.02093702
     atom   16 type  1   force =     0.00000000    0.00000000    0.00000000
     atom   17 type  2   force =     0.00045614    0.00019636    0.02010409
     atom   18 type  2   force =    -0.00006283    0.00025688   -0.02097776
     atom   19 type  1   force =     0.00000000    0.00000000    0.00000000
     atom   20 type  2   force =    -0.00002039    0.00074860   -0.02117363
     atom   21 type  1   force =     0.00000000    0.00000000    0.00000000
     atom   22 type  2   force =    -0.00042841   -0.00035831    0.02026388
     atom   23 type  2   force =    -0.00038389    0.00102759   -0.02086064
     atom   24 type  1   force =     0.00000000    0.00000000    0.00000000
     atom   25 type  2   force =     0.00080304    0.00081015    0.02017102
     atom   26 type  2   force =    -0.00041295   -0.00013790   -0.02093610
     atom   27 type  1   force =     0.00000000    0.00000000    0.00000000
     atom   28 type  2   force =     0.00017797    0.00080513    0.02109402
     atom   29 type  2   force =    -0.00006239    0.00024097   -0.02082888
     atom   30 type  1   force =     0.00000000    0.00000000    0.00000000
     atom   31 type  2   force =     0.00022883   -0.00001023    0.02074801
     atom   32 type  2   force =    -0.00053687    0.00080842   -0.02092180
     atom   33 type  1   force =     0.00000000    0.00000000    0.00000000
     atom   34 type  2   force =     0.00016276    0.00030128    0.02099436
     atom   35 type  2   force =     0.00006730    0.00070315   -0.02096547
     atom   36 type  3   force =     0.00000000    0.00000000    0.00000000
     The Hubbard contrib.    to forces
     atom    1 type  1   force =     0.00000000    0.00000000    0.00000000
     atom    2 type  2   force =     0.00000000    0.00000000    0.00000000
     atom    3 type  2   force =     0.00000000    0.00000000    0.00000000
     atom    4 type  1   force =     0.00000000    0.00000000    0.00000000
     atom    5 type  2   force =     0.00000000    0.00000000    0.00000000
     atom    6 type  2   force =     0.00000000    0.00000000    0.00000000
     atom    7 type  1   force =     0.00000000    0.00000000    0.00000000
     atom    8 type  2   force =     0.00000000    0.00000000    0.00000000
     atom    9 type  2   force =     0.00000000    0.00000000    0.00000000
     atom   10 type  1   force =     0.00000000    0.00000000    0.00000000
     atom   11 type  2   force =     0.00000000    0.00000000    0.00000000
     atom   12 type  2   force =     0.00000000    0.00000000    0.00000000
     atom   13 type  1   force =     0.00000000    0.00000000    0.00000000
     atom   14 type  2   force =     0.00000000    0.00000000    0.00000000
     atom   15 type  2   force =     0.00000000    0.00000000    0.00000000
     atom   16 type  1   force =     0.00000000    0.00000000    0.00000000
     atom   17 type  2   force =     0.00000000    0.00000000    0.00000000
     atom   18 type  2   force =     0.00000000    0.00000000    0.00000000
     atom   19 type  1   force =     0.00000000    0.00000000    0.00000000
     atom   20 type  2   force =     0.00000000    0.00000000    0.00000000
     atom   21 type  1   force =     0.00000000    0.00000000    0.00000000
     atom   22 type  2   force =     0.00000000    0.00000000    0.00000000
     atom   23 type  2   force =     0.00000000    0.00000000    0.00000000
     atom   24 type  1   force =     0.00000000    0.00000000    0.00000000
     atom   25 type  2   force =     0.00000000    0.00000000    0.00000000
     atom   26 type  2   force =     0.00000000    0.00000000    0.00000000
     atom   27 type  1   force =     0.00000000    0.00000000    0.00000000
     atom   28 type  2   force =     0.00000000    0.00000000    0.00000000
     atom   29 type  2   force =     0.00000000    0.00000000    0.00000000
     atom   30 type  1   force =     0.00000000    0.00000000    0.00000000
     atom   31 type  2   force =     0.00000000    0.00000000    0.00000000
     atom   32 type  2   force =     0.00000000    0.00000000    0.00000000
     atom   33 type  1   force =     0.00000000    0.00000000    0.00000000
     atom   34 type  2   force =     0.00000000    0.00000000    0.00000000
     atom   35 type  2   force =     0.00000000    0.00000000    0.00000000
     atom   36 type  3   force =     0.00000000    0.00000000    0.00000000
     The SCF correction term to forces
     atom    1 type  1   force =    -0.00001168   -0.00002479    0.00006549
     atom    2 type  2   force =    -0.00002030    0.00000009    0.00003031
     atom    3 type  2   force =    -0.00000146   -0.00000300    0.00000945
     atom    4 type  1   force =     0.00000737   -0.00000275    0.00004218
     atom    5 type  2   force =    -0.00000972   -0.00001212    0.00003206
     atom    6 type  2   force =    -0.00000545   -0.00000829    0.00001136
     atom    7 type  1   force =     0.00000299    0.00002136    0.00004376
     atom    8 type  2   force =     0.00000240   -0.00000036    0.00002435
     atom    9 type  2   force =     0.00000587   -0.00000247    0.00000414
     atom   10 type  1   force =    -0.00000670    0.00000415    0.00006040
     atom   11 type  2   force =    -0.00000920    0.00002448    0.00001511
     atom   12 type  2   force =    -0.00000779   -0.00000219    0.00000907
     atom   13 type  1   force =     0.00001639   -0.00002357    0.00006263
     atom   14 type  2   force =     0.00001204   -0.00000614    0.00003907
     atom   15 type  2   force =     0.00000448   -0.00000152    0.00001775
     atom   16 type  1   force =     0.00000329   -0.00002899    0.00006190
     atom   17 type  2   force =     0.00000860   -0.00000578    0.00003798
     atom   18 type  2   force =     0.00000827    0.00000043    0.00000559
     atom   19 type  1   force =     0.00000453    0.00001784    0.00004484
     atom   20 type  2   force =    -0.00000231    0.00000299    0.00000094
     atom   21 type  1   force =     0.00002342    0.00002398    0.00006490
     atom   22 type  2   force =     0.00000058    0.00001059    0.00002742
     atom   23 type  2   force =     0.00000485    0.00000165    0.00000909
     atom   24 type  1   force =     0.00000834   -0.00001108    0.00005508
     atom   25 type  2   force =     0.00000608   -0.00000026    0.00003493
     atom   26 type  2   force =     0.00000526   -0.00000915    0.00000853
     atom   27 type  1   force =    -0.00000311   -0.00000635    0.00004285
     atom   28 type  2   force =    -0.00000078   -0.00000781    0.00003336
     atom   29 type  2   force =    -0.00000302    0.00000495    0.00000691
     atom   30 type  1   force =     0.00001331   -0.00000631    0.00003370
     atom   31 type  2   force =    -0.00000602    0.00000439    0.00002757
     atom   32 type  2   force =    -0.00000750    0.00000589    0.00001108
     atom   33 type  1   force =     0.00001068    0.00000993    0.00004967
     atom   34 type  2   force =     0.00000051    0.00001004    0.00002601
     atom   35 type  2   force =     0.00000003    0.00000526    0.00000823
     atom   36 type  3   force =    -0.00000199    0.00000219    0.00000227

     Total force =     0.005748     Total SCF correction =     0.000231
     Energy error            =      7.9E-05 Ry
     Gradient error          =      1.6E-03 Ry/Bohr

     bfgs converged in  20 scf cycles and  19 bfgs steps
     (criteria: energy <  1.0E-04 Ry, force <  1.0E-02 Ry/Bohr)

     End of BFGS Geometry Optimization

     Final energy             =   -2205.5754953611 Ry

     File ./MoS2-V-O.bfgs deleted, as requested
Begin final coordinates

ATOMIC_POSITIONS (angstrom)
Mo            6.5687751950        1.7444962052        2.7980282483
S             8.1773822778        0.8475590773        4.3606398292
S             8.1245189042        0.8396795402        1.1788719306
Mo            8.1280735442        4.4886222434        2.7044617684
S             6.5232855547        3.6839915324        4.3089332420
S             6.5627677823        3.5360392807        1.1159623442
Mo            6.5253849445        7.1809596303        2.6655787645
S             8.0969903441        6.2995657671        4.2916163661
S             8.1459181087        6.3221504902        1.1103689650
Mo            8.1489762255        9.9326451015        2.7662213150
S             6.5511872493        8.9258503038        4.3359551968
S             6.5901378969        9.0314419097        1.1303504748
Mo            3.4095903122        1.7820692404        2.6825231777
S             5.0932384160        0.7396775128        4.5047388563
S             5.0145857681        0.8242977791        1.1978013045
Mo            4.9894538981        4.5119331895        2.6380094180
S             3.4644212141        3.6489252712        4.2849809464
S             3.4208643848        3.5769539043        1.0608668317
Mo            3.4746668452        7.1800211078        2.6758968455
S             5.0003770713        6.3104184663        1.0486128849
Mo            5.0139481144        9.8898328409        2.7683311520
S             3.4548017829        8.9414274261        4.3360549289
S             3.4214353294        9.0314345018        1.1348114571
Mo            0.2820463483        1.7428482273        2.7463715700
S             1.8875832282        0.8701218901        4.3310347391
S             1.8438599046        0.8360053710        1.1279539905
Mo            1.8724602505        4.5048850099        2.6921792865
S             0.2797930434        3.6065889418        4.2969780235
S             0.2703265260        3.5607378952        1.1307489259
Mo            0.2757749218        7.2193199283        2.7294969209
S             1.9043063471        6.3007262691        4.3008428155
S             1.8588384780        6.3422505193        1.1045181956
Mo            1.8683774998        9.9489985503        2.7538016198
S             0.2886838241        9.0317334552        4.3497152538
S             0.2755099943        9.0547628466        1.1635715924
H             5.9685121487        0.1919751843        5.4639183949
End final coordinates



     Writing all to output data dir ./MoS2-V-O.save/
 
     init_run     :      3.11s CPU      3.29s WALL (       1 calls)
     electrons    :   1772.79s CPU   1943.36s WALL (      20 calls)
     update_pot   :     26.51s CPU     27.63s WALL (      19 calls)
     forces       :     27.14s CPU     29.11s WALL (      20 calls)

     Called by init_run:
     wfcinit      :      0.39s CPU      0.43s WALL (       1 calls)
     potinit      :      2.02s CPU      2.11s WALL (       1 calls)
     hinit0       :      0.18s CPU      0.20s WALL (       1 calls)

     Called by electrons:
     c_bands      :    212.56s CPU    215.02s WALL (     176 calls)
     sum_band     :     55.66s CPU     60.84s WALL (     176 calls)
     v_of_rho     :     72.26s CPU     83.37s WALL (     183 calls)
     newd         :     29.14s CPU     32.74s WALL (     183 calls)
     mix_rho      :   1412.63s CPU   1559.95s WALL (     176 calls)

     Called by c_bands:
     init_us_2    :      3.87s CPU      4.02s WALL (     353 calls)
     init_us_2:cp :      3.87s CPU      4.02s WALL (     353 calls)
     regterg      :    199.96s CPU    202.26s WALL (     176 calls)

     Called by *egterg:
     rdiaghg      :     16.98s CPU     17.10s WALL (     996 calls)
     h_psi        :    114.81s CPU    115.90s WALL (    1029 calls)
     s_psi        :     14.74s CPU     14.79s WALL (    1029 calls)
     g_psi        :      0.77s CPU      0.78s WALL (     852 calls)

     Called by h_psi:
     h_psi:calbec :     16.04s CPU     16.14s WALL (    1029 calls)
     vloc_psi     :     82.46s CPU     83.35s WALL (    1029 calls)
     add_vuspsi   :     14.43s CPU     14.52s WALL (    1029 calls)

     General routines
     calbec       :     22.93s CPU     23.10s WALL (    1285 calls)
     fft          :     47.73s CPU     55.64s WALL (   12335 calls)
     ffts         :    631.10s CPU    773.54s WALL (  344862 calls)
     fftw         :     69.52s CPU     70.20s WALL (  106342 calls)
     interpolate  :      1.30s CPU      1.49s WALL (     183 calls)
 
     Parallel routines
 
     PWSCF        :  30m33.62s CPU  33m29.01s WALL

 
   This run was terminated on:   7:50:13   4Nov2023            

=------------------------------------------------------------------------------=
   JOB DONE.
=------------------------------------------------------------------------------=
