
     Program PWSCF v.7.2 starts on  3Nov2023 at 22: 7:19 

     This program is part of the open-source Quantum ESPRESSO suite
     for quantum simulation of materials; please cite
         "P. Giannozzi et al., J. Phys.:Condens. Matter 21 395502 (2009);
         "P. Giannozzi et al., J. Phys.:Condens. Matter 29 465901 (2017);
         "P. Giannozzi et al., J. Chem. Phys. 152 154105 (2020);
          URL http://www.quantum-espresso.org", 
     in publications or presentations arising from this work. More details at
     http://www.quantum-espresso.org/quote

     Parallel version (MPI & OpenMP), running on      48 processor cores
     Number of MPI processes:                48
     Threads/MPI process:                     1

     MPI processes distributed on     1 nodes
     111172 MiB available memory on the printing compute node when the environment starts
 
     Waiting for input...
     Reading input from standard input
Warning: card &CELL ignored
Warning: card CELL_DYNAMICS = 'BFGS', ignored
Warning: card CELL_DOFREE = '2DXY' ignored
Warning: card / ignored

     Current dimensions of program PWSCF are:
     Max number of different atomic species (ntypx) = 10
     Max number of k-points (npk) =  40000
     Max angular momentum in pseudopotentials (lmaxx) =  4

     IMPORTANT: XC functional enforced from input :
     Exchange-correlation= RVV10
                           (   1   4  13   4  26   0   0)
     Any further DFT definition will be discarded
     Please, verify this is what you really want


     gamma-point specific algorithms are used
     signal trapping enabled: kill the code with -SIGUSR1 to stop cleanly the simulation 
 
     R & G space division:  proc/nbgrp/npool/nimage =      48
     Subspace diagonalization in iterative solution of the eigenvalue problem:
     one sub-group per band group will be used
     scalapack distributed-memory algorithm (size of sub-group:  2*  2 procs)

 
     Parallelization info
     --------------------
     sticks:   dense  smooth     PW     G-vecs:    dense   smooth      PW
     Min         243     194     47                49060    35090    4376
     Max         246     196     50                49086    35128    4410
     Sum       11735    9389   2349              2355467  1685513  210763
 
     Using Slab Decomposition
 


     bravais-lattice index     =            0
     lattice parameter (alat)  =      17.8707  a.u.
     unit-cell volume          =   17436.2743 (a.u.)^3
     number of atoms/cell      =           36
     number of atomic types    =            3
     number of electrons       =       307.00
     number of Kohn-Sham states=          185
     kinetic-energy cutoff     =      80.0000  Ry
     charge density cutoff     =     400.0000  Ry
     scf convergence threshold =      1.0E-06
     mixing beta               =       0.7000
     number of iterations used =            8  local-TF  mixing
     energy convergence thresh.=      1.0E-04
     force convergence thresh. =      1.0E-02
     Exchange-correlation= RVV10
                           (   1   4  13   4  26   0   0)
     nstep                     =          200


     celldm(1)=  17.870686  celldm(2)=   0.000000  celldm(3)=   0.000000
     celldm(4)=   0.000000  celldm(5)=   0.000000  celldm(6)=   0.000000

     crystal axes: (cart. coord. in units of alat)
               a(1) = (   1.000000   0.000000   0.000000 )  
               a(2) = (   0.000000   1.155671   0.000000 )  
               a(3) = (   0.000000   0.000000   2.643601 )  

     reciprocal axes: (cart. coord. in units 2 pi/alat)
               b(1) = (  1.000000  0.000000  0.000000 )  
               b(2) = (  0.000000  0.865298  0.000000 )  
               b(3) = (  0.000000  0.000000  0.378272 )  


     PseudoPot. # 1 for Mo read from file:
     ../pseudo/Mo_ONCV_PBE-1.0.oncvpsp.upf
     MD5 check sum: 1b5d28e075c9ccadda658a603575cd1f
     Pseudo is Norm-conserving, Zval = 14.0
     Generated using ONCVPSP code by D. R. Hamann
     Using radial grid of 1526 points,  6 beta functions with: 
                l(1) =   0
                l(2) =   0
                l(3) =   1
                l(4) =   1
                l(5) =   2
                l(6) =   2

     PseudoPot. # 2 for S  read from file:
     ../pseudo/s_pbe_v1.4.uspp.F.UPF
     MD5 check sum: 88d86576ff6df21479756cfb9bdac1df
     Pseudo is Ultrasoft + core correction, Zval =  6.0
     Generated by new atomic code, or converted to UPF format
     Using radial grid of  907 points,  6 beta functions with: 
                l(1) =   0
                l(2) =   0
                l(3) =   1
                l(4) =   1
                l(5) =   2
                l(6) =   2
     Q(r) pseudized with  8 coefficients,  rinner =    1.300   1.300   1.300
                                                       1.300   1.300

     PseudoPot. # 3 for H  read from file:
     ../pseudo/H_ONCV_PBE-1.0.oncvpsp.upf
     MD5 check sum: 1790becc920ee074925cf490c71280fe
     Pseudo is Norm-conserving, Zval =  1.0
     Generated using ONCVPSP code by D. R. Hamann
     Using radial grid of 1166 points,  2 beta functions with: 
                l(1) =   0
                l(2) =   0

     atomic species   valence    mass     pseudopotential
        Mo            14.00    95.94000     Mo( 1.00)
        S              6.00    32.06500     S ( 1.00)
        H              1.00     1.00794     H ( 1.00)

     No symmetry found



   Cartesian axes

     site n.     atom                  positions (alat units)
         1           Mo  tau(   1) = (   0.6952221   0.1890506   0.2985846  )
         2           S   tau(   2) = (   0.8646417   0.0856217   0.4689279  )
         3           S   tau(   3) = (   0.8663890   0.0857843   0.1351291  )
         4           Mo  tau(   4) = (   0.8560186   0.4753274   0.2873942  )
         5           S   tau(   5) = (   0.6873294   0.3936244   0.4596353  )
         6           S   tau(   6) = (   0.6929804   0.3713468   0.1185692  )
         7           Mo  tau(   7) = (   0.6862796   0.7633098   0.2825370  )
         8           S   tau(   8) = (   0.8545980   0.6708292   0.4486168  )
         9           S   tau(   9) = (   0.8545123   0.6666874   0.1146125  )
        10           Mo  tau(  10) = (   0.8629403   1.0471007   0.3006803  )
        11           S   tau(  11) = (   0.6868280   0.9456650   0.4634891  )
        12           S   tau(  12) = (   0.6998113   0.9568511   0.1205389  )
        13           Mo  tau(  13) = (   0.3618216   0.1847309   0.2935964  )
        14           S   tau(  14) = (   0.5260962   0.0863870   0.4600448  )
        15           S   tau(  15) = (   0.5348379   0.0894875   0.1297123  )
        16           Mo  tau(  16) = (   0.5265817   0.4772436   0.2784130  )
        17           S   tau(  17) = (   0.3624753   0.3882513   0.4525556  )
        18           S   tau(  18) = (   0.3635411   0.3752055   0.1119148  )
        19           Mo  tau(  19) = (   0.3652268   0.7630864   0.2781795  )
        20           S   tau(  20) = (   0.5269494   0.6690381   0.1096838  )
        21           Mo  tau(  21) = (   0.5300192   1.0470394   0.2900995  )
        22           S   tau(  22) = (   0.3670346   0.9457522   0.4574073  )
        23           S   tau(  23) = (   0.3604225   0.9585725   0.1159032  )
        24           Mo  tau(  24) = (   0.0313099   0.1847895   0.3013130  )
        25           S   tau(  25) = (   0.1956761   0.0838230   0.4650863  )
        26           S   tau(  26) = (   0.1967693   0.0903508   0.1278874  )
        27           Mo  tau(  27) = (   0.1967578   0.4753919   0.2813011  )
        28           S   tau(  28) = (   0.0287851   0.3864324   0.4586755  )
        29           S   tau(  29) = (   0.0244514   0.3729871   0.1239344  )
        30           Mo  tau(  30) = (   0.0286728   0.7631204   0.2856894  )
        31           S   tau(  31) = (   0.2011512   0.6675435   0.4465001  )
        32           S   tau(  32) = (   0.1969214   0.6672839   0.1104564  )
        33           Mo  tau(  33) = (   0.1950294   1.0511147   0.2932237  )
        34           S   tau(  34) = (   0.0312912   0.9612169   0.4667423  )
        35           S   tau(  35) = (   0.0292670   0.9563028   0.1216485  )
        36           H   tau(  36) = (   1.0000000   0.1284079   0.5407634  )

     number of k points=     1  Gaussian smearing, width (Ry)=  0.0100
                       cart. coord. in units 2pi/alat
        k(    1) = (   0.0000000   0.0000000   0.0000000), wk =   2.0000000

     Dense  grid:  1177734 G-vectors     FFT dimensions: ( 120, 135, 320)

     Smooth grid:   842757 G-vectors     FFT dimensions: ( 108, 120, 270)

     Estimated max dynamical RAM per process >     146.59 MB

     Estimated total dynamical RAM >       6.87 GB

     Initial potential from superposition of free atoms

     starting charge     306.9873, renormalised to     307.0000

     negative rho (up, down):  1.419E-04 0.000E+00


---------------------------------------------------------------------------------
Carrying out rVV10 run using the following parameters:
Nqs =      20    Nr_points =    1024   r_max =   100.000
b_value =  6.30000    beta =  0.00901
     q_mesh =  0.00010000  0.00030000  0.00058939  0.00100810
               0.00161396  0.00249058  0.00375900  0.00559430
               0.00824984  0.01209221  0.01765183  0.02569619
               0.03733578  0.05417739  0.07854596  0.11380545
               0.16482331  0.23864234  0.34545298  0.50000000

Gradients computed in Reciprocal space

---------------------------------------------------------------------------------


     Starting wfcs are  213 randomized atomic wfcs

     total cpu time spent up to now is        3.5 secs

     Self-consistent Calculation

     iteration #  1     ecut=    80.00 Ry     beta= 0.70
     Davidson diagonalization with overlap
     ethr =  1.00E-02,  avg # of iterations =  2.0

     Threshold (ethr) on eigenvalues was too large:
     Diagonalizing with lowered threshold

     Davidson diagonalization with overlap
     ethr =  3.82E-04,  avg # of iterations =  4.0

     negative rho (up, down):  1.901E-08 0.000E+00

     total cpu time spent up to now is       18.9 secs

     total energy              =   -2205.60738891 Ry
     estimated scf accuracy    <       1.46326966 Ry

     iteration #  2     ecut=    80.00 Ry     beta= 0.70
     Davidson diagonalization with overlap
     ethr =  4.77E-04,  avg # of iterations =  1.0

     total cpu time spent up to now is       21.3 secs

     total energy              =   -2205.43271870 Ry
     estimated scf accuracy    <       0.59900744 Ry

     iteration #  3     ecut=    80.00 Ry     beta= 0.70
     Davidson diagonalization with overlap
     ethr =  1.95E-04,  avg # of iterations =  4.0

     total cpu time spent up to now is       23.9 secs

     total energy              =   -2205.53214066 Ry
     estimated scf accuracy    <       0.05588632 Ry

     iteration #  4     ecut=    80.00 Ry     beta= 0.70
     Davidson diagonalization with overlap
     c_bands:  1 eigenvalues not converged
     ethr =  1.82E-05,  avg # of iterations = 20.0

     total cpu time spent up to now is       27.4 secs

     total energy              =   -2205.53495538 Ry
     estimated scf accuracy    <       0.02940876 Ry

     iteration #  5     ecut=    80.00 Ry     beta= 0.70
     Davidson diagonalization with overlap
     ethr =  9.58E-06,  avg # of iterations =  8.0

     total cpu time spent up to now is       29.8 secs

     total energy              =   -2205.53466765 Ry
     estimated scf accuracy    <       0.01873879 Ry

     iteration #  6     ecut=    80.00 Ry     beta= 0.70
     Davidson diagonalization with overlap
     ethr =  6.10E-06,  avg # of iterations =  2.0

     total cpu time spent up to now is       32.0 secs

     total energy              =   -2205.53417196 Ry
     estimated scf accuracy    <       0.01328884 Ry

     iteration #  7     ecut=    80.00 Ry     beta= 0.70
     Davidson diagonalization with overlap
     ethr =  4.33E-06,  avg # of iterations =  1.0

     total cpu time spent up to now is       34.3 secs

     total energy              =   -2205.53177697 Ry
     estimated scf accuracy    <       0.00938936 Ry

     iteration #  8     ecut=    80.00 Ry     beta= 0.70
     Davidson diagonalization with overlap
     ethr =  3.06E-06,  avg # of iterations =  2.0

     negative rho (up, down):  2.042E-03 0.000E+00

     total cpu time spent up to now is       38.6 secs

     total energy              =   -2205.53168438 Ry
     estimated scf accuracy    <       0.00432486 Ry

     iteration #  9     ecut=    80.00 Ry     beta= 0.70
     Davidson diagonalization with overlap
     ethr =  1.41E-06,  avg # of iterations =  2.0

     negative rho (up, down):  1.926E-02 0.000E+00

     total cpu time spent up to now is       43.0 secs

     total energy              =   -2205.53134493 Ry
     estimated scf accuracy    <       0.00276904 Ry

     iteration # 10     ecut=    80.00 Ry     beta= 0.70
     Davidson diagonalization with overlap
     ethr =  9.02E-07,  avg # of iterations =  2.0

     negative rho (up, down):  3.226E-02 0.000E+00

     total cpu time spent up to now is       47.4 secs

     total energy              =   -2205.53145108 Ry
     estimated scf accuracy    <       0.00131640 Ry

     iteration # 11     ecut=    80.00 Ry     beta= 0.70
     Davidson diagonalization with overlap
     ethr =  4.29E-07,  avg # of iterations =  2.0

     negative rho (up, down):  1.689E-02 0.000E+00

     total cpu time spent up to now is       53.2 secs

     total energy              =   -2205.53148318 Ry
     estimated scf accuracy    <       0.00038301 Ry

     iteration # 12     ecut=    80.00 Ry     beta= 0.70
     Davidson diagonalization with overlap
     ethr =  1.25E-07,  avg # of iterations =  6.0

     negative rho (up, down):  5.443E-03 0.000E+00

     total cpu time spent up to now is       58.6 secs

     total energy              =   -2205.53155241 Ry
     estimated scf accuracy    <       0.00015465 Ry

     iteration # 13     ecut=    80.00 Ry     beta= 0.70
     Davidson diagonalization with overlap
     ethr =  5.04E-08,  avg # of iterations =  2.0

     negative rho (up, down):  1.797E-03 0.000E+00

     total cpu time spent up to now is       67.1 secs

     total energy              =   -2205.53157344 Ry
     estimated scf accuracy    <       0.00001091 Ry

     iteration # 14     ecut=    80.00 Ry     beta= 0.70
     Davidson diagonalization with overlap
     c_bands:  2 eigenvalues not converged
     ethr =  3.55E-09,  avg # of iterations = 20.0

     negative rho (up, down):  5.974E-04 0.000E+00

     total cpu time spent up to now is       77.1 secs

     total energy              =   -2205.53157815 Ry
     estimated scf accuracy    <       0.00000453 Ry

     iteration # 15     ecut=    80.00 Ry     beta= 0.70
     Davidson diagonalization with overlap
     ethr =  1.47E-09,  avg # of iterations =  2.0

     negative rho (up, down):  1.375E-04 0.000E+00

     total cpu time spent up to now is       79.0 secs

     End of self-consistent calculation

          k = 0.0000 0.0000 0.0000 (105382 PWs)   bands (ev):

   -62.8925 -62.8678 -62.8594 -62.8468 -62.8305 -62.8186 -62.8158 -62.8031
   -62.7596 -62.6105 -62.5900 -62.5408 -37.2062 -37.1570 -37.1447 -37.1215
   -37.1119 -37.1080 -37.0968 -37.0763 -37.0678 -37.0442 -37.0365 -37.0323
   -37.0182 -37.0070 -37.0027 -36.9990 -36.9910 -36.9856 -36.9827 -36.9726
   -36.9374 -36.9208 -36.9004 -36.8731 -36.8679 -36.8377 -36.8324 -36.8244
   -36.7909 -36.7774 -36.7587 -36.7414 -36.7289 -36.6805 -36.5636 -36.5614
   -16.2605 -15.5878 -15.1460 -15.0416 -14.9803 -14.8075 -14.6593 -14.5140
   -14.4524 -14.4019 -14.3868 -14.3336 -14.3239 -14.2407 -14.1424 -14.1189
   -14.0699 -14.0582 -13.9973 -13.9466 -13.7909 -13.7824 -13.7474  -8.9919
    -7.6615  -7.4692  -7.2749  -7.2518  -7.2410  -7.1844  -7.1401  -6.9917
    -6.7991  -6.7782  -6.7168  -6.6653  -6.5909  -6.4920  -6.4397  -6.4287
    -6.3298  -6.2655  -6.1495  -5.9575  -5.9282  -5.8360  -5.8312  -5.7795
    -5.7539  -5.7226  -5.6200  -5.6143  -5.5848  -5.5206  -5.5100  -5.4918
    -5.4196  -5.3290  -5.2117  -5.1633  -5.0669  -5.0056  -4.9414  -4.9279
    -4.9221  -4.7846  -4.6544  -4.4818  -4.3789  -4.3108  -4.2735  -4.2295
    -4.2183  -4.0150  -3.9907  -3.8413  -3.8157  -3.7477  -3.7068  -3.6806
    -3.6445  -3.5715  -3.5379  -3.5167  -3.4875  -3.4767  -3.4039  -3.3580
    -3.3516  -3.1771  -3.1213  -2.9160  -2.8687  -2.7810  -2.7341  -2.6990
    -2.6901  -2.6728  -2.6327  -2.5587  -2.4866  -2.2185  -1.9793  -1.9637
    -1.8832  -0.7596  -0.6145  -0.4144  -0.1634  -0.1168  -0.0740   0.0016
     0.0168   0.1428   0.2211   0.2294   0.2622   0.3024   0.3533   0.4786
     0.4943   0.5704   0.5966   0.6150   0.6651   0.6932   0.7254   0.7638
     0.8055   0.8418   0.8678   0.9312   0.9513   1.0093   1.0346   1.3850
     1.4076

     the Fermi energy is    -0.7719 ev

!    total energy              =   -2205.53157720 Ry
     estimated scf accuracy    <       0.00000098 Ry
     smearing contrib. (-TS)   =      -0.00707998 Ry
     internal energy E=F+TS    =   -2205.52449722 Ry

     The total energy is F=E-TS. E is the sum of the following terms:
     one-electron contribution =  -18056.24973815 Ry
     hartree contribution      =    9015.15058040 Ry
     xc contribution           =    -385.35037134 Ry
     ewald contribution        =    7220.92503187 Ry

     convergence has been achieved in  15 iterations

     negative rho (up, down):  1.375E-04 0.000E+00

     Forces acting on atoms (cartesian axes, Ry/au):

     atom    1 type  1   force =     0.00322505   -0.00441010   -0.00270638
     atom    2 type  2   force =    -0.00511779    0.00769151    0.04838050
     atom    3 type  2   force =    -0.01276493    0.00936484   -0.00348492
     atom    4 type  1   force =     0.00778391   -0.01056004   -0.00287381
     atom    5 type  2   force =    -0.00551887   -0.00070336   -0.00702010
     atom    6 type  2   force =     0.00293544    0.00959118    0.00425823
     atom    7 type  1   force =    -0.00369719    0.00463067   -0.00821347
     atom    8 type  2   force =     0.00309766   -0.00514007    0.01790880
     atom    9 type  2   force =     0.01457235    0.00482383    0.01038582
     atom   10 type  1   force =    -0.00115308    0.00047371   -0.02503416
     atom   11 type  2   force =     0.00092507   -0.00419625   -0.00299130
     atom   12 type  2   force =    -0.00069608    0.00021722    0.00477461
     atom   13 type  1   force =     0.00820956    0.00904668   -0.00623366
     atom   14 type  2   force =     0.00641032    0.00005575    0.00816100
     atom   15 type  2   force =    -0.01218444    0.00112515   -0.01025832
     atom   16 type  1   force =     0.00092791   -0.00044210    0.00267532
     atom   17 type  2   force =     0.00734054    0.00301128    0.00071506
     atom   18 type  2   force =    -0.00568583   -0.00537818    0.01651968
     atom   19 type  1   force =     0.01370007    0.00128877   -0.00347283
     atom   20 type  2   force =     0.00340718   -0.00534279    0.00033313
     atom   21 type  1   force =    -0.00215387    0.00965824    0.00096017
     atom   22 type  2   force =    -0.00000649   -0.00263298   -0.00014700
     atom   23 type  2   force =    -0.00172753    0.00121334    0.00831121
     atom   24 type  1   force =     0.00535995    0.02288296   -0.06387735
     atom   25 type  2   force =     0.02807052    0.01263908    0.01553427
     atom   26 type  2   force =    -0.01135764   -0.00019397   -0.00478284
     atom   27 type  1   force =    -0.00599408   -0.01140124    0.00697014
     atom   28 type  2   force =     0.00192719    0.00771154   -0.00579982
     atom   29 type  2   force =     0.00331413   -0.00206365   -0.00206368
     atom   30 type  1   force =    -0.00581637    0.01143539   -0.00544597
     atom   31 type  2   force =     0.00108983   -0.00051042    0.01676177
     atom   32 type  2   force =    -0.01131243    0.00467232    0.00664203
     atom   33 type  1   force =     0.01122071   -0.00551251   -0.01008356
     atom   34 type  2   force =     0.00391563   -0.04880279   -0.00891838
     atom   35 type  2   force =    -0.00827878    0.00778551    0.01419485
     atom   36 type  3   force =    -0.03396763   -0.02202851   -0.01007906
     The non-local contrib.  to forces
     atom    1 type  1   force =    -0.00503973    0.02983264   -0.01504600
     atom    2 type  2   force =     0.22496377    0.07030494   -0.06779533
     atom    3 type  2   force =    -0.01609357   -0.00423020    0.27511489
     atom    4 type  1   force =    -0.00437780    0.01709478    0.00359764
     atom    5 type  2   force =     0.00576826   -0.03120566   -0.25252562
     atom    6 type  2   force =    -0.00585490    0.00334123    0.26604795
     atom    7 type  1   force =    -0.03345739   -0.01725315   -0.01260055
     atom    8 type  2   force =     0.00563944   -0.00536450   -0.25287373
     atom    9 type  2   force =     0.01248828   -0.01441933    0.27610225
     atom   10 type  1   force =     0.00277110   -0.00310686   -0.00879551
     atom   11 type  2   force =     0.00994992    0.00864839   -0.25777074
     atom   12 type  2   force =    -0.01111654   -0.01529907    0.26151730
     atom   13 type  1   force =     0.00025619    0.02299342   -0.00913082
     atom   14 type  2   force =     0.00730889   -0.01093263   -0.25473171
     atom   15 type  2   force =    -0.01309466   -0.00035692    0.26134136
     atom   16 type  1   force =    -0.00262799    0.04710331   -0.02596137
     atom   17 type  2   force =     0.00153431   -0.02887522   -0.25061060
     atom   18 type  2   force =    -0.00348733   -0.00673853    0.27429893
     atom   19 type  1   force =     0.02723238   -0.01480046   -0.01002500
     atom   20 type  2   force =     0.00000586   -0.02166399    0.26413705
     atom   21 type  1   force =    -0.00180356    0.01129755    0.00831336
     atom   22 type  2   force =    -0.00591312    0.00735625   -0.25854065
     atom   23 type  2   force =     0.00602881   -0.01198792    0.26755954
     atom   24 type  1   force =     0.00781255    0.02315735   -0.01358734
     atom   25 type  2   force =    -0.02554053    0.01506426   -0.20914484
     atom   26 type  2   force =    -0.00282046   -0.01320252    0.26655008
     atom   27 type  1   force =     0.00449819    0.01864123    0.00669203
     atom   28 type  2   force =    -0.00101238   -0.02493414   -0.25914579
     atom   29 type  2   force =     0.00788886   -0.00256179    0.26584216
     atom   30 type  1   force =     0.00279250    0.01132362    0.00735361
     atom   31 type  2   force =    -0.00839347    0.00007768   -0.25169441
     atom   32 type  2   force =    -0.00928417   -0.01526135    0.27188087
     atom   33 type  1   force =    -0.00158954    0.00320067    0.00526936
     atom   34 type  2   force =    -0.00155175   -0.03197921   -0.27507072
     atom   35 type  2   force =    -0.00610783   -0.00898253    0.27334879
     atom   36 type  3   force =    -0.02982002   -0.01174068   -0.02193217
     The ionic contribution  to forces
     atom    1 type  1   force =     0.07352675    0.30637030    5.46143426
     atom    2 type  2   force =    -1.90190643    0.00831155   38.64228413
     atom    3 type  2   force =    -0.21102835   -0.00206472  -36.20998727
     atom    4 type  1   force =    -0.00855346    0.82669061    0.55041917
     atom    5 type  2   force =    -1.07708015    1.61621591   38.73490064
     atom    6 type  2   force =     0.31743559   -0.46584316  -38.05101051
     atom    7 type  1   force =    -2.66391591   -2.81234183    2.58139487
     atom    8 type  2   force =    -1.01114556    0.05420331   37.39532733
     atom    9 type  2   force =     0.33189816   -0.02635552  -38.00298574
     atom   10 type  1   force =    -1.30582114   -0.69354774    5.35796153
     atom   11 type  2   force =    -0.63448561   -1.70304931   39.13982712
     atom   12 type  2   force =     0.42092429    0.65991438  -37.86539225
     atom   13 type  1   force =     0.69586766    1.03742514    2.70096968
     atom   14 type  2   force =     0.02939697   -0.02618189   38.50937859
     atom   15 type  2   force =     0.14831692   -0.07069529  -36.83009832
     atom   16 type  1   force =    -0.03762793    4.04687875    0.47877590
     atom   17 type  2   force =     0.89442516    1.59295549   37.92560975
     atom   18 type  2   force =    -0.14013521   -0.61640747  -38.58180358
     atom   19 type  1   force =     2.75741372   -2.47339056    0.67249283
     atom   20 type  2   force =     0.22724068   -0.19126783  -38.46496620
     atom   21 type  1   force =     0.01135452   -0.05821484    1.13164486
     atom   22 type  2   force =     0.51089734   -1.79295517   38.43479473
     atom   23 type  2   force =    -0.06979424    0.63760431  -38.29547906
     atom   24 type  1   force =    -0.38220482    1.44804337    4.59686175
     atom   25 type  2   force =     1.36567921    0.11478012   39.01200999
     atom   26 type  2   force =    -0.23621543    0.05164955  -37.42759556
     atom   27 type  1   force =     0.13527347    0.61271935   -2.34614009
     atom   28 type  2   force =     0.10051128    1.45728228   38.08635109
     atom   29 type  2   force =    -0.26002297   -0.36656688  -37.33758715
     atom   30 type  1   force =    -0.33162886   -0.96326455   -0.05647898
     atom   31 type  2   force =     1.25677997   -0.03068122   37.33510912
     atom   32 type  2   force =    -0.46940886    0.00282104  -38.63208825
     atom   33 type  1   force =     1.01524901   -1.14721023    1.83232177
     atom   34 type  2   force =     0.26653733   -1.72986061   39.30938021
     atom   35 type  2   force =    -0.29592267    0.42526064  -37.85468538
     atom   36 type  3   force =     0.47816960    0.27077270    8.06704905
     The local contribution  to forces
     atom    1 type  1   force =    -0.06522624   -0.34056926   -5.44773947
     atom    2 type  2   force =     1.68704249   -0.06615651  -38.53393651
     atom    3 type  2   force =     0.21357196    0.01553816   35.95301757
     atom    4 type  1   force =     0.02074152   -0.85411863   -0.55567399
     atom    5 type  2   force =     1.06653386   -1.58761325  -38.50912114
     atom    6 type  2   force =    -0.30898437    0.47279747   37.81052382
     atom    7 type  1   force =     2.69393346    2.83416198   -2.57576188
     atom    8 type  2   force =     1.00881029   -0.05451779  -37.14435485
     atom    9 type  2   force =    -0.32941566    0.04477246   37.75858071
     atom   10 type  1   force =     1.30185404    0.69691672   -5.37278738
     atom   11 type  2   force =     0.62610469    1.69098273  -38.90499126
     atom   12 type  2   force =    -0.41147208   -0.64578477   37.62979104
     atom   13 type  1   force =    -0.68787090   -1.05132949   -2.69676413
     atom   14 type  2   force =    -0.02973246    0.03715053  -38.26621841
     atom   15 type  2   force =    -0.14808170    0.07213211   36.57947945
     atom   16 type  1   force =     0.04131724   -4.09431651   -0.44894467
     atom   17 type  2   force =    -0.88872235   -1.56268623  -37.69393554
     atom   18 type  2   force =     0.13779426    0.61804385   38.34533459
     atom   19 type  1   force =    -2.77096915    2.48936023   -0.66470565
     atom   20 type  2   force =    -0.22383338    0.20678100   38.22249370
     atom   21 type  1   force =    -0.01149728    0.05654730   -1.13770291
     atom   22 type  2   force =    -0.50520909    1.78370808  -38.19623527
     atom   23 type  2   force =     0.06250482   -0.62549406   38.05737626
     atom   24 type  1   force =     0.37969265   -1.44829629   -4.64569001
     atom   25 type  2   force =    -1.31471866   -0.11611082  -38.80445008
     atom   26 type  2   force =     0.22782684   -0.03936277   37.17770927
     atom   27 type  1   force =    -0.14593045   -0.64262803    2.34757710
     atom   28 type  2   force =    -0.09781739   -1.42683198  -37.85243891
     atom   29 type  2   force =     0.25605335    0.36748401   37.09074147
     atom   30 type  1   force =     0.32279521    0.96323606    0.04494824
     atom   31 type  2   force =    -1.24790172    0.02998127  -37.08647291
     atom   32 type  2   force =     0.46707829    0.01618027   38.38805020
     atom   33 type  1   force =    -1.00258767    1.13845225   -1.84628368
     atom   34 type  2   force =    -0.26159520    1.71233564  -39.06383660
     atom   35 type  2   force =     0.29359773   -0.40942500   37.61710412
     atom   36 type  3   force =    -0.48232502   -0.28106993   -8.05512759
     The core correction contribution to forces
     atom    1 type  1   force =     0.00000000    0.00000000    0.00000000
     atom    2 type  2   force =    -0.01521838   -0.00480348    0.00831908
     atom    3 type  2   force =     0.00073433    0.00009460   -0.02120097
     atom    4 type  1   force =     0.00000000    0.00000000    0.00000000
     atom    5 type  2   force =    -0.00067968    0.00191233    0.02025482
     atom    6 type  2   force =     0.00038296   -0.00064761   -0.02099745
     atom    7 type  1   force =     0.00000000    0.00000000    0.00000000
     atom    8 type  2   force =    -0.00025297    0.00058467    0.02030786
     atom    9 type  2   force =    -0.00045245    0.00084581   -0.02093885
     atom   10 type  1   force =     0.00000000    0.00000000    0.00000000
     atom   11 type  2   force =    -0.00054811   -0.00089032    0.02044486
     atom   12 type  2   force =     0.00103305    0.00122438   -0.02074506
     atom   13 type  1   force =     0.00000000    0.00000000    0.00000000
     atom   14 type  2   force =    -0.00052471    0.00001439    0.02023980
     atom   15 type  2   force =     0.00070224    0.00007155   -0.02058610
     atom   16 type  1   force =     0.00000000    0.00000000    0.00000000
     atom   17 type  2   force =     0.00007407    0.00161668    0.02021945
     atom   18 type  2   force =     0.00011461   -0.00023366   -0.02103125
     atom   19 type  1   force =     0.00000000    0.00000000    0.00000000
     atom   20 type  2   force =     0.00011075    0.00081875   -0.02109033
     atom   21 type  1   force =     0.00000000    0.00000000    0.00000000
     atom   22 type  2   force =     0.00017035   -0.00077313    0.02044998
     atom   23 type  2   force =    -0.00048747    0.00103755   -0.02086209
     atom   24 type  1   force =     0.00000000    0.00000000    0.00000000
     atom   25 type  2   force =     0.00260746   -0.00112864    0.01761896
     atom   26 type  2   force =    -0.00013374    0.00070712   -0.02103526
     atom   27 type  1   force =     0.00000000    0.00000000    0.00000000
     atom   28 type  2   force =     0.00021712    0.00225341    0.01995695
     atom   29 type  2   force =    -0.00062334   -0.00029036   -0.02070270
     atom   30 type  1   force =     0.00000000    0.00000000    0.00000000
     atom   31 type  2   force =     0.00053364    0.00010965    0.02041868
     atom   32 type  2   force =     0.00024496    0.00088662   -0.02093470
     atom   33 type  1   force =     0.00000000    0.00000000    0.00000000
     atom   34 type  2   force =     0.00047638    0.00065708    0.02110866
     atom   35 type  2   force =     0.00011018    0.00084216   -0.02118775
     atom   36 type  3   force =     0.00000000    0.00000000    0.00000000
     The Hubbard contrib.    to forces
     atom    1 type  1   force =     0.00000000    0.00000000    0.00000000
     atom    2 type  2   force =     0.00000000    0.00000000    0.00000000
     atom    3 type  2   force =     0.00000000    0.00000000    0.00000000
     atom    4 type  1   force =     0.00000000    0.00000000    0.00000000
     atom    5 type  2   force =     0.00000000    0.00000000    0.00000000
     atom    6 type  2   force =     0.00000000    0.00000000    0.00000000
     atom    7 type  1   force =     0.00000000    0.00000000    0.00000000
     atom    8 type  2   force =     0.00000000    0.00000000    0.00000000
     atom    9 type  2   force =     0.00000000    0.00000000    0.00000000
     atom   10 type  1   force =     0.00000000    0.00000000    0.00000000
     atom   11 type  2   force =     0.00000000    0.00000000    0.00000000
     atom   12 type  2   force =     0.00000000    0.00000000    0.00000000
     atom   13 type  1   force =     0.00000000    0.00000000    0.00000000
     atom   14 type  2   force =     0.00000000    0.00000000    0.00000000
     atom   15 type  2   force =     0.00000000    0.00000000    0.00000000
     atom   16 type  1   force =     0.00000000    0.00000000    0.00000000
     atom   17 type  2   force =     0.00000000    0.00000000    0.00000000
     atom   18 type  2   force =     0.00000000    0.00000000    0.00000000
     atom   19 type  1   force =     0.00000000    0.00000000    0.00000000
     atom   20 type  2   force =     0.00000000    0.00000000    0.00000000
     atom   21 type  1   force =     0.00000000    0.00000000    0.00000000
     atom   22 type  2   force =     0.00000000    0.00000000    0.00000000
     atom   23 type  2   force =     0.00000000    0.00000000    0.00000000
     atom   24 type  1   force =     0.00000000    0.00000000    0.00000000
     atom   25 type  2   force =     0.00000000    0.00000000    0.00000000
     atom   26 type  2   force =     0.00000000    0.00000000    0.00000000
     atom   27 type  1   force =     0.00000000    0.00000000    0.00000000
     atom   28 type  2   force =     0.00000000    0.00000000    0.00000000
     atom   29 type  2   force =     0.00000000    0.00000000    0.00000000
     atom   30 type  1   force =     0.00000000    0.00000000    0.00000000
     atom   31 type  2   force =     0.00000000    0.00000000    0.00000000
     atom   32 type  2   force =     0.00000000    0.00000000    0.00000000
     atom   33 type  1   force =     0.00000000    0.00000000    0.00000000
     atom   34 type  2   force =     0.00000000    0.00000000    0.00000000
     atom   35 type  2   force =     0.00000000    0.00000000    0.00000000
     atom   36 type  3   force =     0.00000000    0.00000000    0.00000000
     The SCF correction term to forces
     atom    1 type  1   force =    -0.00003636   -0.00004932   -0.00133000
     atom    2 type  2   force =     0.00000012    0.00002949   -0.00046570
     atom    3 type  2   force =     0.00005006    0.00002147   -0.00040396
     atom    4 type  1   force =    -0.00002699   -0.00023233   -0.00119146
     atom    5 type  2   force =    -0.00006180   -0.00001822   -0.00050363
     atom    6 type  2   force =    -0.00004448   -0.00006229   -0.00028041
     atom    7 type  1   force =    -0.00025798    0.00005813   -0.00122073
     atom    8 type  2   force =     0.00004582   -0.00005128   -0.00047264
     atom    9 type  2   force =     0.00005338   -0.00002513   -0.00034737
     atom   10 type  1   force =     0.00004228    0.00020606   -0.00138762
     atom   11 type  2   force =    -0.00009646    0.00010672   -0.00047611
     atom   12 type  2   force =    -0.00006544    0.00015676   -0.00037124
     atom   13 type  1   force =    -0.00004402   -0.00004793   -0.00128320
     atom   14 type  2   force =    -0.00003900   -0.00000018   -0.00048208
     atom   15 type  2   force =    -0.00002789   -0.00003182   -0.00036953
     atom   16 type  1   force =    -0.00013406   -0.00011319   -0.00116937
     atom   17 type  2   force =     0.00002871   -0.00000497   -0.00054282
     atom   18 type  2   force =     0.00002720   -0.00004791   -0.00025383
     atom   19 type  1   force =     0.00002248    0.00011404   -0.00120985
     atom   20 type  2   force =    -0.00011737   -0.00001624   -0.00021592
     atom   21 type  1   force =    -0.00020819    0.00002270   -0.00126997
     atom   22 type  2   force =     0.00004739    0.00002546   -0.00059063
     atom   23 type  2   force =     0.00001991    0.00004793   -0.00025826
     atom   24 type  1   force =     0.00005892   -0.00002700   -0.00143657
     atom   25 type  2   force =     0.00004240    0.00002864   -0.00047458
     atom   26 type  2   force =    -0.00001549    0.00000911   -0.00038620
     atom   27 type  1   force =     0.00016407   -0.00013931   -0.00113373
     atom   28 type  2   force =     0.00002791   -0.00006356   -0.00049799
     atom   29 type  2   force =     0.00001759   -0.00013415   -0.00033227
     atom   30 type  1   force =     0.00022414    0.00013473   -0.00124367
     atom   31 type  2   force =     0.00007077   -0.00000333   -0.00057354
     atom   32 type  2   force =     0.00005672    0.00004022   -0.00024091
     atom   33 type  1   force =     0.00014827    0.00003927   -0.00136584
     atom   34 type  2   force =     0.00004823    0.00003879   -0.00047475
     atom   35 type  2   force =     0.00004318    0.00008471   -0.00035977
     atom   36 type  3   force =     0.00000717    0.00000387   -0.00004318

     Total force =     0.133212     Total SCF correction =     0.004909

     BFGS Geometry Optimization
     Energy error            =      0.0E+00 Ry
     Gradient error          =      6.4E-02 Ry/Bohr

     number of scf cycles    =   1
     number of bfgs steps    =   0

     energy             new  =   -2205.5315771982 Ry

     new trust radius        =       0.0680637533 bohr
     new conv_thr            =       0.0000010000 Ry


ATOMIC_POSITIONS (angstrom)
Mo            6.5762550336        1.7854725027        2.8222108767
S             8.1740011208        0.8137741968        4.4601402091
S             8.1864781766        0.8161974043        1.2760392883
Mo            8.0992816307        4.4894688127        2.7162976362
S             6.4969887948        3.7220392866        4.3429457725
S             6.5549031646        3.5168129881        1.1235335856
Mo            6.4880252299        7.2208877280        2.6675381050
S             8.0833669418        6.3411509864        4.2519384898
S             8.0886290010        6.3072549759        1.0893589400
Mo            8.1600088661        9.9024310898        2.8302142560
S             6.4956571221        8.9407062544        4.3815226060
S             6.6175788522        9.0488261593        1.1424339183
Mo            3.4260039773        1.7517431461        2.7731724539
S             4.9785576884        0.8169707104        4.3548517063
S             5.0513860241        0.8468575133        1.2212299914
Mo            4.9802477089        4.5129440537        2.6343002682
S             3.4317261060        3.6731931848        4.2800879748
S             3.4349117703        3.5453826859        1.0670935194
Mo            3.4611115036        7.2170065260        2.6288391201
S             4.9850371936        6.3241050022        1.0374300163
Mo            5.0111241408        9.9067109695        2.7439090620
S             3.4709546845        8.9423579538        4.3255135209
S             3.4075149943        9.0656320578        1.1004664042
Mo            0.2989268485        1.7596186729        2.8156422721
S             1.8653164933        0.7993823222        4.4064298210
S             1.8547898317        0.8543232746        1.2068698837
Mo            1.8575193796        4.4896334852        2.6638858214
S             0.2732336720        3.6584795967        4.3345149656
S             0.2329849711        3.5261571913        1.1709258321
Mo            0.2680742608        7.2226974442        2.6988145432
S             1.9028149592        6.3125287319        4.2313140705
S             1.8562519366        6.3128162967        1.0480740940
Mo            1.8502844090        9.9372220600        2.7676102591
S             0.2979849628        9.0641725056        4.4091500642
S             0.2723904595        9.0476456265        1.1579123720
H             9.4387851020        1.2026652366        5.1085358565



     Writing config-only to output data dir ./MoS2-V-O.save/
     NEW-OLD atomic charge density approx. for the potential

     negative rho (up, down):  1.448E-04 0.000E+00

     total cpu time spent up to now is       82.4 secs

     Self-consistent Calculation

     iteration #  1     ecut=    80.00 Ry     beta= 0.70
     Davidson diagonalization with overlap
     ethr =  1.00E-06,  avg # of iterations =  8.0

     negative rho (up, down):  1.410E-04 0.000E+00

     total cpu time spent up to now is       94.8 secs

     total energy              =   -2205.54553248 Ry
     estimated scf accuracy    <       0.00154123 Ry

     iteration #  2     ecut=    80.00 Ry     beta= 0.70
     Davidson diagonalization with overlap
     ethr =  5.02E-07,  avg # of iterations =  2.0

     negative rho (up, down):  1.472E-04 0.000E+00

     total cpu time spent up to now is      110.5 secs

     total energy              =   -2205.54557341 Ry
     estimated scf accuracy    <       0.00032388 Ry

     iteration #  3     ecut=    80.00 Ry     beta= 0.70
     Davidson diagonalization with overlap
     ethr =  1.05E-07,  avg # of iterations =  5.0

     negative rho (up, down):  1.488E-04 0.000E+00

     total cpu time spent up to now is      124.7 secs

     total energy              =   -2205.54560558 Ry
     estimated scf accuracy    <       0.00006163 Ry

     iteration #  4     ecut=    80.00 Ry     beta= 0.70
     Davidson diagonalization with overlap
     ethr =  2.01E-08,  avg # of iterations =  5.0

     negative rho (up, down):  1.455E-04 0.000E+00

     total cpu time spent up to now is      143.2 secs

     total energy              =   -2205.54561842 Ry
     estimated scf accuracy    <       0.00000806 Ry

     iteration #  5     ecut=    80.00 Ry     beta= 0.70
     Davidson diagonalization with overlap
     ethr =  2.63E-09,  avg # of iterations =  6.0

     negative rho (up, down):  1.385E-04 0.000E+00

     total cpu time spent up to now is      159.4 secs

     total energy              =   -2205.54561963 Ry
     estimated scf accuracy    <       0.00000203 Ry

     iteration #  6     ecut=    80.00 Ry     beta= 0.70
     Davidson diagonalization with overlap
     ethr =  6.60E-10,  avg # of iterations =  2.0

     negative rho (up, down):  1.379E-04 0.000E+00

     total cpu time spent up to now is      161.7 secs

     End of self-consistent calculation

          k = 0.0000 0.0000 0.0000 (105382 PWs)   bands (ev):

   -62.8904 -62.8673 -62.8578 -62.8449 -62.8313 -62.8170 -62.8158 -62.7992
   -62.7577 -62.6240 -62.5960 -62.5427 -37.2035 -37.1534 -37.1381 -37.1204
   -37.1109 -37.1052 -37.0899 -37.0741 -37.0655 -37.0426 -37.0361 -37.0308
   -37.0175 -37.0052 -37.0012 -36.9969 -36.9861 -36.9847 -36.9800 -36.9727
   -36.9375 -36.9222 -36.8988 -36.8719 -36.8627 -36.8385 -36.8347 -36.8275
   -36.7979 -36.7842 -36.7684 -36.7474 -36.7319 -36.6849 -36.5695 -36.5680
   -16.2347 -15.5887 -15.1580 -15.0358 -14.9581 -14.8202 -14.6459 -14.4847
   -14.4573 -14.4064 -14.3945 -14.3396 -14.3317 -14.2448 -14.1380 -14.1313
   -14.0734 -14.0637 -13.9970 -13.9358 -13.7976 -13.7745 -13.7587  -8.9378
    -7.6498  -7.4639  -7.2618  -7.2598  -7.2467  -7.1856  -7.1288  -6.9886
    -6.8002  -6.7781  -6.7099  -6.6580  -6.5989  -6.4803  -6.4434  -6.4284
    -6.3344  -6.2464  -6.1397  -5.9411  -5.9209  -5.8405  -5.8285  -5.7875
    -5.7532  -5.7245  -5.6288  -5.6233  -5.5887  -5.5329  -5.5118  -5.4725
    -5.4102  -5.3059  -5.2067  -5.1424  -5.0618  -5.0108  -4.9402  -4.9371
    -4.9221  -4.7926  -4.6399  -4.4942  -4.3737  -4.2945  -4.2705  -4.2394
    -4.2228  -4.0275  -3.9987  -3.8493  -3.8145  -3.7484  -3.7071  -3.6736
    -3.6454  -3.5713  -3.5259  -3.5130  -3.4920  -3.4726  -3.4143  -3.3571
    -3.3427  -3.1776  -3.1261  -2.9100  -2.8771  -2.7712  -2.7396  -2.6987
    -2.6884  -2.6813  -2.6423  -2.5539  -2.4941  -2.2155  -1.9731  -1.9670
    -1.9013  -0.7839  -0.6192  -0.4296  -0.1483  -0.1008  -0.0807   0.0006
     0.0195   0.1426   0.2045   0.2290   0.2731   0.3122   0.3473   0.4906
     0.5062   0.5792   0.5932   0.6163   0.6600   0.6994   0.7276   0.7745
     0.7963   0.8435   0.8809   0.9358   0.9453   1.0114   1.0486   1.3709
     1.3912

     the Fermi energy is    -0.7926 ev

!    total energy              =   -2205.54561961 Ry
     estimated scf accuracy    <       0.00000065 Ry
     smearing contrib. (-TS)   =      -0.00673582 Ry
     internal energy E=F+TS    =   -2205.53888379 Ry

     The total energy is F=E-TS. E is the sum of the following terms:
     one-electron contribution =  -18054.19874418 Ry
     hartree contribution      =    9014.13214987 Ry
     xc contribution           =    -385.34539798 Ry
     ewald contribution        =    7219.87310851 Ry

     convergence has been achieved in   6 iterations

     negative rho (up, down):  1.379E-04 0.000E+00

     Forces acting on atoms (cartesian axes, Ry/au):

     atom    1 type  1   force =    -0.00065014   -0.00244069   -0.00173957
     atom    2 type  2   force =    -0.00186038    0.00348404    0.03044930
     atom    3 type  2   force =    -0.01260461    0.00793182   -0.00864239
     atom    4 type  1   force =     0.00636293   -0.00506485    0.00134068
     atom    5 type  2   force =    -0.00322989   -0.00160692   -0.00626791
     atom    6 type  2   force =     0.00166890    0.00691554    0.00274900
     atom    7 type  1   force =    -0.00089610    0.00140841   -0.00156696
     atom    8 type  2   force =     0.00140160   -0.00446104    0.01001032
     atom    9 type  2   force =     0.01173539    0.00382302    0.00784235
     atom   10 type  1   force =     0.00137686    0.00372629   -0.00577075
     atom   11 type  2   force =     0.00126345   -0.00240198   -0.00530494
     atom   12 type  2   force =    -0.00196217    0.00105631    0.00015402
     atom   13 type  1   force =     0.00618958    0.00381575   -0.00141425
     atom   14 type  2   force =     0.00589450    0.00149121    0.00446917
     atom   15 type  2   force =    -0.00866263    0.00191955   -0.00952722
     atom   16 type  1   force =     0.00049557    0.00231156    0.00095371
     atom   17 type  2   force =     0.00582951    0.00179554    0.00135522
     atom   18 type  2   force =    -0.00410035   -0.00359178    0.01210383
     atom   19 type  1   force =     0.00866783   -0.00100834    0.00120281
     atom   20 type  2   force =     0.00330219   -0.00498316   -0.00207044
     atom   21 type  1   force =    -0.00104351    0.00739485    0.00289692
     atom   22 type  2   force =     0.00148717   -0.00186830   -0.00106355
     atom   23 type  2   force =     0.00003971    0.00053511    0.00416042
     atom   24 type  1   force =     0.00253227    0.00973717   -0.02414265
     atom   25 type  2   force =     0.01767478    0.01258986    0.00068504
     atom   26 type  2   force =    -0.00433284   -0.00062269   -0.00862890
     atom   27 type  1   force =    -0.00376789   -0.00416607    0.00753281
     atom   28 type  2   force =     0.00154948    0.00216352   -0.00739860
     atom   29 type  2   force =     0.00339552    0.00281812   -0.01038281
     atom   30 type  1   force =    -0.00231879    0.00270668    0.00265691
     atom   31 type  2   force =     0.00149505    0.00000525    0.00877547
     atom   32 type  2   force =    -0.00862211    0.00340850    0.00692296
     atom   33 type  1   force =     0.00443202   -0.00119832    0.00095590
     atom   34 type  2   force =     0.00215293   -0.03643384   -0.01345105
     atom   35 type  2   force =    -0.00588489    0.00755323    0.00646473
     atom   36 type  3   force =    -0.02901095   -0.01874332   -0.00630956
     The non-local contrib.  to forces
     atom    1 type  1   force =    -0.00487178    0.02904549   -0.01605718
     atom    2 type  2   force =     0.23539194    0.07191953   -0.08466949
     atom    3 type  2   force =    -0.01301732   -0.00540777    0.27151011
     atom    4 type  1   force =    -0.00284899    0.01584851    0.00249976
     atom    5 type  2   force =     0.00734251   -0.03131188   -0.25122196
     atom    6 type  2   force =    -0.00661835    0.00045111    0.26528337
     atom    7 type  1   force =    -0.03298953   -0.01776902   -0.01396305
     atom    8 type  2   force =     0.00397080   -0.00587891   -0.25851665
     atom    9 type  2   force =     0.00972025   -0.01544264    0.27499957
     atom   10 type  1   force =     0.00250732   -0.00429359   -0.01160819
     atom   11 type  2   force =     0.00870253    0.00996642   -0.25895082
     atom   12 type  2   force =    -0.01169366   -0.01417302    0.25958656
     atom   13 type  1   force =     0.00174505    0.02463929   -0.00991778
     atom   14 type  2   force =     0.00590963   -0.01001620   -0.25621420
     atom   15 type  2   force =    -0.01017269    0.00024040    0.26120994
     atom   16 type  1   force =    -0.00311593    0.04605722   -0.02589421
     atom   17 type  2   force =     0.00053033   -0.02895089   -0.24977878
     atom   18 type  2   force =    -0.00238801   -0.00582593    0.27147076
     atom   19 type  1   force =     0.02826213   -0.01447556   -0.01164682
     atom   20 type  2   force =     0.00000710   -0.02091293    0.26287959
     atom   21 type  1   force =    -0.00263877    0.01142215    0.00705571
     atom   22 type  2   force =    -0.00430709    0.00765753   -0.25926093
     atom   23 type  2   force =     0.00764938   -0.01227385    0.26534119
     atom   24 type  1   force =     0.00880146    0.02665689   -0.01303560
     atom   25 type  2   force =    -0.02555133    0.01297669   -0.22090425
     atom   26 type  2   force =     0.00118039   -0.01244008    0.26492209
     atom   27 type  1   force =     0.00344927    0.01616458    0.00522211
     atom   28 type  2   force =    -0.00046702   -0.02453632   -0.25819462
     atom   29 type  2   force =     0.00753395   -0.00147526    0.26099265
     atom   30 type  1   force =     0.00196726    0.01273619    0.00589137
     atom   31 type  2   force =    -0.00784246   -0.00041451   -0.25803379
     atom   32 type  2   force =    -0.00670721   -0.01613314    0.27297189
     atom   33 type  1   force =    -0.00047055    0.00139548    0.00298137
     atom   34 type  2   force =    -0.00207628   -0.02233458   -0.27788407
     atom   35 type  2   force =    -0.00469644   -0.00902962    0.26886367
     atom   36 type  3   force =    -0.03402466   -0.01246476   -0.02266849
     The ionic contribution  to forces
     atom    1 type  1   force =     0.14947377    0.20804106    5.57707622
     atom    2 type  2   force =    -1.71099246   -0.05317300   38.71797938
     atom    3 type  2   force =    -0.27096369   -0.07638608  -36.18855603
     atom    4 type  1   force =    -0.14546692    1.04440892    0.63692817
     atom    5 type  2   force =    -1.02926518    1.61428299   38.71500477
     atom    6 type  2   force =     0.26914678   -0.44798363  -38.01901307
     atom    7 type  1   force =    -2.54405690   -2.91199013    2.49917496
     atom    8 type  2   force =    -1.05189513    0.04934522   37.44282282
     atom    9 type  2   force =     0.28774050   -0.06008692  -37.91567055
     atom   10 type  1   force =    -1.13309924   -0.36143893    5.19277905
     atom   11 type  2   force =    -0.56994205   -1.66301269   39.11871745
     atom   12 type  2   force =     0.35943188    0.65347401  -37.85615851
     atom   13 type  1   force =     0.61401146    0.83616685    2.72894399
     atom   14 type  2   force =     0.02135241   -0.02806674   38.57239819
     atom   15 type  2   force =     0.17864115   -0.07428023  -36.88612144
     atom   16 type  1   force =    -0.01435062    4.14139109    0.56998810
     atom   17 type  2   force =     0.87227373    1.59368626   37.98364114
     atom   18 type  2   force =    -0.10610489   -0.52129395  -38.52944961
     atom   19 type  1   force =     2.56263917   -2.60339691    0.65916937
     atom   20 type  2   force =     0.20771031   -0.22369963  -38.49028599
     atom   21 type  1   force =     0.05944764   -0.05416334    1.29672732
     atom   22 type  2   force =     0.48310646   -1.77646133   38.46339971
     atom   23 type  2   force =    -0.05075100    0.60126551  -38.27706712
     atom   24 type  1   force =    -0.45540335    0.82221506    3.65751814
     atom   25 type  2   force =     1.08121172    0.09515934   38.97639054
     atom   26 type  2   force =    -0.12099706   -0.05837192  -37.41105772
     atom   27 type  1   force =     0.25976766    0.97372696   -2.04970426
     atom   28 type  2   force =     0.07373947    1.28341922   38.15066797
     atom   29 type  2   force =    -0.26349274   -0.16966230  -37.49125743
     atom   30 type  1   force =    -0.21845790   -1.15453784   -0.07764173
     atom   31 type  2   force =     1.26726991   -0.00700549   37.33569653
     atom   32 type  2   force =    -0.41223211   -0.01798078  -38.51525475
     atom   33 type  1   force =     0.78861634   -0.87734820    1.96006352
     atom   34 type  2   force =     0.23321043   -1.47633242   39.23691320
     atom   35 type  2   force =    -0.23266659    0.42770642  -37.80058534
     atom   36 type  3   force =     0.56134704    0.27238355    8.01582298
     The local contribution  to forces
     atom    1 type  1   force =    -0.14564182   -0.23936369   -5.56388377
     atom    2 type  2   force =     1.48948551   -0.01027372  -38.61182969
     atom    3 type  2   force =     0.27077481    0.08968622   35.92903102
     atom    4 type  1   force =     0.15455044   -1.06554178   -0.63901215
     atom    5 type  2   force =     1.01925896   -1.58645779  -38.49071927
     atom    6 type  2   force =    -0.26139104    0.45495303   37.77722070
     atom    7 type  1   force =     2.57590331    2.93086253   -2.48766507
     atom    8 type  2   force =     1.04957748   -0.04865949  -37.19508300
     atom    9 type  2   force =    -0.28531903    0.07834981   37.66908470
     atom   10 type  1   force =     1.13188167    0.36958943   -5.18815810
     atom   11 type  2   force =     0.56287542    1.65167648  -38.88586356
     atom   12 type  2   force =    -0.35077733   -0.63921503   37.61699916
     atom   13 type  1   force =    -0.60929298   -0.85681093   -2.72145529
     atom   14 type  2   force =    -0.02091215    0.03966847  -38.33241523
     atom   15 type  2   force =    -0.17772901    0.07593825   36.63559434
     atom   16 type  1   force =     0.01784682   -4.18537868   -0.54392601
     atom   17 type  2   force =    -0.86694898   -1.56452986  -37.75314226
     atom   18 type  2   force =     0.10446152    0.52375710   38.29086176
     atom   19 type  1   force =    -2.58220093    2.61658872   -0.64716768
     atom   20 type  2   force =    -0.20462815    0.23865120   38.24616469
     atom   21 type  1   force =    -0.05801152    0.05058437   -1.30192624
     atom   22 type  2   force =    -0.47739174    1.76775994  -38.22610643
     atom   23 type  2   force =     0.04369798   -0.58940346   38.03639881
     atom   24 type  1   force =     0.44936866   -0.83878934   -3.67005293
     atom   25 type  2   force =    -1.04023208   -0.09451739  -38.77313760
     atom   26 type  2   force =     0.11575634    0.06962520   37.15809112
     atom   27 type  1   force =    -0.26673560   -0.99421760    2.05112026
     atom   28 type  2   force =    -0.07184863   -1.25873686  -37.92020202
     atom   29 type  2   force =     0.25996964    0.17405586   37.24019991
     atom   30 type  1   force =     0.21435923    1.14432346    0.07353289
     atom   31 type  2   force =    -1.25836179    0.00717890  -37.08986521
     atom   32 type  2   force =     0.41022606    0.03656454   38.26988431
     atom   33 type  1   force =    -0.78346931    0.87488577   -1.96314522
     atom   34 type  2   force =    -0.22937001    1.46184341  -38.99404874
     atom   35 type  2   force =     0.23144303   -0.41191319   37.55890627
     atom   36 type  3   force =    -0.55632342   -0.27865915   -7.99951249
     The core correction contribution to forces
     atom    1 type  1   force =     0.00000000    0.00000000    0.00000000
     atom    2 type  2   force =    -0.01582413   -0.00493158    0.00874956
     atom    3 type  2   force =     0.00050880    0.00009600   -0.02109926
     atom    4 type  1   force =     0.00000000    0.00000000    0.00000000
     atom    5 type  2   force =    -0.00073287    0.00190841    0.02019300
     atom    6 type  2   force =     0.00039330   -0.00049935   -0.02096604
     atom    7 type  1   force =     0.00000000    0.00000000    0.00000000
     atom    8 type  2   force =    -0.00019342    0.00058475    0.02045717
     atom    9 type  2   force =    -0.00033803    0.00084368   -0.02090477
     atom   10 type  1   force =     0.00000000    0.00000000    0.00000000
     atom   11 type  2   force =    -0.00043657   -0.00093973    0.02047584
     atom   12 type  2   force =     0.00098810    0.00117995   -0.02070313
     atom   13 type  1   force =     0.00000000    0.00000000    0.00000000
     atom   14 type  2   force =    -0.00049378   -0.00000717    0.02031285
     atom   15 type  2   force =     0.00059069    0.00004662   -0.02058126
     atom   16 type  1   force =     0.00000000    0.00000000    0.00000000
     atom   17 type  2   force =     0.00011678    0.00162081    0.02019606
     atom   18 type  2   force =     0.00006016   -0.00021413   -0.02096972
     atom   19 type  1   force =     0.00000000    0.00000000    0.00000000
     atom   20 type  2   force =     0.00010919    0.00074320   -0.02107150
     atom   21 type  1   force =     0.00000000    0.00000000    0.00000000
     atom   22 type  2   force =     0.00008060   -0.00079489    0.02049677
     atom   23 type  2   force =    -0.00052357    0.00104280   -0.02082822
     atom   24 type  1   force =     0.00000000    0.00000000    0.00000000
     atom   25 type  2   force =     0.00239981   -0.00098249    0.01802325
     atom   26 type  2   force =    -0.00018928    0.00059073   -0.02097867
     atom   27 type  1   force =     0.00000000    0.00000000    0.00000000
     atom   28 type  2   force =     0.00016964    0.00208351    0.01999034
     atom   29 type  2   force =    -0.00060568   -0.00014056   -0.02064766
     atom   30 type  1   force =     0.00000000    0.00000000    0.00000000
     atom   31 type  2   force =     0.00049446    0.00016045    0.02056468
     atom   32 type  2   force =     0.00013884    0.00087855   -0.02092735
     atom   33 type  1   force =     0.00000000    0.00000000    0.00000000
     atom   34 type  2   force =     0.00046240    0.00035775    0.02121417
     atom   35 type  2   force =     0.00009281    0.00084485   -0.02108182
     atom   36 type  3   force =     0.00000000    0.00000000    0.00000000
     The Hubbard contrib.    to forces
     atom    1 type  1   force =     0.00000000    0.00000000    0.00000000
     atom    2 type  2   force =     0.00000000    0.00000000    0.00000000
     atom    3 type  2   force =     0.00000000    0.00000000    0.00000000
     atom    4 type  1   force =     0.00000000    0.00000000    0.00000000
     atom    5 type  2   force =     0.00000000    0.00000000    0.00000000
     atom    6 type  2   force =     0.00000000    0.00000000    0.00000000
     atom    7 type  1   force =     0.00000000    0.00000000    0.00000000
     atom    8 type  2   force =     0.00000000    0.00000000    0.00000000
     atom    9 type  2   force =     0.00000000    0.00000000    0.00000000
     atom   10 type  1   force =     0.00000000    0.00000000    0.00000000
     atom   11 type  2   force =     0.00000000    0.00000000    0.00000000
     atom   12 type  2   force =     0.00000000    0.00000000    0.00000000
     atom   13 type  1   force =     0.00000000    0.00000000    0.00000000
     atom   14 type  2   force =     0.00000000    0.00000000    0.00000000
     atom   15 type  2   force =     0.00000000    0.00000000    0.00000000
     atom   16 type  1   force =     0.00000000    0.00000000    0.00000000
     atom   17 type  2   force =     0.00000000    0.00000000    0.00000000
     atom   18 type  2   force =     0.00000000    0.00000000    0.00000000
     atom   19 type  1   force =     0.00000000    0.00000000    0.00000000
     atom   20 type  2   force =     0.00000000    0.00000000    0.00000000
     atom   21 type  1   force =     0.00000000    0.00000000    0.00000000
     atom   22 type  2   force =     0.00000000    0.00000000    0.00000000
     atom   23 type  2   force =     0.00000000    0.00000000    0.00000000
     atom   24 type  1   force =     0.00000000    0.00000000    0.00000000
     atom   25 type  2   force =     0.00000000    0.00000000    0.00000000
     atom   26 type  2   force =     0.00000000    0.00000000    0.00000000
     atom   27 type  1   force =     0.00000000    0.00000000    0.00000000
     atom   28 type  2   force =     0.00000000    0.00000000    0.00000000
     atom   29 type  2   force =     0.00000000    0.00000000    0.00000000
     atom   30 type  1   force =     0.00000000    0.00000000    0.00000000
     atom   31 type  2   force =     0.00000000    0.00000000    0.00000000
     atom   32 type  2   force =     0.00000000    0.00000000    0.00000000
     atom   33 type  1   force =     0.00000000    0.00000000    0.00000000
     atom   34 type  2   force =     0.00000000    0.00000000    0.00000000
     atom   35 type  2   force =     0.00000000    0.00000000    0.00000000
     atom   36 type  3   force =     0.00000000    0.00000000    0.00000000
     The SCF correction term to forces
     atom    1 type  1   force =     0.00039181   -0.00016705    0.00110108
     atom    2 type  2   force =     0.00008090   -0.00006069    0.00019547
     atom    3 type  2   force =     0.00009491   -0.00006005    0.00044768
     atom    4 type  1   force =     0.00013052    0.00021599    0.00090082
     atom    5 type  2   force =     0.00016882   -0.00003215    0.00045146
     atom    6 type  2   force =     0.00014033   -0.00000912    0.00019996
     atom    7 type  1   force =     0.00024914    0.00030153    0.00086212
     atom    8 type  2   force =    -0.00005600    0.00014388    0.00030590
     atom    9 type  2   force =    -0.00006617    0.00015559    0.00030933
     atom   10 type  1   force =     0.00008924   -0.00013413    0.00119240
     atom   11 type  2   force =     0.00006626   -0.00009596    0.00029208
     atom   12 type  2   force =     0.00009098   -0.00021311    0.00040586
     atom   13 type  1   force =    -0.00027181   -0.00018297    0.00099075
     atom   14 type  2   force =     0.00004052   -0.00009066    0.00036348
     atom   15 type  2   force =     0.00000936   -0.00002901    0.00034713
     atom   16 type  1   force =     0.00011742    0.00023843    0.00076175
     atom   17 type  2   force =    -0.00014022   -0.00003427    0.00041499
     atom   18 type  2   force =    -0.00012699   -0.00001837    0.00016656
     atom   19 type  1   force =    -0.00003042    0.00027191    0.00082386
     atom   20 type  2   force =     0.00010588    0.00023151    0.00021869
     atom   21 type  1   force =     0.00016126   -0.00045183    0.00101605
     atom   22 type  2   force =     0.00000107   -0.00003306    0.00038325
     atom   23 type  2   force =    -0.00003096   -0.00009940    0.00029169
     atom   24 type  1   force =    -0.00023236   -0.00034894    0.00140366
     atom   25 type  2   force =    -0.00015121   -0.00004979    0.00028903
     atom   26 type  2   force =    -0.00008109   -0.00003013    0.00037019
     atom   27 type  1   force =    -0.00024708    0.00015649    0.00087062
     atom   28 type  2   force =    -0.00004184   -0.00006953    0.00031565
     atom   29 type  2   force =    -0.00000753    0.00003688    0.00030564
     atom   30 type  1   force =    -0.00018525    0.00018136    0.00085030
     atom   31 type  2   force =    -0.00006293    0.00008240    0.00038918
     atom   32 type  2   force =    -0.00004556    0.00007583    0.00022479
     atom   33 type  1   force =    -0.00024233   -0.00013488    0.00103216
     atom   34 type  2   force =    -0.00007148    0.00002849    0.00033031
     atom   35 type  2   force =    -0.00005557   -0.00005874    0.00033787
     atom   36 type  3   force =    -0.00000778   -0.00000646    0.00002435

     Total force =     0.085016     Total SCF correction =     0.004022
     Energy error            =      1.4E-02 Ry
     Gradient error          =      3.6E-02 Ry/Bohr

     number of scf cycles    =   2
     number of bfgs steps    =   1

     energy             old  =   -2205.5315771982 Ry
     energy             new  =   -2205.5456196051 Ry

     CASE: energy            _new < energy            _old

     new trust radius        =       0.0748701286 bohr
     new conv_thr            =       0.0000000364 Ry


ATOMIC_POSITIONS (angstrom)
Mo            6.5761475256        1.7828046252        2.8203692708
S             8.1717268171        0.8177739393        4.4925137673
S             8.1740725811        0.8241866052        1.2682554363
Mo            8.1057277955        4.4837394503        2.7170370606
S             6.4935017479        3.7205844093        4.3366846373
S             6.5567164252        3.5239740728        1.1264412808
Mo            6.4867608502        7.2227131685        2.6650874727
S             8.0849764763        6.3366750739        4.2628560757
S             8.1005475459        6.3111481623        1.0974124678
Mo            8.1610147702        9.9056461626        2.8219039368
S             6.4968520372        8.9381004182        4.3766278429
S             6.6158246453        9.0497489184        1.1432186548
Mo            3.4323619526        1.7562090808        2.7711223239
S             4.9844195569        0.8182389933        4.3597486186
S             5.0423924787        0.8486345036        1.2117695894
Mo            4.9807938549        4.5148375966        2.6354732663
S             3.4376605475        3.6751239059        4.2813316783
S             3.4306659676        3.5416089910        1.0795904846
Mo            3.4703172108        7.2163307645        2.6293798794
S             4.9882958826        6.3191599126        1.0357253695
Mo            5.0099467110        9.9142864485        2.7464896904
S             3.4722110219        8.9404175794        4.3245942663
S             3.4073117431        9.0662507617        1.1051228994
Mo            0.3018023572        1.7709872313        2.7864758358
S             1.8841065002        0.8117581989        4.4091384756
S             1.8495699546        0.8537702746        1.1989195088
Mo            1.8535123702        4.4845486166        2.6712094274
S             0.2748077651        3.6613657380        4.3274652538
S             0.2363097982        3.5282566795        1.1618654949
Mo            0.2653166544        7.2265532492        2.7003140775
S             1.9042282441        6.3124631957        4.2410304925
S             1.8474121932        6.3163382888        1.0548371678
Mo            1.8555693607        9.9354533315        2.7670360423
S             0.3003417911        9.0266818363        4.3965562134
S             0.2662805784        9.0550982663        1.1653234461
H             9.4096032992        1.1838001821        5.1018201706



     Writing config-only to output data dir ./MoS2-V-O.save/
     NEW-OLD atomic charge density approx. for the potential

     negative rho (up, down):  1.515E-04 0.000E+00

     total cpu time spent up to now is      165.1 secs

     Self-consistent Calculation

     iteration #  1     ecut=    80.00 Ry     beta= 0.70
     Davidson diagonalization with overlap
     c_bands:  1 eigenvalues not converged
     ethr =  1.00E-06,  avg # of iterations = 20.0

     negative rho (up, down):  1.375E-04 0.000E+00

     total cpu time spent up to now is      178.0 secs

     total energy              =   -2205.55589921 Ry
     estimated scf accuracy    <       0.00175202 Ry

     iteration #  2     ecut=    80.00 Ry     beta= 0.70
     Davidson diagonalization with overlap
     ethr =  5.71E-07,  avg # of iterations =  2.0

     negative rho (up, down):  1.373E-04 0.000E+00

     total cpu time spent up to now is      189.0 secs

     total energy              =   -2205.55597670 Ry
     estimated scf accuracy    <       0.00032053 Ry

     iteration #  3     ecut=    80.00 Ry     beta= 0.70
     Davidson diagonalization with overlap
     ethr =  1.04E-07,  avg # of iterations =  3.0

     negative rho (up, down):  1.344E-04 0.000E+00

     total cpu time spent up to now is      201.8 secs

     total energy              =   -2205.55600446 Ry
     estimated scf accuracy    <       0.00007142 Ry

     iteration #  4     ecut=    80.00 Ry     beta= 0.70
     Davidson diagonalization with overlap
     ethr =  2.33E-08,  avg # of iterations =  5.0

     negative rho (up, down):  1.312E-04 0.000E+00

     total cpu time spent up to now is      213.9 secs

     total energy              =   -2205.55601663 Ry
     estimated scf accuracy    <       0.00000700 Ry

     iteration #  5     ecut=    80.00 Ry     beta= 0.70
     Davidson diagonalization with overlap
     ethr =  2.28E-09,  avg # of iterations =  5.0

     negative rho (up, down):  1.273E-04 0.000E+00

     total cpu time spent up to now is      229.5 secs

     total energy              =   -2205.55601876 Ry
     estimated scf accuracy    <       0.00000174 Ry

     iteration #  6     ecut=    80.00 Ry     beta= 0.70
     Davidson diagonalization with overlap
     ethr =  5.66E-10,  avg # of iterations =  3.0

     negative rho (up, down):  1.254E-04 0.000E+00

     total cpu time spent up to now is      244.3 secs

     total energy              =   -2205.55601901 Ry
     estimated scf accuracy    <       0.00000030 Ry

     iteration #  7     ecut=    80.00 Ry     beta= 0.70
     Davidson diagonalization with overlap
     ethr =  9.73E-11,  avg # of iterations =  9.0

     negative rho (up, down):  1.254E-04 0.000E+00

     total cpu time spent up to now is      255.9 secs

     total energy              =   -2205.55601906 Ry
     estimated scf accuracy    <       0.00000007 Ry

     iteration #  8     ecut=    80.00 Ry     beta= 0.70
     Davidson diagonalization with overlap
     ethr =  2.17E-11,  avg # of iterations =  2.0

     negative rho (up, down):  1.383E-04 0.000E+00

     total cpu time spent up to now is      257.8 secs

     End of self-consistent calculation

          k = 0.0000 0.0000 0.0000 (105382 PWs)   bands (ev):

   -62.8917 -62.8670 -62.8565 -62.8434 -62.8323 -62.8161 -62.8150 -62.7948
   -62.7530 -62.6386 -62.6002 -62.5444 -37.2026 -37.1528 -37.1336 -37.1199
   -37.1112 -37.1014 -37.0848 -37.0713 -37.0636 -37.0420 -37.0361 -37.0298
   -37.0170 -37.0019 -36.9992 -36.9948 -36.9863 -36.9801 -36.9774 -36.9708
   -36.9378 -36.9235 -36.8969 -36.8708 -36.8575 -36.8421 -36.8355 -36.8300
   -36.8047 -36.7919 -36.7766 -36.7526 -36.7349 -36.6892 -36.5759 -36.5718
   -16.2261 -15.6082 -15.1699 -15.0358 -14.9390 -14.8259 -14.6415 -14.4710
   -14.4467 -14.4209 -14.3897 -14.3480 -14.3359 -14.2462 -14.1458 -14.1280
   -14.0741 -14.0674 -14.0030 -13.9283 -13.7987 -13.7829 -13.7495  -8.9113
    -7.6426  -7.4607  -7.2698  -7.2533  -7.2452  -7.1873  -7.1113  -6.9815
    -6.8142  -6.7739  -6.7021  -6.6494  -6.6053  -6.4761  -6.4470  -6.4198
    -6.3403  -6.2295  -6.1326  -5.9312  -5.9116  -5.8531  -5.8300  -5.7956
    -5.7493  -5.7232  -5.6306  -5.6270  -5.5970  -5.5439  -5.5032  -5.4562
    -5.3964  -5.2923  -5.2020  -5.1182  -5.0655  -5.0176  -4.9545  -4.9357
    -4.9173  -4.8016  -4.6259  -4.5075  -4.3805  -4.2828  -4.2716  -4.2377
    -4.2195  -4.0324  -4.0065  -3.8603  -3.8169  -3.7469  -3.7100  -3.6731
    -3.6392  -3.5738  -3.5223  -3.5158  -3.4784  -3.4664  -3.4158  -3.3581
    -3.3259  -3.1824  -3.1291  -2.9058  -2.8839  -2.7592  -2.7423  -2.6954
    -2.6939  -2.6847  -2.6552  -2.5438  -2.5017  -2.2138  -1.9748  -1.9622
    -1.9159  -0.8065  -0.6225  -0.4490  -0.1387  -0.1001  -0.0706  -0.0103
     0.0294   0.1407   0.1786   0.2269   0.2874   0.3114   0.3458   0.4920
     0.5220   0.5791   0.5901   0.6206   0.6587   0.7054   0.7361   0.7779
     0.7917   0.8518   0.8923   0.9324   0.9495   1.0075   1.0561   1.3399
     1.3867

     the Fermi energy is    -0.8124 ev

!    total energy              =   -2205.55601899 Ry
     estimated scf accuracy    <       0.00000002 Ry
     smearing contrib. (-TS)   =      -0.00643956 Ry
     internal energy E=F+TS    =   -2205.54957943 Ry

     The total energy is F=E-TS. E is the sum of the following terms:
     one-electron contribution =  -18051.53379035 Ry
     hartree contribution      =    9012.80444649 Ry
     xc contribution           =    -385.34760704 Ry
     ewald contribution        =    7218.52737147 Ry

     convergence has been achieved in   8 iterations

     negative rho (up, down):  1.383E-04 0.000E+00

     Forces acting on atoms (cartesian axes, Ry/au):

     atom    1 type  1   force =    -0.00305323    0.00006108   -0.00273558
     atom    2 type  2   force =    -0.00883336   -0.00382210    0.01133031
     atom    3 type  2   force =    -0.00937560    0.00566795   -0.00863587
     atom    4 type  1   force =     0.00427361   -0.00001695    0.00147183
     atom    5 type  2   force =    -0.00079062   -0.00210045   -0.00394320
     atom    6 type  2   force =     0.00049183    0.00408649    0.00153072
     atom    7 type  1   force =     0.00181643   -0.00133694    0.00159365
     atom    8 type  2   force =    -0.00055083   -0.00393455    0.00384657
     atom    9 type  2   force =     0.00734422    0.00242437    0.00545947
     atom   10 type  1   force =     0.00130714    0.00571324    0.00623731
     atom   11 type  2   force =     0.00166588   -0.00031947   -0.00506970
     atom   12 type  2   force =    -0.00228788    0.00199946   -0.00134236
     atom   13 type  1   force =     0.00299068   -0.00140744    0.00065704
     atom   14 type  2   force =     0.00478472    0.00255067    0.00201525
     atom   15 type  2   force =    -0.00420888    0.00218621   -0.00663974
     atom   16 type  1   force =     0.00006708    0.00418886   -0.00079298
     atom   17 type  2   force =     0.00402714    0.00076939    0.00275187
     atom   18 type  2   force =    -0.00239466   -0.00075568    0.00690182
     atom   19 type  1   force =     0.00327917   -0.00320247    0.00314031
     atom   20 type  2   force =     0.00300330   -0.00317242   -0.00329959
     atom   21 type  1   force =     0.00053409    0.00419291    0.00102421
     atom   22 type  2   force =     0.00271774   -0.00067311   -0.00016806
     atom   23 type  2   force =     0.00131789   -0.00017068    0.00201976
     atom   24 type  1   force =    -0.00121777   -0.00106400    0.00353086
     atom   25 type  2   force =     0.00784182    0.01008461   -0.00944616
     atom   26 type  2   force =     0.00230545   -0.00101924   -0.00812755
     atom   27 type  1   force =    -0.00104993    0.00230164    0.00416823
     atom   28 type  2   force =     0.00106247   -0.00314394   -0.00538243
     atom   29 type  2   force =     0.00341769    0.00643049   -0.01353971
     atom   30 type  1   force =     0.00083649   -0.00435041    0.00502638
     atom   31 type  2   force =     0.00256276   -0.00010145    0.00308079
     atom   32 type  2   force =    -0.00438485    0.00205855    0.00721279
     atom   33 type  1   force =    -0.00105181    0.00217300    0.00499387
     atom   34 type  2   force =     0.00063433   -0.01950084   -0.01141446
     atom   35 type  2   force =    -0.00257843    0.00561376    0.00117631
     atom   36 type  3   force =    -0.01650409   -0.01241055    0.00136803
     The non-local contrib.  to forces
     atom    1 type  1   force =    -0.00510104    0.02819191   -0.01676728
     atom    2 type  2   force =     0.23987418    0.07107601   -0.10473841
     atom    3 type  2   force =    -0.00750466   -0.00686816    0.27054948
     atom    4 type  1   force =    -0.00087118    0.01469079    0.00204571
     atom    5 type  2   force =     0.00922796   -0.03070606   -0.24911868
     atom    6 type  2   force =    -0.00725548   -0.00271796    0.26500628
     atom    7 type  1   force =    -0.03251361   -0.01839158   -0.01475940
     atom    8 type  2   force =     0.00251539   -0.00657093   -0.26300146
     atom    9 type  2   force =     0.00516418   -0.01689562    0.27391585
     atom   10 type  1   force =     0.00240658   -0.00494974   -0.01308325
     atom   11 type  2   force =     0.00772053    0.01152061   -0.25890052
     atom   12 type  2   force =    -0.01151733   -0.01298168    0.25985768
     atom   13 type  1   force =     0.00319186    0.02624055   -0.00981620
     atom   14 type  2   force =     0.00359204   -0.00924418   -0.25662943
     atom   15 type  2   force =    -0.00626355    0.00065913    0.26176459
     atom   16 type  1   force =    -0.00365658    0.04563827   -0.02567752
     atom   17 type  2   force =    -0.00084909   -0.02879633   -0.24897949
     atom   18 type  2   force =    -0.00113782   -0.00401526    0.26818625
     atom   19 type  1   force =     0.02948758   -0.01380999   -0.01324489
     atom   20 type  2   force =    -0.00015107   -0.01884858    0.26216539
     atom   21 type  1   force =    -0.00365574    0.01174713    0.00627216
     atom   22 type  2   force =    -0.00314175    0.00808837   -0.25930153
     atom   23 type  2   force =     0.00897837   -0.01251646    0.26467374
     atom   24 type  1   force =     0.01000483    0.03018343   -0.01174359
     atom   25 type  2   force =    -0.02278887    0.00804600   -0.23082875
     atom   26 type  2   force =     0.00512129   -0.01125952    0.26572746
     atom   27 type  1   force =     0.00230760    0.01391532    0.00419686
     atom   28 type  2   force =     0.00014726   -0.02428804   -0.25524329
     atom   29 type  2   force =     0.00714079   -0.00130506    0.25894069
     atom   30 type  1   force =     0.00124975    0.01397600    0.00529544
     atom   31 type  2   force =    -0.00710818   -0.00139579   -0.26283653
     atom   32 type  2   force =    -0.00251166   -0.01696082    0.27411683
     atom   33 type  1   force =     0.00044334   -0.00044906    0.00207565
     atom   34 type  2   force =    -0.00242755   -0.00878329   -0.27632476
     atom   35 type  2   force =    -0.00257361   -0.01085121    0.26626826
     atom   36 type  3   force =    -0.04065806   -0.01353914   -0.02427734
     The ionic contribution  to forces
     atom    1 type  1   force =     0.31086810    0.10322682    5.60406714
     atom    2 type  2   force =    -1.57937778   -0.11101775   38.81971987
     atom    3 type  2   force =    -0.28012480   -0.16264362  -36.20817489
     atom    4 type  1   force =    -0.32209117    1.19981130    0.73637115
     atom    5 type  2   force =    -0.97761138    1.60887830   38.65558965
     atom    6 type  2   force =     0.23668764   -0.42397916  -37.97529230
     atom    7 type  1   force =    -2.43029492   -2.95370831    2.39308207
     atom    8 type  2   force =    -1.12213200    0.04604296   37.51401614
     atom    9 type  2   force =     0.22184513   -0.07747663  -37.81453141
     atom   10 type  1   force =    -0.99065691   -0.01129343    5.13834474
     atom   11 type  2   force =    -0.51256195   -1.62237548   39.05261368
     atom   12 type  2   force =     0.31767372    0.64081265  -37.83378932
     atom   13 type  1   force =     0.48485670    0.63853487    2.72579607
     atom   14 type  2   force =     0.01186736   -0.03684547   38.65543833
     atom   15 type  2   force =     0.21214701   -0.09751476  -37.00560224
     atom   16 type  1   force =     0.01749788    4.21656636    0.59078117
     atom   17 type  2   force =     0.85422997    1.59140811   38.03912497
     atom   18 type  2   force =    -0.08841328   -0.41394580  -38.44024292
     atom   19 type  1   force =     2.37806707   -2.66899033    0.64567729
     atom   20 type  2   force =     0.18438942   -0.22025451  -38.55491514
[...]
     atom   27 type  1   force =     0.00344809    0.01307135    0.00465098
     atom   28 type  2   force =     0.00065470   -0.02627562   -0.26013499
     atom   29 type  2   force =     0.00089233   -0.00986879    0.26563615
     atom   30 type  1   force =     0.00373068    0.01092365    0.00157048
     atom   31 type  2   force =    -0.00830809    0.00135389   -0.26482618
     atom   32 type  2   force =     0.00562258   -0.01766210    0.26884143
     atom   33 type  1   force =    -0.00093552    0.00125550    0.00427139
     atom   34 type  2   force =    -0.00385540   -0.00092318   -0.26098741
     atom   35 type  2   force =    -0.00113289   -0.01249953    0.26779304
     atom   36 type  3   force =    -0.02752226    0.00995693   -0.04998027
     The ionic contribution  to forces
     atom    1 type  1   force =     0.82197389    0.25276165    2.52190766
     atom    2 type  2   force =    -1.45306814    0.74479475   37.35026700
     atom    3 type  2   force =     0.00756187   -0.13248652  -36.84468488
     atom    4 type  1   force =    -0.14681502    0.83393706    0.66881110
     atom    5 type  2   force =    -0.80387665    1.25748813   38.36757562
     atom    6 type  2   force =     0.37486926   -0.16555964  -38.25591782
     atom    7 type  1   force =    -2.23246440   -2.77939017    2.86462096
     atom    8 type  2   force =    -1.21040432   -0.00065096   37.98274105
     atom    9 type  2   force =     0.28387343   -0.02968793  -37.44732481
     atom   10 type  1   force =    -0.75667013   -0.17259136    3.83170612
     atom   11 type  2   force =    -0.54774610   -1.49929572   38.87156356
     atom   12 type  2   force =     0.32634896    0.36716980  -37.93902180
     atom   13 type  1   force =     0.10417375    0.80119213    1.67374573
     atom   14 type  2   force =     0.10309805    0.03468686   38.57687656
     atom   15 type  2   force =     0.06161595   -0.18442094  -37.86837663
     atom   16 type  1   force =    -0.03097361    3.95296818    0.60474223
     atom   17 type  2   force =     0.87432707    1.30451492   38.15889464
     atom   18 type  2   force =    -0.26967894   -0.20830309  -38.17327463
     atom   19 type  1   force =     2.16370632   -2.43999449    2.92319139
     atom   20 type  2   force =     0.04060692   -0.07276063  -38.65539526
     atom   21 type  1   force =     0.02540521   -0.27094867    0.99321014
     atom   22 type  2   force =     0.40518216   -1.49529184   38.58925392
     atom   23 type  2   force =    -0.24488858    0.23871956  -37.92844932
     atom   24 type  1   force =    -0.53851354    0.67061564    2.06530274
     atom   25 type  2   force =     0.55536468    0.13077042   38.67739188
     atom   26 type  2   force =    -0.14136805   -0.11133817  -37.73008248
     atom   27 type  1   force =     0.18027868    0.96012830    0.31001830
     atom   28 type  2   force =    -0.07526186    0.74614168   38.10873900
     atom   29 type  2   force =    -0.13168051    0.00748543  -37.68630568
     atom   30 type  1   force =     0.00906536   -1.17667312    2.45122663
     atom   31 type  2   force =     1.26782623    0.05345008   38.07195441
     atom   32 type  2   force =    -0.26839811    0.05445704  -37.59539405
     atom   33 type  1   force =     0.53201367   -0.76591289    2.47201965
     atom   34 type  2   force =     0.22837391   -0.83329473   38.92063898
     atom   35 type  2   force =    -0.03245226    0.10785423  -37.48123506
     atom   36 type  3   force =     0.51859485   -0.18053499    8.54906313
     The local contribution  to forces
     atom    1 type  1   force =    -0.81895392   -0.27542173   -2.50118239
     atom    2 type  2   force =     1.28524911   -0.68414549  -37.48654699
     atom    3 type  2   force =    -0.00671608    0.14331081   36.58610085
     atom    4 type  1   force =     0.14811699   -0.84463384   -0.67194839
     atom    5 type  2   force =     0.79547345   -1.23708215  -38.14351291
     atom    6 type  2   force =    -0.37031705    0.17319087   38.01311123
     atom    7 type  1   force =     2.26293438    2.79427962   -2.84597617
     atom    8 type  2   force =     1.20576062    0.00066491  -37.74000105
     atom    9 type  2   force =    -0.27834583    0.04810206   37.19881367
     atom   10 type  1   force =     0.75638546    0.17633906   -3.82261532
     atom   11 type  2   force =     0.53661477    1.49187690  -38.63834537
     atom   12 type  2   force =    -0.31683623   -0.35700015   37.69801159
     atom   13 type  1   force =    -0.10492400   -0.82658478   -1.66620531
     atom   14 type  2   force =    -0.09835518   -0.02605077  -38.34425055
     atom   15 type  2   force =    -0.06170141    0.18313533   37.62504887
     atom   16 type  1   force =     0.03336082   -4.00016667   -0.57696985
     atom   17 type  2   force =    -0.86830155   -1.28062931  -37.92596127
     atom   18 type  2   force =     0.26821747    0.21595389   37.92976423
     atom   19 type  1   force =    -2.19115573    2.45498510   -2.89947956
     atom   20 type  2   force =    -0.04036375    0.08640364   38.41483462
     atom   21 type  1   force =    -0.02417551    0.25674305   -0.99865383
     atom   22 type  2   force =    -0.40117467    1.49127956  -38.35103026
     atom   23 type  2   force =     0.23536450   -0.23287477   37.68321524
     atom   24 type  1   force =     0.53370413   -0.68992806   -2.05921726
     atom   25 type  2   force =    -0.55138784   -0.12066031  -38.44857602
     atom   26 type  2   force =     0.13680555    0.11837320   37.48380570
     atom   27 type  1   force =    -0.18409452   -0.97336372   -0.31422678
     atom   28 type  2   force =     0.07495046   -0.72172215  -37.86671650
     atom   29 type  2   force =     0.13056621    0.00260715   37.44114149
     atom   30 type  1   force =    -0.01201359    1.16528473   -2.45406126
     atom   31 type  2   force =    -1.25936979   -0.05475454  -37.82842550
     atom   32 type  2   force =     0.26416271   -0.03850335   37.34646336
     atom   33 type  1   force =    -0.53143934    0.76478116   -2.47572844
     atom   34 type  2   force =    -0.22454895    0.83360568  -38.67950145
     atom   35 type  2   force =     0.03351086   -0.09623024   37.23433773
     atom   36 type  3   force =    -0.49236667    0.17173395   -8.49839566
     The core correction contribution to forces
     atom    1 type  1   force =     0.00000000    0.00000000    0.00000000
     atom    2 type  2   force =    -0.01161059    0.00423473   -0.00449075
     atom    3 type  2   force =     0.00012446    0.00034544   -0.02141580
     atom    4 type  1   force =     0.00000000    0.00000000    0.00000000
     atom    5 type  2   force =    -0.00079080    0.00127030    0.01989430
     atom    6 type  2   force =     0.00034728    0.00004642   -0.02091304
     atom    7 type  1   force =     0.00000000    0.00000000    0.00000000
     atom    8 type  2   force =    -0.00044128    0.00016855    0.02054285
     atom    9 type  2   force =     0.00045235    0.00104521   -0.02074614
     atom   10 type  1   force =     0.00000000    0.00000000    0.00000000
     atom   11 type  2   force =    -0.00059912   -0.00069912    0.02024939
     atom   12 type  2   force =     0.00082227    0.00091431   -0.02080067
     atom   13 type  1   force =     0.00000000    0.00000000    0.00000000
     atom   14 type  2   force =     0.00010412    0.00011426    0.02025046
     atom   15 type  2   force =    -0.00001672   -0.00019383   -0.02079431
     atom   16 type  1   force =     0.00000000    0.00000000    0.00000000
     atom   17 type  2   force =     0.00055087    0.00127108    0.02024454
     atom   18 type  2   force =    -0.00020740   -0.00005369   -0.02075972
     atom   19 type  1   force =     0.00000000    0.00000000    0.00000000
     atom   20 type  2   force =     0.00006664    0.00060769   -0.02108872
     atom   21 type  1   force =     0.00000000    0.00000000    0.00000000
     atom   22 type  2   force =     0.00002523   -0.00046265    0.02042166
     atom   23 type  2   force =    -0.00063813    0.00061672   -0.02088420
     atom   24 type  1   force =     0.00000000    0.00000000    0.00000000
     atom   25 type  2   force =     0.00060892    0.00045088    0.01984373
     atom   26 type  2   force =    -0.00030375    0.00020898   -0.02094541
     atom   27 type  1   force =     0.00000000    0.00000000    0.00000000
     atom   28 type  2   force =     0.00001547    0.00169088    0.02039977
     atom   29 type  2   force =    -0.00012277    0.00034190   -0.02075408
     atom   30 type  1   force =     0.00000000    0.00000000    0.00000000
     atom   31 type  2   force =     0.00055655    0.00010966    0.02065912
     atom   32 type  2   force =    -0.00037564    0.00099792   -0.02083541
     atom   33 type  1   force =     0.00000000    0.00000000    0.00000000
     atom   34 type  2   force =     0.00048846   -0.00028753    0.02049031
     atom   35 type  2   force =     0.00005441    0.00072166   -0.02101839
     atom   36 type  3   force =     0.00000000    0.00000000    0.00000000
     The Hubbard contrib.    to forces
     atom    1 type  1   force =     0.00000000    0.00000000    0.00000000
     atom    2 type  2   force =     0.00000000    0.00000000    0.00000000
     atom    3 type  2   force =     0.00000000    0.00000000    0.00000000
     atom    4 type  1   force =     0.00000000    0.00000000    0.00000000
     atom    5 type  2   force =     0.00000000    0.00000000    0.00000000
     atom    6 type  2   force =     0.00000000    0.00000000    0.00000000
     atom    7 type  1   force =     0.00000000    0.00000000    0.00000000
     atom    8 type  2   force =     0.00000000    0.00000000    0.00000000
     atom    9 type  2   force =     0.00000000    0.00000000    0.00000000
     atom   10 type  1   force =     0.00000000    0.00000000    0.00000000
     atom   11 type  2   force =     0.00000000    0.00000000    0.00000000
     atom   12 type  2   force =     0.00000000    0.00000000    0.00000000
     atom   13 type  1   force =     0.00000000    0.00000000    0.00000000
     atom   14 type  2   force =     0.00000000    0.00000000    0.00000000
     atom   15 type  2   force =     0.00000000    0.00000000    0.00000000
     atom   16 type  1   force =     0.00000000    0.00000000    0.00000000
     atom   17 type  2   force =     0.00000000    0.00000000    0.00000000
     atom   18 type  2   force =     0.00000000    0.00000000    0.00000000
     atom   19 type  1   force =     0.00000000    0.00000000    0.00000000
     atom   20 type  2   force =     0.00000000    0.00000000    0.00000000
     atom   21 type  1   force =     0.00000000    0.00000000    0.00000000
     atom   22 type  2   force =     0.00000000    0.00000000    0.00000000
     atom   23 type  2   force =     0.00000000    0.00000000    0.00000000
     atom   24 type  1   force =     0.00000000    0.00000000    0.00000000
     atom   25 type  2   force =     0.00000000    0.00000000    0.00000000
     atom   26 type  2   force =     0.00000000    0.00000000    0.00000000
     atom   27 type  1   force =     0.00000000    0.00000000    0.00000000
     atom   28 type  2   force =     0.00000000    0.00000000    0.00000000
     atom   29 type  2   force =     0.00000000    0.00000000    0.00000000
     atom   30 type  1   force =     0.00000000    0.00000000    0.00000000
     atom   31 type  2   force =     0.00000000    0.00000000    0.00000000
     atom   32 type  2   force =     0.00000000    0.00000000    0.00000000
     atom   33 type  1   force =     0.00000000    0.00000000    0.00000000
     atom   34 type  2   force =     0.00000000    0.00000000    0.00000000
     atom   35 type  2   force =     0.00000000    0.00000000    0.00000000
     atom   36 type  3   force =     0.00000000    0.00000000    0.00000000
     The SCF correction term to forces
     atom    1 type  1   force =    -0.00002164    0.00000468    0.00004444
     atom    2 type  2   force =    -0.00001143    0.00000480    0.00005960
     atom    3 type  2   force =    -0.00000110    0.00000758    0.00000265
     atom    4 type  1   force =    -0.00000687   -0.00002388    0.00005105
     atom    5 type  2   force =    -0.00000960   -0.00000923    0.00002537
     atom    6 type  2   force =    -0.00001038   -0.00000977    0.00001378
     atom    7 type  1   force =    -0.00001436   -0.00000988    0.00005710
     atom    8 type  2   force =    -0.00000541   -0.00000729    0.00003382
     atom    9 type  2   force =    -0.00000738   -0.00001472    0.00000819
     atom   10 type  1   force =    -0.00000951    0.00001698    0.00006246
     atom   11 type  2   force =    -0.00000177    0.00002236    0.00004358
     atom   12 type  2   force =    -0.00000353    0.00001987    0.00000779
     atom   13 type  1   force =     0.00002133    0.00000934    0.00003364
     atom   14 type  2   force =     0.00000801   -0.00000445    0.00003736
     atom   15 type  2   force =    -0.00000061    0.00000699    0.00000816
     atom   16 type  1   force =    -0.00000265   -0.00002741    0.00005103
     atom   17 type  2   force =     0.00001334   -0.00000500    0.00001842
     atom   18 type  2   force =     0.00000811   -0.00000918    0.00001760
     atom   19 type  1   force =     0.00000691   -0.00000534    0.00006169
     atom   20 type  2   force =    -0.00000481   -0.00001611    0.00001890
     atom   21 type  1   force =    -0.00000035    0.00003638    0.00006643
     atom   22 type  2   force =     0.00000725    0.00000589    0.00003036
     atom   23 type  2   force =     0.00000040    0.00001134    0.00001317
     atom   24 type  1   force =    -0.00000178   -0.00000097    0.00004449
     atom   25 type  2   force =    -0.00000084    0.00000118    0.00002715
     atom   26 type  2   force =     0.00000657    0.00000383    0.00000107
     atom   27 type  1   force =     0.00002130   -0.00002213    0.00003899
     atom   28 type  2   force =    -0.00000856   -0.00000977    0.00002772
     atom   29 type  2   force =    -0.00000362   -0.00000782    0.00000471
     atom   30 type  1   force =     0.00000498    0.00000853    0.00006307
     atom   31 type  2   force =     0.00001304   -0.00000062    0.00002757
     atom   32 type  2   force =     0.00001344   -0.00000947    0.00001281
     atom   33 type  1   force =     0.00001544    0.00001774    0.00004412
     atom   34 type  2   force =    -0.00000701    0.00001224    0.00004197
     atom   35 type  2   force =     0.00000014    0.00001860    0.00000691
     atom   36 type  3   force =    -0.00000444    0.00000025    0.00000404

     Total force =     0.007608     Total SCF correction =     0.000242
     Energy error            =      9.1E-05 Ry
     Gradient error          =      3.0E-03 Ry/Bohr

     bfgs converged in  31 scf cycles and  30 bfgs steps
     (criteria: energy <  1.0E-04 Ry, force <  1.0E-02 Ry/Bohr)

     End of BFGS Geometry Optimization

     Final energy             =   -2205.5832200007 Ry

     File ./MoS2-V-O.bfgs deleted, as requested
Begin final coordinates

ATOMIC_POSITIONS (angstrom)
Mo            6.5560331302        1.8004277187        2.7412532186
S             8.2202920185        0.8277467849        4.3913665927
S             8.1626414702        0.8515479786        1.2027101465
Mo            8.1247797731        4.4942140637        2.7067120290
S             6.5014179495        3.7124594306        4.2967738247
S             6.5600342431        3.5756339106        1.0929863530
Mo            6.5119858536        7.2350662702        2.6668993004
S             8.0834421888        6.3206624926        4.2912367715
S             8.1531646811        6.3435216945        1.1263375845
Mo            8.1663134714        9.9307515149        2.7893816604
S             6.5204465783        8.9734496659        4.3450434047
S             6.6211020468        9.0592088190        1.1253162451
Mo            3.4472226280        1.7695043323        2.7363332554
S             5.0068327070        0.8521408416        4.3259182680
S             5.0229410357        0.8583021066        1.1387998276
Mo            4.9975527684        4.5501343925        2.6249627757
S             3.4725372163        3.6798148887        4.2825421818
S             3.4297773935        3.5796198362        1.0930734133
Mo            3.5096088002        7.2235330611        2.6658798990
S             5.0137778187        6.3449401448        1.0309010287
Mo            5.0256601755        9.9472082852        2.7226122246
S             3.4995452005        8.9858062682        4.3234709664
S             3.4272079900        9.0572582556        1.1177799616
Mo            0.3042670664        1.7636877112        2.7633660287
S             1.8887432379        0.8671852990        4.3521475362
S             1.8594503799        0.8510193321        1.1565859200
Mo            1.8693542719        4.5051718977        2.6997689108
S             0.2779477775        3.6368754634        4.3051113223
S             0.2730715723        3.5695926461        1.1363980461
Mo            0.2841626649        7.2317179558        2.7406160745
S             1.9393631096        6.3198461223        4.2925950375
S             1.8625807096        6.3490208183        1.1181377429
Mo            1.8723586167        9.9534038236        2.7584141499
S             0.3037172510        9.0252638409        4.3681981648
S             0.2806347866        9.0598490996        1.1709586049
H             8.8791384293        0.5896818656        5.5901591045
End final coordinates



     Writing all to output data dir ./MoS2-V-O.save/
 
     init_run     :      3.20s CPU      3.37s WALL (       1 calls)
     electrons    :   2750.73s CPU   3013.65s WALL (      31 calls)
     update_pot   :     42.25s CPU     44.03s WALL (      30 calls)
     forces       :     42.89s CPU     45.86s WALL (      31 calls)

     Called by init_run:
     wfcinit      :      0.40s CPU      0.44s WALL (       1 calls)
     potinit      :      2.07s CPU      2.16s WALL (       1 calls)
     hinit0       :      0.16s CPU      0.18s WALL (       1 calls)

     Called by electrons:
     c_bands      :    331.53s CPU    335.11s WALL (     268 calls)
     sum_band     :     88.63s CPU     96.21s WALL (     268 calls)
     v_of_rho     :    117.65s CPU    134.28s WALL (     278 calls)
     newd         :     46.12s CPU     51.78s WALL (     278 calls)
     mix_rho      :   2181.31s CPU   2409.24s WALL (     268 calls)

     Called by c_bands:
     init_us_2    :      5.90s CPU      6.12s WALL (     537 calls)
     init_us_2:cp :      5.89s CPU      6.11s WALL (     537 calls)
     regterg      :    311.53s CPU    314.84s WALL (     268 calls)

     Called by *egterg:
     rdiaghg      :     24.46s CPU     24.65s WALL (    1392 calls)
     h_psi        :    179.79s CPU    181.19s WALL (    1444 calls)
     s_psi        :     23.49s CPU     23.57s WALL (    1444 calls)
     g_psi        :      1.20s CPU      1.21s WALL (    1175 calls)

     Called by h_psi:
     h_psi:calbec :     25.35s CPU     25.45s WALL (    1444 calls)
     vloc_psi     :    128.14s CPU    129.31s WALL (    1444 calls)
     add_vuspsi   :     23.52s CPU     23.64s WALL (    1444 calls)

     General routines
     calbec       :     36.99s CPU     37.13s WALL (    1836 calls)
     fft          :     78.93s CPU     91.14s WALL (   18776 calls)
     ffts         :    983.05s CPU   1203.56s WALL (  531444 calls)
     fftw         :    108.90s CPU    109.77s WALL (  162346 calls)
     interpolate  :      2.02s CPU      2.33s WALL (     278 calls)
 
     Parallel routines
 
     PWSCF        :  47m25.32s CPU  51m55.44s WALL

 
   This run was terminated on:  22:59:15   3Nov2023            

=------------------------------------------------------------------------------=
   JOB DONE.
=------------------------------------------------------------------------------=
