
     Program PWSCF v.7.2 starts on  4Nov2023 at 11:49: 1 

     This program is part of the open-source Quantum ESPRESSO suite
     for quantum simulation of materials; please cite
         "P. Giannozzi et al., J. Phys.:Condens. Matter 21 395502 (2009);
         "P. Giannozzi et al., J. Phys.:Condens. Matter 29 465901 (2017);
         "P. Giannozzi et al., J. Chem. Phys. 152 154105 (2020);
          URL http://www.quantum-espresso.org", 
     in publications or presentations arising from this work. More details at
     http://www.quantum-espresso.org/quote

     Parallel version (MPI & OpenMP), running on      48 processor cores
     Number of MPI processes:                48
     Threads/MPI process:                     1

     MPI processes distributed on     1 nodes
     86205 MiB available memory on the printing compute node when the environment starts
 
     Waiting for input...
     Reading input from standard input
Warning: card &CELL ignored
Warning: card CELL_DYNAMICS = 'BFGS', ignored
Warning: card CELL_DOFREE = '2DXY' ignored
Warning: card / ignored

     Current dimensions of program PWSCF are:
     Max number of different atomic species (ntypx) = 10
     Max number of k-points (npk) =  40000
     Max angular momentum in pseudopotentials (lmaxx) =  4

     IMPORTANT: XC functional enforced from input :
     Exchange-correlation= RVV10
                           (   1   4  13   4  26   0   0)
     Any further DFT definition will be discarded
     Please, verify this is what you really want


     gamma-point specific algorithms are used
     signal trapping enabled: kill the code with -SIGUSR1 to stop cleanly the simulation 
 
     R & G space division:  proc/nbgrp/npool/nimage =      48
     Subspace diagonalization in iterative solution of the eigenvalue problem:
     one sub-group per band group will be used
     scalapack distributed-memory algorithm (size of sub-group:  2*  2 procs)

 
     Parallelization info
     --------------------
     sticks:   dense  smooth     PW     G-vecs:    dense   smooth      PW
     Min         243     194     47                49060    35090    4376
     Max         246     196     50                49086    35128    4410
     Sum       11735    9389   2349              2355467  1685513  210763
 
     Using Slab Decomposition
 


     bravais-lattice index     =            0
     lattice parameter (alat)  =      17.8707  a.u.
     unit-cell volume          =   17436.2743 (a.u.)^3
     number of atoms/cell      =           36
     number of atomic types    =            3
     number of electrons       =       307.00
     number of Kohn-Sham states=          185
     kinetic-energy cutoff     =      80.0000  Ry
     charge density cutoff     =     400.0000  Ry
     scf convergence threshold =      1.0E-06
     mixing beta               =       0.7000
     number of iterations used =            8  local-TF  mixing
     energy convergence thresh.=      1.0E-04
     force convergence thresh. =      1.0E-02
     Exchange-correlation= RVV10
                           (   1   4  13   4  26   0   0)
     nstep                     =          200


     celldm(1)=  17.870686  celldm(2)=   0.000000  celldm(3)=   0.000000
     celldm(4)=   0.000000  celldm(5)=   0.000000  celldm(6)=   0.000000

     crystal axes: (cart. coord. in units of alat)
               a(1) = (   1.000000   0.000000   0.000000 )  
               a(2) = (   0.000000   1.155671   0.000000 )  
               a(3) = (   0.000000   0.000000   2.643601 )  

     reciprocal axes: (cart. coord. in units 2 pi/alat)
               b(1) = (  1.000000  0.000000  0.000000 )  
               b(2) = (  0.000000  0.865298  0.000000 )  
               b(3) = (  0.000000  0.000000  0.378272 )  


     PseudoPot. # 1 for Mo read from file:
     ../pseudo/Mo_ONCV_PBE-1.0.oncvpsp.upf
     MD5 check sum: 1b5d28e075c9ccadda658a603575cd1f
     Pseudo is Norm-conserving, Zval = 14.0
     Generated using ONCVPSP code by D. R. Hamann
     Using radial grid of 1526 points,  6 beta functions with: 
                l(1) =   0
                l(2) =   0
                l(3) =   1
                l(4) =   1
                l(5) =   2
                l(6) =   2

     PseudoPot. # 2 for S  read from file:
     ../pseudo/s_pbe_v1.4.uspp.F.UPF
     MD5 check sum: 88d86576ff6df21479756cfb9bdac1df
     Pseudo is Ultrasoft + core correction, Zval =  6.0
     Generated by new atomic code, or converted to UPF format
     Using radial grid of  907 points,  6 beta functions with: 
                l(1) =   0
                l(2) =   0
                l(3) =   1
                l(4) =   1
                l(5) =   2
                l(6) =   2
     Q(r) pseudized with  8 coefficients,  rinner =    1.300   1.300   1.300
                                                       1.300   1.300

     PseudoPot. # 3 for H  read from file:
     ../pseudo/H_ONCV_PBE-1.0.oncvpsp.upf
     MD5 check sum: 1790becc920ee074925cf490c71280fe
     Pseudo is Norm-conserving, Zval =  1.0
     Generated using ONCVPSP code by D. R. Hamann
     Using radial grid of 1166 points,  2 beta functions with: 
                l(1) =   0
                l(2) =   0

     atomic species   valence    mass     pseudopotential
        Mo            14.00    95.94000     Mo( 1.00)
        S              6.00    32.06500     S ( 1.00)
        H              1.00     1.00794     H ( 1.00)

     No symmetry found



   Cartesian axes

     site n.     atom                  positions (alat units)
         1           Mo  tau(   1) = (   0.6952221   0.1890506   0.2985846  )
         2           S   tau(   2) = (   0.8646417   0.0856217   0.4689279  )
         3           S   tau(   3) = (   0.8663890   0.0857843   0.1351291  )
         4           Mo  tau(   4) = (   0.8560186   0.4753274   0.2873942  )
         5           S   tau(   5) = (   0.6873294   0.3936244   0.4596353  )
         6           S   tau(   6) = (   0.6929804   0.3713468   0.1185692  )
         7           Mo  tau(   7) = (   0.6862796   0.7633098   0.2825370  )
         8           S   tau(   8) = (   0.8545980   0.6708292   0.4486168  )
         9           S   tau(   9) = (   0.8545123   0.6666874   0.1146125  )
        10           Mo  tau(  10) = (   0.8629403   1.0471007   0.3006803  )
        11           S   tau(  11) = (   0.6868280   0.9456650   0.4634891  )
        12           S   tau(  12) = (   0.6998113   0.9568511   0.1205389  )
        13           Mo  tau(  13) = (   0.3618216   0.1847309   0.2935964  )
        14           S   tau(  14) = (   0.5260962   0.0863870   0.4600448  )
        15           S   tau(  15) = (   0.5348379   0.0894875   0.1297123  )
        16           Mo  tau(  16) = (   0.5265817   0.4772436   0.2784130  )
        17           S   tau(  17) = (   0.3624753   0.3882513   0.4525556  )
        18           S   tau(  18) = (   0.3635411   0.3752055   0.1119148  )
        19           Mo  tau(  19) = (   0.3652268   0.7630864   0.2781795  )
        20           S   tau(  20) = (   0.5269494   0.6690381   0.1096838  )
        21           Mo  tau(  21) = (   0.5300192   1.0470394   0.2900995  )
        22           S   tau(  22) = (   0.3670346   0.9457522   0.4574073  )
        23           S   tau(  23) = (   0.3604225   0.9585725   0.1159032  )
        24           Mo  tau(  24) = (   0.0313099   0.1847895   0.3013130  )
        25           S   tau(  25) = (   0.1956761   0.0838230   0.4650863  )
        26           S   tau(  26) = (   0.1967693   0.0903508   0.1278874  )
        27           Mo  tau(  27) = (   0.1967578   0.4753919   0.2813011  )
        28           S   tau(  28) = (   0.0287851   0.3864324   0.4586755  )
        29           S   tau(  29) = (   0.0244514   0.3729871   0.1239344  )
        30           Mo  tau(  30) = (   0.0286728   0.7631204   0.2856894  )
        31           S   tau(  31) = (   0.2011512   0.6675435   0.4465001  )
        32           S   tau(  32) = (   0.1969214   0.6672839   0.1104564  )
        33           Mo  tau(  33) = (   0.1950294   1.0511147   0.2932237  )
        34           S   tau(  34) = (   0.0312912   0.9612169   0.4667423  )
        35           S   tau(  35) = (   0.0292670   0.9563028   0.1216485  )
        36           H   tau(  36) = (   1.0000000   1.1556707   0.5656742  )

     number of k points=     1  Gaussian smearing, width (Ry)=  0.0100
                       cart. coord. in units 2pi/alat
        k(    1) = (   0.0000000   0.0000000   0.0000000), wk =   2.0000000

     Dense  grid:  1177734 G-vectors     FFT dimensions: ( 120, 135, 320)

     Smooth grid:   842757 G-vectors     FFT dimensions: ( 108, 120, 270)

     Estimated max dynamical RAM per process >     146.59 MB

     Estimated total dynamical RAM >       6.87 GB

     Initial potential from superposition of free atoms

     starting charge     306.9873, renormalised to     307.0000

     negative rho (up, down):  1.412E-04 0.000E+00


---------------------------------------------------------------------------------
Carrying out rVV10 run using the following parameters:
Nqs =      20    Nr_points =    1024   r_max =   100.000
b_value =  6.30000    beta =  0.00901
     q_mesh =  0.00010000  0.00030000  0.00058939  0.00100810
               0.00161396  0.00249058  0.00375900  0.00559430
               0.00824984  0.01209221  0.01765183  0.02569619
               0.03733578  0.05417739  0.07854596  0.11380545
               0.16482331  0.23864234  0.34545298  0.50000000

Gradients computed in Reciprocal space

---------------------------------------------------------------------------------


     Starting wfcs are  213 randomized atomic wfcs

     total cpu time spent up to now is        2.7 secs

     Self-consistent Calculation

     iteration #  1     ecut=    80.00 Ry     beta= 0.70
     Davidson diagonalization with overlap
     ethr =  1.00E-02,  avg # of iterations =  2.0

     Threshold (ethr) on eigenvalues was too large:
     Diagonalizing with lowered threshold

     Davidson diagonalization with overlap
     ethr =  3.47E-04,  avg # of iterations =  4.0

     negative rho (up, down):  1.607E-08 0.000E+00

     total cpu time spent up to now is       19.4 secs

     total energy              =   -2205.60227028 Ry
     estimated scf accuracy    <       1.36462455 Ry

     iteration #  2     ecut=    80.00 Ry     beta= 0.70
     Davidson diagonalization with overlap
     ethr =  4.45E-04,  avg # of iterations =  2.0

     total cpu time spent up to now is       21.8 secs

     total energy              =   -2205.42913095 Ry
     estimated scf accuracy    <       0.55718969 Ry

     iteration #  3     ecut=    80.00 Ry     beta= 0.70
     Davidson diagonalization with overlap
     ethr =  1.81E-04,  avg # of iterations =  4.0

     total cpu time spent up to now is       24.3 secs

     total energy              =   -2205.53220385 Ry
     estimated scf accuracy    <       0.05020736 Ry

     iteration #  4     ecut=    80.00 Ry     beta= 0.70
     Davidson diagonalization with overlap
     c_bands:  2 eigenvalues not converged
     ethr =  1.64E-05,  avg # of iterations = 20.0

     total cpu time spent up to now is       27.5 secs

     total energy              =   -2205.53247122 Ry
     estimated scf accuracy    <       0.02475536 Ry

     iteration #  5     ecut=    80.00 Ry     beta= 0.70
     Davidson diagonalization with overlap
     ethr =  8.06E-06,  avg # of iterations =  8.0

     total cpu time spent up to now is       30.0 secs

     total energy              =   -2205.53284870 Ry
     estimated scf accuracy    <       0.01965743 Ry

     iteration #  6     ecut=    80.00 Ry     beta= 0.70
     Davidson diagonalization with overlap
     ethr =  6.40E-06,  avg # of iterations =  1.0

     total cpu time spent up to now is       32.1 secs

     total energy              =   -2205.53131170 Ry
     estimated scf accuracy    <       0.01207492 Ry

     iteration #  7     ecut=    80.00 Ry     beta= 0.70
     Davidson diagonalization with overlap
     ethr =  3.93E-06,  avg # of iterations =  1.0

     negative rho (up, down):  2.644E-05 0.000E+00

     total cpu time spent up to now is       37.5 secs

     total energy              =   -2205.52999660 Ry
     estimated scf accuracy    <       0.00618178 Ry

     iteration #  8     ecut=    80.00 Ry     beta= 0.70
     Davidson diagonalization with overlap
     ethr =  2.01E-06,  avg # of iterations =  2.0

     negative rho (up, down):  1.529E-02 0.000E+00

     total cpu time spent up to now is       41.7 secs

     total energy              =   -2205.52965051 Ry
     estimated scf accuracy    <       0.00315764 Ry

     iteration #  9     ecut=    80.00 Ry     beta= 0.70
     Davidson diagonalization with overlap
     ethr =  1.03E-06,  avg # of iterations =  2.0

     negative rho (up, down):  3.299E-02 0.000E+00

     total cpu time spent up to now is       46.0 secs

     total energy              =   -2205.52973825 Ry
     estimated scf accuracy    <       0.00171197 Ry

     iteration # 10     ecut=    80.00 Ry     beta= 0.70
     Davidson diagonalization with overlap
     ethr =  5.58E-07,  avg # of iterations =  2.0

     negative rho (up, down):  2.651E-02 0.000E+00

     total cpu time spent up to now is       51.0 secs

     total energy              =   -2205.52978917 Ry
     estimated scf accuracy    <       0.00045901 Ry

     iteration # 11     ecut=    80.00 Ry     beta= 0.70
     Davidson diagonalization with overlap
     ethr =  1.50E-07,  avg # of iterations =  5.0

     negative rho (up, down):  9.518E-03 0.000E+00

     total cpu time spent up to now is       56.6 secs

     total energy              =   -2205.52982616 Ry
     estimated scf accuracy    <       0.00011018 Ry

     iteration # 12     ecut=    80.00 Ry     beta= 0.70
     Davidson diagonalization with overlap
     ethr =  3.59E-08,  avg # of iterations =  4.0

     negative rho (up, down):  2.373E-03 0.000E+00

     total cpu time spent up to now is       62.9 secs

     total energy              =   -2205.52987284 Ry
     estimated scf accuracy    <       0.00001345 Ry

     iteration # 13     ecut=    80.00 Ry     beta= 0.70
     Davidson diagonalization with overlap
     ethr =  4.38E-09,  avg # of iterations =  5.0

     negative rho (up, down):  4.726E-04 0.000E+00

     total cpu time spent up to now is       72.2 secs

     total energy              =   -2205.52987844 Ry
     estimated scf accuracy    <       0.00000180 Ry

     iteration # 14     ecut=    80.00 Ry     beta= 0.70
     Davidson diagonalization with overlap
     ethr =  5.86E-10,  avg # of iterations =  4.0

     negative rho (up, down):  1.380E-04 0.000E+00

     total cpu time spent up to now is       74.5 secs

     End of self-consistent calculation

          k = 0.0000 0.0000 0.0000 (105382 PWs)   bands (ev):

   -62.8942 -62.8739 -62.8633 -62.8306 -62.8130 -62.8038 -62.7986 -62.7943
   -62.7913 -62.7784 -62.7605 -62.7569 -37.2336 -37.1683 -37.1383 -37.1334
   -37.1272 -37.0992 -37.0831 -37.0743 -37.0615 -37.0603 -37.0480 -37.0379
   -37.0303 -37.0216 -37.0070 -36.9979 -36.9912 -36.9875 -36.9803 -36.9733
   -36.9664 -36.9559 -36.9425 -36.9369 -36.9305 -36.9262 -36.9120 -36.9050
   -36.8966 -36.8772 -36.8571 -36.8419 -36.8195 -36.7887 -36.7441 -36.7181
   -16.0263 -15.2525 -15.1672 -15.0257 -14.9780 -14.8156 -14.5864 -14.5153
   -14.4795 -14.4297 -14.4091 -14.3768 -14.3400 -14.2836 -14.1680 -14.1453
   -14.1269 -14.0977 -14.0245 -13.9509 -13.8480 -13.8282 -13.8011  -8.1395
    -7.6085  -7.4582  -7.2817  -7.2603  -7.2106  -7.1882  -7.1304  -6.8917
    -6.8419  -6.8054  -6.7534  -6.7369  -6.5480  -6.4942  -6.4584  -6.4409
    -6.3635  -6.2510  -6.0163  -5.9963  -5.9178  -5.8546  -5.8312  -5.8040
    -5.7776  -5.7450  -5.6686  -5.6540  -5.6088  -5.5670  -5.5297  -5.4668
    -5.4222  -5.3681  -5.1758  -5.1721  -5.0782  -5.0581  -4.9864  -4.9432
    -4.9259  -4.8248  -4.6498  -4.5129  -4.3558  -4.3266  -4.2890  -4.2601
    -4.2221  -4.0700  -4.0277  -3.9733  -3.8146  -3.7605  -3.7316  -3.7005
    -3.6633  -3.5753  -3.5615  -3.5318  -3.5030  -3.4792  -3.4494  -3.3820
    -3.3724  -3.2066  -3.1335  -2.9121  -2.8832  -2.7977  -2.7700  -2.7362
    -2.7129  -2.6811  -2.6475  -2.6277  -2.5697  -2.2975  -2.0456  -2.0064
    -1.9791  -1.0942  -0.7750  -0.7238  -0.1725  -0.1348  -0.0563  -0.0367
     0.1175   0.1408   0.1949   0.2345   0.2525   0.2774   0.3923   0.4113
     0.4622   0.5329   0.5423   0.5715   0.6153   0.6829   0.7204   0.7488
     0.7754   0.7900   0.8658   0.8875   0.9384   1.0005   1.0421   1.3500
     1.3874

     the Fermi energy is    -1.0943 ev

!    total energy              =   -2205.52988177 Ry
     estimated scf accuracy    <       0.00000028 Ry
     smearing contrib. (-TS)   =      -0.00566814 Ry
     internal energy E=F+TS    =   -2205.52421362 Ry

     The total energy is F=E-TS. E is the sum of the following terms:
     one-electron contribution =  -18048.60516222 Ry
     hartree contribution      =    9011.06668479 Ry
     xc contribution           =    -385.24593794 Ry
     ewald contribution        =    7217.26020174 Ry

     convergence has been achieved in  14 iterations

     negative rho (up, down):  1.380E-04 0.000E+00

     Forces acting on atoms (cartesian axes, Ry/au):

     atom    1 type  1   force =    -0.00593049   -0.00672598   -0.01712861
     atom    2 type  2   force =     0.03646715   -0.01813583    0.03749268
     atom    3 type  2   force =    -0.01230144    0.00943082   -0.00354702
     atom    4 type  1   force =     0.00517709   -0.00363093   -0.00132142
     atom    5 type  2   force =    -0.00267614   -0.00364010   -0.00690897
     atom    6 type  2   force =    -0.00023052    0.00824678    0.00236534
     atom    7 type  1   force =     0.00188348   -0.00867682   -0.00900297
     atom    8 type  2   force =     0.00124031   -0.00512239    0.01788276
     atom    9 type  2   force =     0.01424824    0.00712476    0.01290405
     atom   10 type  1   force =    -0.01227803    0.00544788   -0.03452380
     atom   11 type  2   force =     0.00349455   -0.00250101   -0.00658013
     atom   12 type  2   force =    -0.00320638   -0.00073356    0.00646300
     atom   13 type  1   force =     0.01094163    0.01006896   -0.00936141
     atom   14 type  2   force =     0.00756564   -0.00105000    0.01091710
     atom   15 type  2   force =    -0.01109287   -0.00021909   -0.00957355
     atom   16 type  1   force =    -0.00004941    0.01057790    0.00542344
     atom   17 type  2   force =     0.00659021    0.00170391   -0.00024306
     atom   18 type  2   force =    -0.00288080   -0.00670281    0.01458981
     atom   19 type  1   force =     0.00859738   -0.00821130   -0.00418458
     atom   20 type  2   force =     0.00310477   -0.00441870    0.00151600
     atom   21 type  1   force =    -0.00388894    0.00739745   -0.00077945
     atom   22 type  2   force =    -0.00192330   -0.00215378   -0.00269678
     atom   23 type  2   force =     0.00069490   -0.00015404    0.00851883
     atom   24 type  1   force =    -0.00851439    0.00043267   -0.02823929
     atom   25 type  2   force =     0.00585445    0.01270733    0.00962383
     atom   26 type  2   force =    -0.01185352   -0.00049189   -0.00482034
     atom   27 type  1   force =    -0.00143135   -0.00507390    0.00629772
     atom   28 type  2   force =     0.00145746    0.00062336   -0.00510540
     atom   29 type  2   force =     0.00294903    0.00118353   -0.00153800
     atom   30 type  1   force =    -0.00446792    0.00240635   -0.01991642
     atom   31 type  2   force =     0.00128673   -0.00041661    0.01632872
     atom   32 type  2   force =    -0.01087728    0.00723868    0.00928748
     atom   33 type  1   force =     0.01175273   -0.00459018   -0.00725525
     atom   34 type  2   force =     0.00025229   -0.01819326    0.00551521
     atom   35 type  2   force =    -0.00842740    0.00720026    0.01282844
     atom   36 type  3   force =    -0.02152784    0.00905155   -0.00522796
     The non-local contrib.  to forces
     atom    1 type  1   force =     0.00846456    0.02225384   -0.00974556
     atom    2 type  2   force =     0.13496391   -0.07822777   -0.11905301
     atom    3 type  2   force =    -0.01326915   -0.00326091    0.27345961
     atom    4 type  1   force =     0.00015922    0.00849992    0.00515061
     atom    5 type  2   force =     0.00391205   -0.02705004   -0.24791438
     atom    6 type  2   force =    -0.00387275    0.00880696    0.26420393
     atom    7 type  1   force =    -0.02144987   -0.00498175   -0.02056845
     atom    8 type  2   force =     0.00152524   -0.00422423   -0.25244408
     atom    9 type  2   force =     0.00764829   -0.00936980    0.27694909
     atom   10 type  1   force =     0.00567721    0.00261636    0.00436315
     atom   11 type  2   force =     0.01407543    0.00710755   -0.25773732
     atom   12 type  2   force =    -0.01482929   -0.01748034    0.26207481
     atom   13 type  1   force =    -0.00394394    0.01711068   -0.00738723
     atom   14 type  2   force =     0.00673264   -0.01248883   -0.25163754
     atom   15 type  2   force =    -0.01316910   -0.00341935    0.26271614
     atom   16 type  1   force =    -0.00019057    0.02749915   -0.03300545
     atom   17 type  2   force =     0.00239375   -0.02723871   -0.24769119
     atom   18 type  2   force =    -0.00362111   -0.00411031    0.27392841
     atom   19 type  1   force =     0.01588724   -0.00641453   -0.01689656
     atom   20 type  2   force =    -0.00022538   -0.02195599    0.26617701
     atom   21 type  1   force =     0.00123030    0.02293127    0.00754079
     atom   22 type  2   force =    -0.00572564    0.00580238   -0.25795920
     atom   23 type  2   force =     0.00839126   -0.01520591    0.26771351
     atom   24 type  1   force =     0.00128548    0.01405259   -0.00464148
     atom   25 type  2   force =    -0.01013287   -0.00682966   -0.22388999
     atom   26 type  2   force =    -0.00335079   -0.01279681    0.26310134
     atom   27 type  1   force =    -0.00179152    0.01078269    0.00971072
     atom   28 type  2   force =    -0.00330263   -0.02657265   -0.27131244
     atom   29 type  2   force =     0.00691156    0.00310918    0.26353181
     atom   30 type  1   force =     0.00257811    0.02032168    0.00327574
     atom   31 type  2   force =    -0.00525729    0.00051207   -0.25143110
     atom   32 type  2   force =    -0.00340374   -0.01020066    0.27347316
     atom   33 type  1   force =    -0.00788486    0.00662691    0.00795219
     atom   34 type  2   force =     0.00051161    0.02348449   -0.21674196
     atom   35 type  2   force =    -0.00310724   -0.00914723    0.27151887
     atom   36 type  3   force =    -0.00896331    0.00425043   -0.01100279
     The ionic contribution  to forces
     atom    1 type  1   force =     0.19525042    0.38751438    5.54088743
     atom    2 type  2   force =    -1.41601543    0.88714720   38.75445105
     atom    3 type  2   force =    -0.20044066    0.04267055  -36.18575624
     atom    4 type  1   force =     0.04454991    0.67949798    0.63292007
     atom    5 type  2   force =    -1.01682513    1.57080706   38.74217952
     atom    6 type  2   force =     0.32971071   -0.47448304  -38.03039478
     atom    7 type  1   force =    -2.68575538   -2.88265242    2.53865220
     atom    8 type  2   force =    -1.01545044   -0.03042703   37.38108259
     atom    9 type  2   force =     0.33212830   -0.05135009  -38.00594247
     atom   10 type  1   force =    -1.42765653   -0.59091363    5.06645959
     atom   11 type  2   force =    -0.70492714   -1.72587399   39.09996696
     atom   12 type  2   force =     0.41420979    0.66392761  -37.88424863
     atom   13 type  1   force =     0.62073416    1.10692704    2.74399167
     atom   14 type  2   force =     0.03264056    0.02655865   38.49687550
     atom   15 type  2   force =     0.15000188   -0.05184994  -36.82666277
     atom   16 type  1   force =    -0.03091019    3.99635999    0.49473012
     atom   17 type  2   force =     0.85149945    1.56315880   37.92967096
     atom   18 type  2   force =    -0.14896312   -0.62343395  -38.56571176
     atom   19 type  1   force =     2.77354389   -2.53319850    0.63599576
     atom   20 type  2   force =     0.22728573   -0.20619444  -38.46732136
     atom   21 type  1   force =     0.00297994   -0.01184189    1.08385954
     atom   22 type  2   force =     0.55557976   -1.80330384   38.40507046
     atom   23 type  2   force =    -0.06498058    0.64157480  -38.31071555
     atom   24 type  1   force =    -0.48026511    1.57145921    5.28438011
     atom   25 type  2   force =     1.18492732    0.51596158   39.00720941
     atom   26 type  2   force =    -0.24768818    0.08759426  -37.40934915
     atom   27 type  1   force =     0.07878684    0.49190790   -2.28016012
     atom   28 type  2   force =     0.06479566    1.17875817   38.17139005
     atom   29 type  2   force =    -0.26279319   -0.38713005  -37.29132544
     atom   30 type  1   force =    -0.32543179   -1.09935969   -0.14029931
     atom   31 type  2   force =     1.26078567   -0.10403704   37.32246576
     atom   32 type  2   force =    -0.46968048   -0.01983895  -38.63485805
     atom   33 type  1   force =     1.12001896   -1.04729032    1.63808712
     atom   34 type  2   force =     0.34343071   -2.10195700   39.03586663
     atom   35 type  2   force =    -0.29412316    0.42922109  -37.89105193
     atom   36 type  3   force =     0.20904684   -0.09591047    7.91760505
     The local contribution  to forces
     atom    1 type  1   force =    -0.20988368   -0.41618497   -5.54821142
     atom    2 type  2   force =     1.32567834   -0.83169608  -38.61017615
     atom    3 type  2   force =     0.20077971   -0.02996589   35.93009328
     atom    4 type  1   force =    -0.03948619   -0.69172382   -0.63915431
     atom    5 type  2   force =     1.01082742   -1.54907072  -38.52140967
     atom    6 type  2   force =    -0.32649705    0.47494735   37.78980030
     atom    7 type  1   force =     2.70953670    2.87915950   -2.52711967
     atom    8 type  2   force =     1.01533486    0.02899098  -37.13111260
     atom    9 type  2   force =    -0.32529096    0.06726749   37.76311606
     atom   10 type  1   force =     1.40992713    0.59357686   -5.10504644
     atom   11 type  2   force =     0.69507840    1.71698420  -38.86936377
     atom   12 type  2   force =    -0.40386101   -0.64867315   37.64967726
     atom   13 type  1   force =    -0.60576531   -1.11390545   -2.74572531
     atom   14 type  2   force =    -0.03138584   -0.01519889  -38.25453600
     atom   15 type  2   force =    -0.14864689    0.05486324   36.57532258
     atom   16 type  1   force =     0.03103197   -4.01392164   -0.45633956
     atom   17 type  2   force =    -0.84730936   -1.53569860  -37.70249044
     atom   18 type  2   force =     0.14970082    0.62135467   38.32767580
     atom   19 type  1   force =    -2.78144018    2.53159072   -0.62335656
     atom   20 type  2   force =    -0.22417443    0.22287493   38.22396893
     atom   21 type  1   force =    -0.00823024   -0.00366517   -1.09188192
     atom   22 type  2   force =    -0.55197130    1.79592955  -38.17039646
     atom   23 type  2   force =     0.05787698   -0.62795570   38.07271934
     atom   24 type  1   force =     0.47051373   -1.58493506   -5.30767834
     atom   25 type  2   force =    -1.16998591   -0.49664123  -38.79260688
     atom   26 type  2   force =     0.23935447   -0.07594151   37.16258454
     atom   27 type  1   force =    -0.07846315   -0.50763245    2.27691241
     atom   28 type  2   force =    -0.06031176   -1.15346724  -37.92601329
     atom   29 type  2   force =     0.25941163    0.38594913   37.04713372
     atom   30 type  1   force =     0.31854380    1.08143072    0.11721595
     atom   31 type  2   force =    -1.25467019    0.10308290  -37.07528437
     atom   32 type  2   force =     0.46232486    0.03670747   38.39198900
     atom   33 type  1   force =    -1.10045027    1.03587832   -1.65299592
     atom   34 type  2   force =    -0.34411798    2.06245889  -38.83177434
     atom   35 type  2   force =     0.28888180   -0.41393705   37.65377009
     atom   36 type  3   force =    -0.22160475    0.10069639   -7.91181658
     The core correction contribution to forces
     atom    1 type  1   force =     0.00000000    0.00000000    0.00000000
     atom    2 type  2   force =    -0.00817311    0.00467077    0.01222910
     atom    3 type  2   force =     0.00060933    0.00004904   -0.02104612
     atom    4 type  1   force =     0.00000000    0.00000000    0.00000000
     atom    5 type  2   force =    -0.00051582    0.00160098    0.02010253
     atom    6 type  2   force =     0.00037924   -0.00102079   -0.02091981
     atom    7 type  1   force =     0.00000000    0.00000000    0.00000000
     atom    8 type  2   force =    -0.00000796    0.00050512    0.02030500
     atom    9 type  2   force =    -0.00014069    0.00055705   -0.02099945
     atom   10 type  1   force =     0.00000000    0.00000000    0.00000000
     atom   11 type  2   force =    -0.00067753   -0.00064278    0.02051850
     atom   12 type  2   force =     0.00128044    0.00144518   -0.02079479
     atom   13 type  1   force =     0.00000000    0.00000000    0.00000000
     atom   14 type  2   force =    -0.00042438    0.00011009    0.02011091
     atom   15 type  2   force =     0.00073535    0.00028615   -0.02061726
     atom   16 type  1   force =     0.00000000    0.00000000    0.00000000
     atom   17 type  2   force =    -0.00002299    0.00145402    0.02014217
     atom   18 type  2   force =     0.00004267   -0.00044158   -0.02103778
     atom   19 type  1   force =     0.00000000    0.00000000    0.00000000
     atom   20 type  2   force =     0.00012598    0.00082610   -0.02120612
     atom   21 type  1   force =     0.00000000    0.00000000    0.00000000
     atom   22 type  2   force =     0.00012070   -0.00057315    0.02048072
     atom   23 type  2   force =    -0.00064268    0.00128731   -0.02089587
     atom   24 type  1   force =     0.00000000    0.00000000    0.00000000
     atom   25 type  2   force =     0.00106469    0.00023330    0.01881055
     atom   26 type  2   force =    -0.00013871    0.00068764   -0.02083144
     atom   27 type  1   force =     0.00000000    0.00000000    0.00000000
     atom   28 type  2   force =     0.00024765    0.00190594    0.02076393
     atom   29 type  2   force =    -0.00057858   -0.00066319   -0.02058557
     atom   30 type  1   force =     0.00000000    0.00000000    0.00000000
     atom   31 type  2   force =     0.00034036    0.00006190    0.02042318
     atom   32 type  2   force =    -0.00011435    0.00061270   -0.02102726
     atom   33 type  1   force =     0.00000000    0.00000000    0.00000000
     atom   34 type  2   force =     0.00042634   -0.00224041    0.01806133
     atom   35 type  2   force =    -0.00003986    0.00090427   -0.02107704
     atom   36 type  3   force =     0.00000000    0.00000000    0.00000000
     The Hubbard contrib.    to forces
     atom    1 type  1   force =     0.00000000    0.00000000    0.00000000
     atom    2 type  2   force =     0.00000000    0.00000000    0.00000000
     atom    3 type  2   force =     0.00000000    0.00000000    0.00000000
     atom    4 type  1   force =     0.00000000    0.00000000    0.00000000
     atom    5 type  2   force =     0.00000000    0.00000000    0.00000000
     atom    6 type  2   force =     0.00000000    0.00000000    0.00000000
     atom    7 type  1   force =     0.00000000    0.00000000    0.00000000
     atom    8 type  2   force =     0.00000000    0.00000000    0.00000000
     atom    9 type  2   force =     0.00000000    0.00000000    0.00000000
     atom   10 type  1   force =     0.00000000    0.00000000    0.00000000
     atom   11 type  2   force =     0.00000000    0.00000000    0.00000000
     atom   12 type  2   force =     0.00000000    0.00000000    0.00000000
     atom   13 type  1   force =     0.00000000    0.00000000    0.00000000
     atom   14 type  2   force =     0.00000000    0.00000000    0.00000000
     atom   15 type  2   force =     0.00000000    0.00000000    0.00000000
     atom   16 type  1   force =     0.00000000    0.00000000    0.00000000
     atom   17 type  2   force =     0.00000000    0.00000000    0.00000000
     atom   18 type  2   force =     0.00000000    0.00000000    0.00000000
     atom   19 type  1   force =     0.00000000    0.00000000    0.00000000
     atom   20 type  2   force =     0.00000000    0.00000000    0.00000000
     atom   21 type  1   force =     0.00000000    0.00000000    0.00000000
     atom   22 type  2   force =     0.00000000    0.00000000    0.00000000
     atom   23 type  2   force =     0.00000000    0.00000000    0.00000000
     atom   24 type  1   force =     0.00000000    0.00000000    0.00000000
     atom   25 type  2   force =     0.00000000    0.00000000    0.00000000
     atom   26 type  2   force =     0.00000000    0.00000000    0.00000000
     atom   27 type  1   force =     0.00000000    0.00000000    0.00000000
     atom   28 type  2   force =     0.00000000    0.00000000    0.00000000
     atom   29 type  2   force =     0.00000000    0.00000000    0.00000000
     atom   30 type  1   force =     0.00000000    0.00000000    0.00000000
     atom   31 type  2   force =     0.00000000    0.00000000    0.00000000
     atom   32 type  2   force =     0.00000000    0.00000000    0.00000000
     atom   33 type  1   force =     0.00000000    0.00000000    0.00000000
     atom   34 type  2   force =     0.00000000    0.00000000    0.00000000
     atom   35 type  2   force =     0.00000000    0.00000000    0.00000000
     atom   36 type  3   force =     0.00000000    0.00000000    0.00000000
     The SCF correction term to forces
     atom    1 type  1   force =     0.00023859   -0.00031296   -0.00005252
     atom    2 type  2   force =     0.00001382   -0.00003370    0.00004823
     atom    3 type  2   force =     0.00001972   -0.00006571   -0.00029101
     atom    4 type  1   force =    -0.00004547    0.00009124   -0.00023125
     atom    5 type  2   force =    -0.00007427    0.00006887    0.00013958
     atom    6 type  2   force =     0.00004972   -0.00000744   -0.00031776
     atom    7 type  1   force =    -0.00044758   -0.00020589    0.00003949
     atom    8 type  2   force =    -0.00016099    0.00002903    0.00005839
     atom    9 type  2   force =    -0.00009631    0.00001636   -0.00021264
     atom   10 type  1   force =    -0.00022546    0.00016455   -0.00029356
     atom   11 type  2   force =    -0.00005423   -0.00007974    0.00004204
     atom   12 type  2   force =    -0.00000592    0.00004340   -0.00023911
     atom   13 type  1   force =    -0.00008290   -0.00006705   -0.00023401
     atom   14 type  2   force =     0.00000304   -0.00003477    0.00011077
     atom   15 type  2   force =    -0.00001373   -0.00010293   -0.00032569
     atom   16 type  1   force =     0.00001977    0.00063666    0.00004487
     atom   17 type  2   force =     0.00002975    0.00002466    0.00013198
     atom   18 type  2   force =    -0.00003967   -0.00007539   -0.00025833
     atom   19 type  1   force =     0.00060681   -0.00019273    0.00007932
     atom   20 type  2   force =     0.00009326    0.00002695   -0.00009592
     atom   21 type  1   force =     0.00013144   -0.00003050   -0.00029133
     atom   22 type  2   force =     0.00007356   -0.00001246    0.00011424
     atom   23 type  2   force =     0.00005031    0.00014172   -0.00029606
     atom   24 type  1   force =    -0.00004811   -0.00014782   -0.00029304
     atom   25 type  2   force =    -0.00001841   -0.00002041    0.00010727
     atom   26 type  2   force =    -0.00002993   -0.00003922   -0.00031910
     atom   27 type  1   force =     0.00003687   -0.00013578   -0.00015875
     atom   28 type  2   force =     0.00002892   -0.00000461    0.00007288
     atom   29 type  2   force =    -0.00000201   -0.00008528   -0.00028599
     atom   30 type  1   force =    -0.00015766    0.00000990   -0.00010226
     atom   31 type  2   force =     0.00008856   -0.00004018    0.00016180
     atom   32 type  2   force =    -0.00000320   -0.00004563   -0.00028283
     atom   33 type  1   force =     0.00006928    0.00019117   -0.00029211
     atom   34 type  2   force =     0.00000200    0.00005703    0.00011008
     atom   35 type  2   force =    -0.00003856    0.00015545   -0.00032502
     atom   36 type  3   force =    -0.00000623    0.00001146   -0.00000711

     Total force =     0.107729     Total SCF correction =     0.001779

     BFGS Geometry Optimization
     Energy error            =      0.0E+00 Ry
     Gradient error          =      3.7E-02 Ry/Bohr

     number of scf cycles    =   1
     number of bfgs steps    =   0

     energy             new  =   -2205.5298817692 Ry

     new trust radius        =       0.0553575853 bohr
     new conv_thr            =       0.0000010000 Ry


ATOMIC_POSITIONS (angstrom)
Mo            6.5714101289        1.7842469957        2.8145789629
S             8.1960069219        0.8001069552        4.4543786242
S             8.1867234453        0.8162323196        1.2760064252
Mo            8.0979021618        4.4931355382        2.7171191294
S             6.4984931055        3.7204852286        4.3430045817
S             6.5532278124        3.5161015642        1.1225319129
Mo            6.4909783885        7.2138457091        2.6671203156
S             8.0823840714        6.3411603402        4.2519247149
S             8.0884574899        6.3084725768        1.0906915266
Mo            8.1541217954        9.9050633076        2.8251925529
S             6.4970168344        8.9416033381        4.3796234766
S             6.6162504538        9.0483230292        1.1433273751
Mo            3.4274497231        1.7522841140        2.7715173164
S             4.9791690539        0.8163855709        4.3563101747
S             5.0519636606        0.8461461688        1.2215923576
Mo            4.9797305371        4.5187755889        2.6357545102
S             3.4313290533        3.6725013567        4.2795809557
S             3.4363961272        3.5446817238        1.0660722783
Mo            3.4584112752        7.2119793066        2.6284624788
S             4.9848771657        6.3245940111        1.0380559654
Mo            5.0102059818        9.9055146142        2.7429884921
S             3.4699403483        8.9426115390        4.3241642371
S             3.4087968917        9.0649084692        1.1005762709
Mo            0.2915848656        1.7477384881        2.8345011214
S             1.8535602528        0.7994184350        4.4033021487
S             1.8545274219        0.8541656205        1.2068500422
Mo            1.8599338740        4.4929817687        2.6635299906
S             0.2729851034        3.6547286933        4.3348824361
S             0.2327917649        3.5278755250        1.1712040070
Mo            0.2687878281        7.2179194792        2.6911571131
S             1.9029191538        6.3125783729        4.2310849091
S             1.8564822034        6.3141743556        1.0494740041
Mo            1.8505659407        9.9377101371        2.7691069364
S             0.2960464069        9.0803703696        4.4167879901
S             0.2723118128        9.0473359265        1.1571892961
H             9.4453679567       10.9336898731        5.3466781894



     Writing config-only to output data dir ./MoS2-V-O.save/
     NEW-OLD atomic charge density approx. for the potential

     negative rho (up, down):  1.435E-04 0.000E+00

     total cpu time spent up to now is       77.8 secs

     Self-consistent Calculation

     iteration #  1     ecut=    80.00 Ry     beta= 0.70
     Davidson diagonalization with overlap
     ethr =  1.00E-06,  avg # of iterations =  8.0

     negative rho (up, down):  1.144E-04 0.000E+00

     total cpu time spent up to now is       90.0 secs

     total energy              =   -2205.53946381 Ry
     estimated scf accuracy    <       0.00132423 Ry

     iteration #  2     ecut=    80.00 Ry     beta= 0.70
     Davidson diagonalization with overlap
     ethr =  4.31E-07,  avg # of iterations =  2.0

     negative rho (up, down):  1.082E-04 0.000E+00

     total cpu time spent up to now is      105.4 secs

     total energy              =   -2205.53950204 Ry
     estimated scf accuracy    <       0.00027684 Ry

     iteration #  3     ecut=    80.00 Ry     beta= 0.70
     Davidson diagonalization with overlap
     ethr =  9.02E-08,  avg # of iterations =  6.0

     negative rho (up, down):  1.086E-04 0.000E+00

     total cpu time spent up to now is      124.2 secs

     total energy              =   -2205.53953647 Ry
     estimated scf accuracy    <       0.00004505 Ry

     iteration #  4     ecut=    80.00 Ry     beta= 0.70
     Davidson diagonalization with overlap
     ethr =  1.47E-08,  avg # of iterations = 17.0

     negative rho (up, down):  1.073E-04 0.000E+00

     total cpu time spent up to now is      142.7 secs

     total energy              =   -2205.53954859 Ry
     estimated scf accuracy    <       0.00000582 Ry

     iteration #  5     ecut=    80.00 Ry     beta= 0.70
     Davidson diagonalization with overlap
     ethr =  1.90E-09,  avg # of iterations =  2.0

     negative rho (up, down):  1.050E-04 0.000E+00

     total cpu time spent up to now is      159.0 secs

     total energy              =   -2205.53954931 Ry
     estimated scf accuracy    <       0.00000179 Ry

     iteration #  6     ecut=    80.00 Ry     beta= 0.70
     Davidson diagonalization with overlap
     ethr =  5.82E-10,  avg # of iterations =  4.0

     negative rho (up, down):  1.381E-04 0.000E+00

     total cpu time spent up to now is      161.0 secs

     End of self-consistent calculation

          k = 0.0000 0.0000 0.0000 (105382 PWs)   bands (ev):

   -62.8893 -62.8702 -62.8589 -62.8300 -62.8149 -62.8056 -62.7996 -62.7908
   -62.7817 -62.7728 -62.7566 -62.7490 -37.2295 -37.1637 -37.1339 -37.1312
   -37.1227 -37.0945 -37.0779 -37.0703 -37.0594 -37.0565 -37.0439 -37.0337
   -37.0276 -37.0204 -37.0074 -36.9969 -36.9912 -36.9868 -36.9742 -36.9666
   -36.9613 -36.9522 -36.9360 -36.9322 -36.9244 -36.9214 -36.9083 -36.9011
   -36.8949 -36.8730 -36.8564 -36.8411 -36.8184 -36.7827 -36.7363 -36.7144
   -16.0226 -15.2535 -15.1676 -15.0272 -14.9684 -14.8177 -14.5857 -14.5055
   -14.4676 -14.4208 -14.4074 -14.3732 -14.3443 -14.2885 -14.1621 -14.1422
   -14.1222 -14.1022 -14.0238 -13.9309 -13.8540 -13.8226 -13.8060  -8.1491
    -7.6067  -7.4514  -7.2756  -7.2625  -7.2096  -7.1930  -7.1259  -6.8975
    -6.8420  -6.8001  -6.7516  -6.7327  -6.5398  -6.4898  -6.4572  -6.4443
    -6.3656  -6.2357  -6.0140  -5.9909  -5.9091  -5.8487  -5.8219  -5.8054
    -5.7754  -5.7378  -5.6714  -5.6571  -5.6163  -5.5719  -5.5243  -5.4632
    -5.4097  -5.3424  -5.1706  -5.1583  -5.0855  -5.0441  -4.9833  -4.9515
    -4.9211  -4.8272  -4.6367  -4.5096  -4.3592  -4.3154  -4.2968  -4.2565
    -4.2313  -4.0761  -4.0264  -3.9758  -3.8070  -3.7574  -3.7220  -3.6986
    -3.6709  -3.5610  -3.5571  -3.5313  -3.4941  -3.4846  -3.4494  -3.3745
    -3.3645  -3.1998  -3.1394  -2.9077  -2.8847  -2.7869  -2.7652  -2.7309
    -2.7071  -2.6821  -2.6523  -2.6222  -2.5666  -2.2870  -2.0573  -2.0051
    -1.9819  -1.0960  -0.7592  -0.7235  -0.1610  -0.1258  -0.0550  -0.0338
     0.1108   0.1329   0.2003   0.2533   0.2615   0.2884   0.3828   0.4271
     0.4777   0.5372   0.5490   0.5790   0.6176   0.6814   0.7025   0.7620
     0.7793   0.7877   0.8785   0.8844   0.9579   1.0067   1.0326   1.3427
     1.3852

     the Fermi energy is    -1.0960 ev

!    total energy              =   -2205.53954904 Ry
     estimated scf accuracy    <       0.00000085 Ry
     smearing contrib. (-TS)   =      -0.00565730 Ry
     internal energy E=F+TS    =   -2205.53389175 Ry

     The total energy is F=E-TS. E is the sum of the following terms:
     one-electron contribution =  -18047.38963745 Ry
     hartree contribution      =    9010.48795588 Ry
     xc contribution           =    -385.24398608 Ry
     ewald contribution        =    7216.61177589 Ry

     convergence has been achieved in   6 iterations

     negative rho (up, down):  1.381E-04 0.000E+00

     Forces acting on atoms (cartesian axes, Ry/au):

     atom    1 type  1   force =    -0.00383379   -0.00514065   -0.00907610
     atom    2 type  2   force =     0.03346204   -0.01821860    0.02873361
     atom    3 type  2   force =    -0.01259989    0.00858116   -0.00952934
     atom    4 type  1   force =     0.00381402   -0.00179973    0.00183541
     atom    5 type  2   force =    -0.00128576   -0.00476126   -0.00671503
     atom    6 type  2   force =    -0.00128926    0.00753530    0.00112540
     atom    7 type  1   force =     0.00224966   -0.00614965   -0.00131458
     atom    8 type  2   force =     0.00178749   -0.00444351    0.01080861
     atom    9 type  2   force =     0.01165564    0.00477156    0.00733691
     atom   10 type  1   force =    -0.00379189    0.00513387   -0.01063928
     atom   11 type  2   force =     0.00326227   -0.00207461   -0.00938784
     atom   12 type  2   force =    -0.00536988   -0.00116125    0.00040108
     atom   13 type  1   force =     0.00565985    0.00376053   -0.00227316
     atom   14 type  2   force =     0.00671901    0.00057958    0.00603343
     atom   15 type  2   force =    -0.00945209   -0.00010192   -0.01098127
     atom   16 type  1   force =     0.00038390    0.00832951    0.00393236
     atom   17 type  2   force =     0.00585807    0.00145808    0.00074768
     atom   18 type  2   force =    -0.00160151   -0.00356660    0.01099214
     atom   19 type  1   force =     0.00531917   -0.00637598    0.00129037
     atom   20 type  2   force =     0.00293935   -0.00430880   -0.00256361
     atom   21 type  1   force =    -0.00233150    0.00525635    0.00259947
     atom   22 type  2   force =    -0.00078370   -0.00209986   -0.00338575
     atom   23 type  2   force =     0.00128698   -0.00106916    0.00459645
     atom   24 type  1   force =    -0.00449487   -0.00094368   -0.01017380
     atom   25 type  2   force =     0.00623181    0.01200591   -0.00070762
     atom   26 type  2   force =    -0.00724310   -0.00065254   -0.00560047
     atom   27 type  1   force =    -0.00102810   -0.00202203    0.00666828
     atom   28 type  2   force =     0.00070367   -0.00194316   -0.00587272
     atom   29 type  2   force =     0.00259628    0.00222934   -0.00460172
     atom   30 type  1   force =    -0.00254786    0.00041893   -0.00245061
     atom   31 type  2   force =     0.00021836    0.00006815    0.00924105
     atom   32 type  2   force =    -0.00786099    0.00482281    0.00649963
     atom   33 type  1   force =     0.00502393   -0.00121290    0.00134679
     atom   34 type  2   force =    -0.00151224   -0.01729572   -0.00598181
     atom   35 type  2   force =    -0.00584199    0.00756443    0.00511573
     atom   36 type  3   force =    -0.02630307    0.01282612   -0.00804967
     The non-local contrib.  to forces
     atom    1 type  1   force =     0.00812057    0.02092344   -0.00984882
     atom    2 type  2   force =     0.14712192   -0.08802573   -0.11744236
     atom    3 type  2   force =    -0.01265279   -0.00473405    0.26972910
     atom    4 type  1   force =     0.00083422    0.00881252    0.00371743
     atom    5 type  2   force =     0.00510408   -0.02661663   -0.24786197
     atom    6 type  2   force =    -0.00490158    0.00707918    0.26432927
     atom    7 type  1   force =    -0.02168059   -0.00551020   -0.02197550
     atom    8 type  2   force =     0.00156261   -0.00429537   -0.25718379
     atom    9 type  2   force =     0.00563127   -0.01092914    0.27389566
     atom   10 type  1   force =     0.00398932    0.00286691    0.00184659
     atom   11 type  2   force =     0.01260588    0.00694182   -0.25944766
     atom   12 type  2   force =    -0.01613309   -0.01775583    0.25941415
     atom   13 type  1   force =    -0.00177620    0.01944149   -0.00742580
     atom   14 type  2   force =     0.00458974   -0.01136312   -0.25350258
     atom   15 type  2   force =    -0.01136607   -0.00290231    0.26156065
     atom   16 type  1   force =    -0.00044709    0.02846332   -0.03383032
     atom   17 type  2   force =     0.00161101   -0.02651046   -0.24730479
     atom   18 type  2   force =    -0.00234061   -0.00228193    0.27205243
     atom   19 type  1   force =     0.01735598   -0.00618576   -0.01827188
     atom   20 type  2   force =    -0.00030500   -0.02088468    0.26328092
     atom   21 type  1   force =     0.00054974    0.02341243    0.00595832
     atom   22 type  2   force =    -0.00414132    0.00553732   -0.25869375
     atom   23 type  2   force =     0.00898785   -0.01618993    0.26600006
     atom   24 type  1   force =    -0.00051960    0.01417702   -0.00530762
     atom   25 type  2   force =    -0.00777221   -0.00744107   -0.23288401
     atom   26 type  2   force =     0.00022048   -0.01181849    0.26397428
     atom   27 type  1   force =    -0.00178572    0.00969719    0.00844692
     atom   28 type  2   force =    -0.00347266   -0.02729948   -0.27150448
     atom   29 type  2   force =     0.00633946    0.00263970    0.26223676
     atom   30 type  1   force =     0.00219613    0.01957278    0.00208106
     atom   31 type  2   force =    -0.00544921    0.00039114   -0.25680992
     atom   32 type  2   force =    -0.00100820   -0.01171672    0.27238140
     atom   33 type  1   force =    -0.00611571    0.00525561    0.00532962
     atom   34 type  2   force =    -0.00018571    0.02090359   -0.22814544
     atom   35 type  2   force =    -0.00195327   -0.00935204    0.26819729
     atom   36 type  3   force =    -0.01110198    0.00580802   -0.01208262
     The ionic contribution  to forces
     atom    1 type  1   force =     0.33480869    0.37818367    5.43073039
     atom    2 type  2   force =    -1.47157557    0.91074030   38.84030856
     atom    3 type  2   force =    -0.18739197    0.05465860  -36.22155027
     atom    4 type  1   force =     0.00296442    0.67269294    0.75878723
     atom    5 type  2   force =    -0.96679234    1.49366511   38.70812644
     atom    6 type  2   force =     0.30807888   -0.43868021  -37.99354337
     atom    7 type  1   force =    -2.63085501   -2.77085096    2.49974519
     atom    8 type  2   force =    -0.98884580    0.01325191   37.47791858
     atom    9 type  2   force =     0.28711119   -0.10691392  -37.96564257
     atom   10 type  1   force =    -1.23067598   -0.51414017    4.58960497
     atom   11 type  2   force =    -0.65710233   -1.70995123   39.04752308
     atom   12 type  2   force =     0.32612852    0.61500142  -37.86458643
     atom   13 type  1   force =     0.44340800    0.92793943    2.71065157
     atom   14 type  2   force =     0.03979179    0.03760695   38.58489810
     atom   15 type  2   force =     0.12862165   -0.07613131  -36.90836753
     atom   16 type  1   force =     0.00604123    3.92549154    0.72121259
     atom   17 type  2   force =     0.83041695    1.52500034   37.97651686
     atom   18 type  2   force =    -0.14522960   -0.55148641  -38.50996923
     atom   19 type  1   force =     2.63515777   -2.46472903    0.65682968
     atom   20 type  2   force =     0.20474180   -0.20991586  -38.52583537
     atom   21 type  1   force =     0.00134859   -0.06161797    1.27242421
     atom   22 type  2   force =     0.54494661   -1.80269626   38.40771649
     atom   23 type  2   force =    -0.06150372    0.60584951  -38.26923371
     atom   24 type  1   force =    -0.41831154    1.38730994    4.86365573
     atom   25 type  2   force =     1.12063562    0.49803680   38.95432051
     atom   26 type  2   force =    -0.19021250    0.05922741  -37.36292945
     atom   27 type  1   force =     0.07633325    0.59520985   -2.01134396
     atom   28 type  2   force =     0.04730690    1.08728518   38.17258493
     atom   29 type  2   force =    -0.24187700   -0.32304836  -37.32415522
     atom   30 type  1   force =    -0.22863126   -1.06962611   -0.34746284
     atom   31 type  2   force =     1.21193162   -0.04185863   37.36902683
     atom   32 type  2   force =    -0.40471276   -0.06052907  -38.56823060
     atom   33 type  1   force =     0.94608674   -0.90533274    1.76237022
     atom   34 type  2   force =     0.29016297   -2.00802150   38.96322199
     atom   35 type  2   force =    -0.21083261    0.45636014  -37.81168957
     atom   36 type  3   force =     0.24852682   -0.12798133    7.91636598
     The local contribution  to forces
     atom    1 type  1   force =    -0.34697947   -0.40400755   -5.43146715
     atom    2 type  2   force =     1.36697120   -0.84624081  -38.70624706
     atom    3 type  2   force =     0.18685437   -0.04146740   35.96275955
     atom    4 type  1   force =    -0.00008869   -0.68323283   -0.76180278
     atom    5 type  2   force =     0.96089127   -1.47318706  -38.48739545
     atom    6 type  2   force =    -0.30489275    0.44002179   37.75082777
     atom    7 type  1   force =     2.65466680    2.77000593   -2.48033028
     atom    8 type  2   force =     0.98901535   -0.01404386  -37.23078392
     atom    9 type  2   force =    -0.28102564    0.12204431   37.71961851
     atom   10 type  1   force =     1.22281346    0.51623277   -4.60365561
     atom   11 type  2   force =     0.64821404    1.70149393  -38.81843926
     atom   12 type  2   force =    -0.31659557   -0.59979380   37.62581713
     atom   13 type  1   force =    -0.43593908   -0.94351656   -2.70670226
     atom   14 type  2   force =    -0.03738744   -0.02570810  -38.34602826
     atom   15 type  2   force =    -0.12734683    0.07872360   36.65600011
     atom   16 type  1   force =    -0.00524958   -3.94559034   -0.68456292
     atom   17 type  2   force =    -0.82614841   -1.49834775  -37.74899267
     atom   18 type  2   force =     0.14600611    0.55067454   38.26953291
     atom   19 type  1   force =    -2.64711547    2.46433694   -0.63848260
     atom   20 type  2   force =    -0.20162163    0.22570061   38.28074325
     atom   21 type  1   force =    -0.00422101    0.04347955   -1.27713206
     atom   22 type  2   force =    -0.54158092    1.79561511  -38.17334865
     atom   23 type  2   force =     0.05448555   -0.59202155   38.02824422
     atom   24 type  1   force =     0.41451387   -1.40212726   -4.86998832
     atom   25 type  2   force =    -1.10741751   -0.47877006  -38.74169436
     atom   26 type  2   force =     0.18299717   -0.04864037   37.11373258
     atom   27 type  1   force =    -0.07546306   -0.60689460    2.00840648
     atom   28 type  2   force =    -0.04335935   -1.06365261  -37.92817761
     atom   29 type  2   force =     0.23863820    0.32316833   37.07750280
     atom   30 type  1   force =     0.22386176    1.05025193    0.34171598
     atom   31 type  2   force =    -1.20652023    0.04127364  -37.12393655
     atom   32 type  2   force =     0.39806865    0.07642206   38.32293236
     atom   33 type  1   force =    -0.93482486    0.89883244   -1.76776289
     atom   34 type  2   force =    -0.29180775    1.97169513  -38.75995171
     atom   35 type  2   force =     0.20692417   -0.44040991   37.56910780
     atom   36 type  3   force =    -0.26371449    0.13499346   -7.91239939
     The core correction contribution to forces
     atom    1 type  1   force =     0.00000000    0.00000000    0.00000000
     atom    2 type  2   force =    -0.00908034    0.00537286    0.01170466
     atom    3 type  2   force =     0.00057259    0.00013314   -0.02098174
     atom    4 type  1   force =     0.00000000    0.00000000    0.00000000
     atom    5 type  2   force =    -0.00055831    0.00153212    0.02007310
     atom    6 type  2   force =     0.00040116   -0.00088981   -0.02091523
     atom    7 type  1   force =     0.00000000    0.00000000    0.00000000
     atom    8 type  2   force =     0.00001650    0.00052898    0.02045139
     atom    9 type  2   force =    -0.00007788    0.00056438   -0.02094822
     atom   10 type  1   force =     0.00000000    0.00000000    0.00000000
     atom   11 type  2   force =    -0.00055877   -0.00064728    0.02055286
     atom   12 type  2   force =     0.00124006    0.00141017   -0.02072568
     atom   13 type  1   force =     0.00000000    0.00000000    0.00000000
     atom   14 type  2   force =    -0.00033454    0.00008233    0.02019623
     atom   15 type  2   force =     0.00064236    0.00022510   -0.02061320
     atom   16 type  1   force =     0.00000000    0.00000000    0.00000000
     atom   17 type  2   force =     0.00001759    0.00140189    0.02013912
     atom   18 type  2   force =    -0.00000530   -0.00046022   -0.02100505
     atom   19 type  1   force =     0.00000000    0.00000000    0.00000000
     atom   20 type  2   force =     0.00012570    0.00076530   -0.02114015
     atom   21 type  1   force =     0.00000000    0.00000000    0.00000000
     atom   22 type  2   force =     0.00004961   -0.00060047    0.02051672
     atom   23 type  2   force =    -0.00063984    0.00130448   -0.02086978
     atom   24 type  1   force =     0.00000000    0.00000000    0.00000000
     atom   25 type  2   force =     0.00092639    0.00028398    0.01908040
     atom   26 type  2   force =    -0.00024585    0.00062608   -0.02084871
     atom   27 type  1   force =     0.00000000    0.00000000    0.00000000
     atom   28 type  2   force =     0.00024966    0.00186438    0.02079137
     atom   29 type  2   force =    -0.00053116   -0.00056018   -0.02057774
     atom   30 type  1   force =     0.00000000    0.00000000    0.00000000
     atom   31 type  2   force =     0.00030074    0.00013048    0.02056183
     atom   32 type  2   force =    -0.00018711    0.00062292   -0.02099195
     atom   33 type  1   force =     0.00000000    0.00000000    0.00000000
     atom   34 type  2   force =     0.00037955   -0.00207591    0.01846008
     atom   35 type  2   force =    -0.00003529    0.00094322   -0.02099625
     atom   36 type  3   force =     0.00000000    0.00000000    0.00000000
     The Hubbard contrib.    to forces
     atom    1 type  1   force =     0.00000000    0.00000000    0.00000000
     atom    2 type  2   force =     0.00000000    0.00000000    0.00000000
     atom    3 type  2   force =     0.00000000    0.00000000    0.00000000
     atom    4 type  1   force =     0.00000000    0.00000000    0.00000000
     atom    5 type  2   force =     0.00000000    0.00000000    0.00000000
     atom    6 type  2   force =     0.00000000    0.00000000    0.00000000
     atom    7 type  1   force =     0.00000000    0.00000000    0.00000000
     atom    8 type  2   force =     0.00000000    0.00000000    0.00000000
     atom    9 type  2   force =     0.00000000    0.00000000    0.00000000
     atom   10 type  1   force =     0.00000000    0.00000000    0.00000000
     atom   11 type  2   force =     0.00000000    0.00000000    0.00000000
     atom   12 type  2   force =     0.00000000    0.00000000    0.00000000
     atom   13 type  1   force =     0.00000000    0.00000000    0.00000000
     atom   14 type  2   force =     0.00000000    0.00000000    0.00000000
     atom   15 type  2   force =     0.00000000    0.00000000    0.00000000
     atom   16 type  1   force =     0.00000000    0.00000000    0.00000000
     atom   17 type  2   force =     0.00000000    0.00000000    0.00000000
     atom   18 type  2   force =     0.00000000    0.00000000    0.00000000
     atom   19 type  1   force =     0.00000000    0.00000000    0.00000000
     atom   20 type  2   force =     0.00000000    0.00000000    0.00000000
     atom   21 type  1   force =     0.00000000    0.00000000    0.00000000
     atom   22 type  2   force =     0.00000000    0.00000000    0.00000000
     atom   23 type  2   force =     0.00000000    0.00000000    0.00000000
     atom   24 type  1   force =     0.00000000    0.00000000    0.00000000
     atom   25 type  2   force =     0.00000000    0.00000000    0.00000000
     atom   26 type  2   force =     0.00000000    0.00000000    0.00000000
     atom   27 type  1   force =     0.00000000    0.00000000    0.00000000
     atom   28 type  2   force =     0.00000000    0.00000000    0.00000000
     atom   29 type  2   force =     0.00000000    0.00000000    0.00000000
     atom   30 type  1   force =     0.00000000    0.00000000    0.00000000
     atom   31 type  2   force =     0.00000000    0.00000000    0.00000000
     atom   32 type  2   force =     0.00000000    0.00000000    0.00000000
     atom   33 type  1   force =     0.00000000    0.00000000    0.00000000
     atom   34 type  2   force =     0.00000000    0.00000000    0.00000000
     atom   35 type  2   force =     0.00000000    0.00000000    0.00000000
     atom   36 type  3   force =     0.00000000    0.00000000    0.00000000
     The SCF correction term to forces
     atom    1 type  1   force =     0.00021630   -0.00024223    0.00147757
     atom    2 type  2   force =     0.00002471   -0.00006725    0.00037791
     atom    3 type  2   force =     0.00001778   -0.00001116    0.00048210
     atom    4 type  1   force =     0.00010395   -0.00007439    0.00110162
     atom    5 type  2   force =     0.00006943   -0.00015682    0.00031093
     atom    6 type  2   force =     0.00002490    0.00000233    0.00039505
     atom    7 type  1   force =     0.00011834    0.00020355    0.00121411
     atom    8 type  2   force =     0.00003870    0.00011280    0.00037443
     atom    9 type  2   force =     0.00001659    0.00000390    0.00038163
     atom   10 type  1   force =     0.00008120    0.00017233    0.00153286
     atom   11 type  2   force =     0.00010333    0.00008614    0.00039124
     atom   12 type  2   force =    -0.00000991   -0.00002524    0.00044999
     atom   13 type  1   force =    -0.00003299   -0.00010584    0.00117142
     atom   14 type  2   force =     0.00005933   -0.00004051    0.00043803
     atom   15 type  2   force =    -0.00000332   -0.00001903    0.00040679
     atom   16 type  1   force =     0.00003922   -0.00003703    0.00108110
     atom   17 type  2   force =    -0.00003919   -0.00008797    0.00035726
     atom   18 type  2   force =    -0.00003222   -0.00001460    0.00034918
     atom   19 type  1   force =    -0.00007923    0.00019984    0.00118327
     atom   20 type  2   force =    -0.00000165    0.00002379    0.00035583
     atom   21 type  1   force =    -0.00000894   -0.00001968    0.00131709
     atom   22 type  2   force =    -0.00005780    0.00004241    0.00039152
     atom   23 type  2   force =    -0.00004297   -0.00001370    0.00042375
     atom   24 type  1   force =    -0.00017772   -0.00030541    0.00143450
     atom   25 type  2   force =    -0.00014060   -0.00010576    0.00043793
     atom   26 type  2   force =    -0.00000251   -0.00004920    0.00043892
     atom   27 type  1   force =    -0.00011269   -0.00003649    0.00112692
     atom   28 type  2   force =    -0.00002099   -0.00014265    0.00040115
     atom   29 type  2   force =     0.00002666    0.00002781    0.00035976
     atom   30 type  1   force =     0.00002538    0.00021830    0.00118328
     atom   31 type  2   force =    -0.00004467    0.00012949    0.00036694
     atom   32 type  2   force =    -0.00002168    0.00002161    0.00037650
     atom   33 type  1   force =    -0.00012237    0.00002976    0.00137794
     atom   34 type  2   force =    -0.00006140    0.00020094    0.00040136
     atom   35 type  2   force =     0.00005490    0.00002098    0.00046455
     atom   36 type  3   force =    -0.00001354    0.00000395    0.00003445

     Total force =     0.080546     Total SCF correction =     0.004887
     Energy error            =      9.7E-03 Ry
     Gradient error          =      3.3E-02 Ry/Bohr

     number of scf cycles    =   2
     number of bfgs steps    =   1

     energy             old  =   -2205.5298817692 Ry
     energy             new  =   -2205.5395490436 Ry

     CASE: energy            _new < energy            _old

     new trust radius        =       0.0608933438 bohr
     new conv_thr            =       0.0000000335 Ry


ATOMIC_POSITIONS (angstrom)
Mo            6.5685725046        1.7806455357        2.8073486400
S             8.2182362074        0.7882893227        4.4744920027
S             8.1785904557        0.8219460117        1.2708106432
Mo            8.1006052111        4.4916629094        2.7177872322
S             6.4974274042        3.7175792522        4.3386115846
S             6.5525662342        3.5211131346        1.1234685137
Mo            6.4923785803        7.2094327059        2.6649908334
S             8.0834540887        6.3381620231        4.2601178085
S             8.0964570022        6.3119617613        1.0963799888
Mo            8.1502511456        9.9084494065        2.8143199825
S             6.4991739355        8.9401853085        4.3739928078
S             6.6131221946        9.0476398672        1.1445937305
Mo            3.4320017320        1.7557730424        2.7688649029
S             4.9836729401        0.8164915493        4.3610387280
S             5.0455530996        0.8460605353        1.2146945857
Mo            4.9799079439        4.5245579554        2.6385556524
S             3.4352548388        3.6734890434        4.2799021100
S             3.4351438060        3.5418451224        1.0738076832
Mo            3.4624095778        7.2075341277        2.6283919679
S             4.9868134608        6.3217775894        1.0370680801
Mo            5.0084334426        9.9092834344        2.7441159338
S             3.4692423053        8.9412389196        4.3220798154
S             3.4095344243        9.0643659971        1.1042121207
Mo            0.2879988610        1.7473540374        2.8248964264
S             1.8575446424        0.8073316012        4.4045569723
S             1.8490586364        0.8537685108        1.2033424847
Mo            1.8591992994        4.4911622261        2.6677989580
S             0.2735671577        3.6538926612        4.3311959480
S             0.2345363508        3.5291497455        1.1687239769
Mo            0.2668146105        7.2185213217        2.6866674518
S             1.9032382415        6.3125421885        4.2382622508
S             1.8508766775        6.3177072223        1.0541575416
Mo            1.8549450873        9.9363620547        2.7685541711
S             0.2953571415        9.0689893970        4.4148111017
S             0.2680889455        9.0521879222        1.1617913240
H             9.4290788253       10.9413929664        5.3419188643



     Writing config-only to output data dir ./MoS2-V-O.save/
     NEW-OLD atomic charge density approx. for the potential

     negative rho (up, down):  1.439E-04 0.000E+00

     total cpu time spent up to now is      164.3 secs

     Self-consistent Calculation

     iteration #  1     ecut=    80.00 Ry     beta= 0.70
     Davidson diagonalization with overlap
     ethr =  1.00E-06,  avg # of iterations =  8.0

     negative rho (up, down):  9.953E-05 0.000E+00

     total cpu time spent up to now is      178.4 secs

     total energy              =   -2205.54706000 Ry
     estimated scf accuracy    <       0.00080619 Ry

     iteration #  2     ecut=    80.00 Ry     beta= 0.70
     Davidson diagonalization with overlap
     ethr =  2.63E-07,  avg # of iterations =  2.0

     negative rho (up, down):  7.764E-05 0.000E+00

     total cpu time spent up to now is      193.6 secs

     total energy              =   -2205.54710145 Ry
     estimated scf accuracy    <       0.00014740 Ry

     iteration #  3     ecut=    80.00 Ry     beta= 0.70
     Davidson diagonalization with overlap
     ethr =  4.80E-08,  avg # of iterations =  6.0

     negative rho (up, down):  6.810E-05 0.000E+00

     total cpu time spent up to now is      205.3 secs

     total energy              =   -2205.54712525 Ry
     estimated scf accuracy    <       0.00002534 Ry

     iteration #  4     ecut=    80.00 Ry     beta= 0.70
     Davidson diagonalization with overlap
     ethr =  8.25E-09,  avg # of iterations =  5.0

     negative rho (up, down):  6.811E-05 0.000E+00

     total cpu time spent up to now is      220.0 secs

     total energy              =   -2205.54713260 Ry
     estimated scf accuracy    <       0.00000316 Ry

     iteration #  5     ecut=    80.00 Ry     beta= 0.70
     Davidson diagonalization with overlap
     ethr =  1.03E-09,  avg # of iterations =  5.0

     negative rho (up, down):  7.311E-05 0.000E+00

     total cpu time spent up to now is      232.9 secs

     total energy              =   -2205.54713292 Ry
     estimated scf accuracy    <       0.00000089 Ry

     iteration #  6     ecut=    80.00 Ry     beta= 0.70
     Davidson diagonalization with overlap
     ethr =  2.91E-10,  avg # of iterations =  4.0

     negative rho (up, down):  7.916E-05 0.000E+00

     total cpu time spent up to now is      243.4 secs

     total energy              =   -2205.54713306 Ry
     estimated scf accuracy    <       0.00000016 Ry

     iteration #  7     ecut=    80.00 Ry     beta= 0.70
     Davidson diagonalization with overlap
     ethr =  5.16E-11,  avg # of iterations =  5.0

     negative rho (up, down):  9.321E-05 0.000E+00

     total cpu time spent up to now is      255.0 secs

     total energy              =   -2205.54713300 Ry
     estimated scf accuracy    <       0.00000006 Ry

     iteration #  8     ecut=    80.00 Ry     beta= 0.70
     Davidson diagonalization with overlap
     ethr =  1.97E-11,  avg # of iterations =  2.0

     negative rho (up, down):  1.383E-04 0.000E+00

     total cpu time spent up to now is      256.9 secs

     End of self-consistent calculation

          k = 0.0000 0.0000 0.0000 (105382 PWs)   bands (ev):

   -62.8833 -62.8655 -62.8531 -62.8283 -62.8149 -62.8059 -62.7989 -62.7852
   -62.7690 -62.7645 -62.7554 -62.7362 -37.2236 -37.1569 -37.1314 -37.1244
   -37.1177 -37.0880 -37.0719 -37.0654 -37.0560 -37.0512 -37.0382 -37.0286
   -37.0233 -37.0177 -37.0062 -36.9958 -36.9912 -36.9825 -36.9679 -36.9590
   -36.9532 -36.9456 -36.9306 -36.9273 -36.9177 -36.9114 -36.9031 -36.8959
   -36.8887 -36.8673 -36.8530 -36.8385 -36.8162 -36.7746 -36.7258 -36.7085
   -16.0205 -15.2647 -15.1677 -15.0311 -14.9576 -14.8149 -14.5896 -14.4981
   -14.4548 -14.4171 -14.4022 -14.3687 -14.3407 -14.2877 -14.1546 -14.1386
   -14.1153 -14.1003 -14.0194 -13.9203 -13.8522 -13.8259 -13.7943  -8.1840
    -7.6030  -7.4446  -7.2695  -7.2599  -7.2043  -7.1933  -7.1151  -6.9059
    -6.8396  -6.7950  -6.7482  -6.7263  -6.5325  -6.4823  -6.4547  -6.4464
    -6.3639  -6.2222  -6.0163  -5.9858  -5.9016  -5.8466  -5.8138  -5.8024
    -5.7718  -5.7294  -5.6648  -5.6511  -5.6195  -5.5723  -5.5187  -5.4589
    -5.4013  -5.3236  -5.1675  -5.1463  -5.0857  -5.0314  -4.9771  -4.9585
    -4.9147  -4.8272  -4.6230  -4.5044  -4.3761  -4.3125  -4.2952  -4.2469
    -4.2326  -4.0743  -4.0250  -3.9701  -3.7983  -3.7540  -3.7145  -3.6974
    -3.6697  -3.5623  -3.5421  -3.5263  -3.4868  -3.4865  -3.4425  -3.3668
    -3.3533  -3.1941  -3.1421  -2.9011  -2.8852  -2.7762  -2.7582  -2.7240
    -2.6998  -2.6807  -2.6572  -2.6119  -2.5596  -2.2780  -2.0594  -2.0012
    -1.9807  -1.0899  -0.7447  -0.7133  -0.1506  -0.1200  -0.0535  -0.0311
     0.1055   0.1267   0.2042   0.2593   0.2762   0.2991   0.3715   0.4397
     0.4931   0.5426   0.5542   0.5895   0.6207   0.6847   0.6974   0.7708
     0.7803   0.7966   0.8852   0.8913   0.9688   1.0119   1.0290   1.3357
     1.3891

     the Fermi energy is    -1.0900 ev

!    total energy              =   -2205.54713285 Ry
     estimated scf accuracy    <       0.00000002 Ry
     smearing contrib. (-TS)   =      -0.00565353 Ry
     internal energy E=F+TS    =   -2205.54147932 Ry

     The total energy is F=E-TS. E is the sum of the following terms:
     one-electron contribution =  -18046.01692962 Ry
     hartree contribution      =    9009.85333864 Ry
     xc contribution           =    -385.24654803 Ry
     ewald contribution        =    7215.86865969 Ry

     convergence has been achieved in   8 iterations

     negative rho (up, down):  1.383E-04 0.000E+00

     Forces acting on atoms (cartesian axes, Ry/au):

     atom    1 type  1   force =    -0.00308431   -0.00300049   -0.00581277
     atom    2 type  2   force =     0.03073148   -0.01805854    0.02432621
     atom    3 type  2   force =    -0.01132252    0.00704973   -0.01100754
     atom    4 type  1   force =     0.00279033   -0.00076184    0.00233157
     atom    5 type  2   force =    -0.00010471   -0.00545930   -0.00558146
     atom    6 type  2   force =    -0.00189914    0.00643406    0.00090321
     atom    7 type  1   force =     0.00226789   -0.00378504    0.00187104
     atom    8 type  2   force =     0.00181316   -0.00411958    0.00638626
     atom    9 type  2   force =     0.00876474    0.00279219    0.00378474
     atom   10 type  1   force =     0.00073372    0.00466012    0.00199169
     atom   11 type  2   force =     0.00290948   -0.00163633   -0.00945045
     atom   12 type  2   force =    -0.00615636   -0.00137892   -0.00216403
     atom   13 type  1   force =     0.00180400   -0.00091277    0.00169068
     atom   14 type  2   force =     0.00594671    0.00156591    0.00277554
     atom   15 type  2   force =    -0.00751568   -0.00005529   -0.01004472
     atom   16 type  1   force =     0.00059699    0.00574986    0.00218595
     atom   17 type  2   force =     0.00499341    0.00132150    0.00189013
     atom   18 type  2   force =    -0.00071282   -0.00079667    0.00821075
     atom   19 type  1   force =     0.00293161   -0.00471761    0.00345138
     atom   20 type  2   force =     0.00264236   -0.00348019   -0.00429046
     atom   21 type  1   force =    -0.00092179    0.00366700    0.00264999
     atom   22 type  2   force =     0.00010332   -0.00182692   -0.00256732
     atom   23 type  2   force =     0.00130855   -0.00179700    0.00281854
     atom   24 type  1   force =    -0.00193346   -0.00163845   -0.00071449
     atom   25 type  2   force =     0.00713901    0.01082702   -0.00663895
     atom   26 type  2   force =    -0.00363592   -0.00084962   -0.00459592
     atom   27 type  1   force =    -0.00077856    0.00003455    0.00529822
     atom   28 type  2   force =     0.00017295   -0.00345136   -0.00495337
     atom   29 type  2   force =     0.00229343    0.00265916   -0.00522888
     atom   30 type  1   force =    -0.00095437    0.00061911    0.00808776
     atom   31 type  2   force =    -0.00010808   -0.00004718    0.00497919
     atom   32 type  2   force =    -0.00492888    0.00285552    0.00506225
     atom   33 type  1   force =     0.00050223    0.00092239    0.00391518
     atom   34 type  2   force =    -0.00171614   -0.01743089   -0.01248862
     atom   35 type  2   force =    -0.00346733    0.00682633    0.00092179
     atom   36 type  3   force =    -0.03120528    0.01721957   -0.00999308
     The non-local contrib.  to forces
     atom    1 type  1   force =     0.00813573    0.01948984   -0.00948262
     atom    2 type  2   force =     0.16269094   -0.09957871   -0.11081491
     atom    3 type  2   force =    -0.01083421   -0.00642429    0.26833705
     atom    4 type  1   force =     0.00128734    0.00917695    0.00291399
     atom    5 type  2   force =     0.00618633   -0.02593571   -0.24711106
     atom    6 type  2   force =    -0.00561630    0.00508991    0.26492436
     atom    7 type  1   force =    -0.02183122   -0.00592976   -0.02265923
     atom    8 type  2   force =     0.00159558   -0.00436193   -0.25993888
     atom    9 type  2   force =     0.00328015   -0.01236209    0.27174488
     atom   10 type  1   force =     0.00282986    0.00339482    0.00053432
     atom   11 type  2   force =     0.01154483    0.00693033   -0.25930467
     atom   12 type  2   force =    -0.01646473   -0.01785678    0.25865002
     atom   13 type  1   force =    -0.00008877    0.02117038   -0.00710184
     atom   14 type  2   force =     0.00239058   -0.01068134   -0.25428368
     atom   15 type  2   force =    -0.00928521   -0.00225811    0.26165202
     atom   16 type  1   force =    -0.00051847    0.02951916   -0.03444245
     atom   17 type  2   force =     0.00069820   -0.02605214   -0.24689893
     atom   18 type  2   force =    -0.00138280   -0.00065789    0.27055510
     atom   19 type  1   force =     0.01852893   -0.00596666   -0.01919036
     atom   20 type  2   force =    -0.00047733   -0.01930273    0.26155079
     atom   21 type  1   force =    -0.00007219    0.02351612    0.00514050
     atom   22 type  2   force =    -0.00301956    0.00550828   -0.25835300
     atom   23 type  2   force =     0.00913314   -0.01684120    0.26553296
     atom   24 type  1   force =    -0.00214280    0.01414811   -0.00532633
     atom   25 type  2   force =    -0.00427757   -0.00839101   -0.23905760
     atom   26 type  2   force =     0.00307032   -0.01077621    0.26536517
     atom   27 type  1   force =    -0.00161128    0.00893046    0.00766734
     atom   28 type  2   force =    -0.00348269   -0.02750089   -0.27062979
     atom   29 type  2   force =     0.00577834    0.00193870    0.26222199
     atom   30 type  1   force =     0.00193019    0.01866285    0.00164233
     atom   31 type  2   force =    -0.00547410   -0.00002058   -0.25998128
     atom   32 type  2   force =     0.00141915   -0.01292782    0.27188227
     atom   33 type  1   force =    -0.00475216    0.00424748    0.00383677
     atom   34 type  2   force =     0.00079170    0.01527305   -0.23652788
     atom   35 type  2   force =    -0.00083334   -0.01043003    0.26674457
     atom   36 type  3   force =    -0.01403485    0.00795913   -0.01361921
     The ionic contribution  to forces
     atom    1 type  1   force =     0.47050245    0.36314104    5.30742569
     atom    2 type  2   force =    -1.57118530    0.96962607   38.92155556
     atom    3 type  2   force =    -0.16100292    0.05116308  -36.28087094
     atom    4 type  1   force =    -0.04263577    0.63675809    0.85566844
     atom    5 type  2   force =    -0.92674248    1.42031844   38.65762995
     atom    6 type  2   force =     0.29623740   -0.41603125  -37.95795513
     atom    7 type  1   force =    -2.60058629   -2.65714579    2.46823480
     atom    8 type  2   force =    -0.98548921    0.03815717   37.56686922
     atom    9 type  2   force =     0.24947347   -0.14085031  -37.93479026
     atom   10 type  1   force =    -1.14061733   -0.43599582    4.25504273
     atom   11 type  2   force =    -0.63386424   -1.69405651   38.97367681
     atom   12 type  2   force =     0.27276726    0.57752591  -37.84301715
     atom   13 type  1   force =     0.32910717    0.80492168    2.68243276
     atom   14 type  2   force =     0.05466839    0.04836918   38.65458954
     atom   15 type  2   force =     0.11425537   -0.09758351  -37.00352742
     atom   16 type  1   force =     0.03565874    3.84282930    0.89252757
     atom   17 type  2   force =     0.82000160    1.49172688   38.00809623
     atom   18 type  2   force =    -0.14635534   -0.49521551  -38.44602716
     atom   19 type  1   force =     2.54025642   -2.38503474    0.68062984
     atom   20 type  2   force =     0.18474840   -0.19360330  -38.59437376
     atom   21 type  1   force =     0.01254994   -0.10608079    1.43276819
     atom   22 type  2   force =     0.54254013   -1.79864183   38.39704972
     atom   23 type  2   force =    -0.06781945    0.57130184  -38.22437563
     atom   24 type  1   force =    -0.41625918    1.26040503    4.52936308
     atom   25 type  2   force =     1.07818149    0.47351239   38.90169742
[...]
     atom   27 type  1   force =     0.00040731    0.00943303    0.00406011
     atom   28 type  2   force =     0.00155539   -0.02275306   -0.26643669
     atom   29 type  2   force =    -0.00067420   -0.00641183    0.26619104
     atom   30 type  1   force =     0.00346422    0.01437778    0.00165135
     atom   31 type  2   force =    -0.00806805    0.00035268   -0.26462927
     atom   32 type  2   force =     0.00692927   -0.01482497    0.26859171
     atom   33 type  1   force =    -0.00110096    0.00221691    0.00255697
     atom   34 type  2   force =     0.00178891   -0.00167713   -0.25778125
     atom   35 type  2   force =    -0.00086241   -0.01574199    0.26854939
     atom   36 type  3   force =    -0.03333434    0.01847921   -0.03945233
     The ionic contribution  to forces
     atom    1 type  1   force =     1.14062732   -0.03253454    0.18582174
     atom    2 type  2   force =    -2.02329910    1.16379383   38.50321541
     atom    3 type  2   force =     0.21078812   -0.15693016  -36.83548191
     atom    4 type  1   force =    -0.07745952    0.61433455    0.49543320
     atom    5 type  2   force =    -0.83096786    1.09732338   38.12918027
     atom    6 type  2   force =     0.40934998   -0.07695308  -38.49034546
     atom    7 type  1   force =    -2.47292193   -2.39907565    2.28222335
     atom    8 type  2   force =    -1.28709000    0.00862092   38.00484896
     atom    9 type  2   force =     0.37324728   -0.03964945  -37.67124891
     atom   10 type  1   force =    -0.99599029   -0.01894864    4.26825197
     atom   11 type  2   force =    -0.71231137   -1.56460630   38.55967204
     atom   12 type  2   force =     0.35794777    0.37477884  -37.87923300
     atom   13 type  1   force =     0.08269681    0.79364689    1.86472747
     atom   14 type  2   force =     0.22619704    0.03752909   38.22996213
     atom   15 type  2   force =    -0.07873272   -0.28022309  -38.11197816
     atom   16 type  1   force =     0.00792453    3.78668871    0.99193218
     atom   17 type  2   force =     0.96778310    1.24695894   38.22005410
     atom   18 type  2   force =    -0.36246463   -0.24420848  -38.06501660
     atom   19 type  1   force =     2.49129424   -2.07720219    2.94304215
     atom   20 type  2   force =    -0.00198227    0.01526592  -38.70034191
     atom   21 type  1   force =     0.02432533   -0.32582910    0.29855584
     atom   22 type  2   force =     0.57000499   -1.49692808   38.43692460
     atom   23 type  2   force =    -0.25912366    0.23978623  -37.82950844
     atom   24 type  1   force =    -0.75388257    0.83826824    3.91096113
     atom   25 type  2   force =     0.79638814    0.19519905   38.69101779
     atom   26 type  2   force =    -0.19875936   -0.01567065  -37.43822260
     atom   27 type  1   force =     0.06340466    0.64456459    0.91702366
     atom   28 type  2   force =    -0.11164040    0.79451490   38.20882862
     atom   29 type  2   force =    -0.02882946   -0.12891862  -37.34313400
     atom   30 type  1   force =    -0.01950411   -1.03343171    2.10611031
     atom   31 type  2   force =     1.25453525    0.10007785   38.18333433
     atom   32 type  2   force =    -0.32452133    0.00227634  -37.66536193
     atom   33 type  1   force =     0.73012166   -0.77873412    2.83806261
     atom   34 type  2   force =     0.22965236   -1.04815642   38.79005029
     atom   35 type  2   force =    -0.05407345    0.13490837  -37.38473803
     atom   36 type  3   force =     0.65726546   -0.37053635    8.35537681
     The local contribution  to forces
     atom    1 type  1   force =    -1.14115727    0.01547647   -0.17986804
     atom    2 type  2   force =     1.79610223   -1.03965701  -38.50153499
     atom    3 type  2   force =    -0.20599087    0.16675150   36.58335972
     atom    4 type  1   force =     0.07574109   -0.62191790   -0.49875247
     atom    5 type  2   force =     0.82568311   -1.08663797  -37.90554321
     atom    6 type  2   force =    -0.40538535    0.08441110   38.24670501
     atom    7 type  1   force =     2.49456440    2.40626849   -2.26287399
     atom    8 type  2   force =     1.28063662   -0.00841414  -37.76194414
     atom    9 type  2   force =    -0.36686873    0.05508778   37.42397483
     atom   10 type  1   force =     0.99715864    0.01269219   -4.26195044
     atom   11 type  2   force =     0.70197398    1.55935070  -38.32582909
     atom   12 type  2   force =    -0.34700894   -0.36155175   37.63741386
     atom   13 type  1   force =    -0.08643759   -0.81502577   -1.86045091
     atom   14 type  2   force =    -0.21246171   -0.02406789  -37.99811390
     atom   15 type  2   force =     0.07658898    0.27947910   37.86805275
     atom   16 type  1   force =    -0.00883321   -3.82152787   -0.95932712
     atom   17 type  2   force =    -0.96089585   -1.22427811  -37.98771453
     atom   18 type  2   force =     0.36044063    0.25048893   37.82013448
     atom   19 type  1   force =    -2.51339176    2.08266543   -2.91732702
     atom   20 type  2   force =     0.00137343   -0.00176976   38.45951989
     atom   21 type  1   force =    -0.02376453    0.30422348   -0.30377160
     atom   22 type  2   force =    -0.56590361    1.49545236  -38.19816409
     atom   23 type  2   force =     0.25056930   -0.23032346   37.58293102
     atom   24 type  1   force =     0.75916443   -0.85304576   -3.90543772
     atom   25 type  2   force =    -0.79459936   -0.18321296  -38.46258271
     atom   26 type  2   force =     0.19158484    0.02293139   37.19083796
     atom   27 type  1   force =    -0.06385127   -0.65418230   -0.92177867
     atom   28 type  2   force =     0.11059162   -0.77288044  -37.96385160
     atom   29 type  2   force =     0.02867601    0.13510979   37.09716266
     atom   30 type  1   force =     0.01603720    1.01923587   -2.10786884
     atom   31 type  2   force =    -1.24653896   -0.10060389  -37.93964644
     atom   32 type  2   force =     0.31865169    0.01145921   37.41682624
     atom   33 type  1   force =    -0.72859778    0.77617362   -2.84080986
     atom   34 type  2   force =    -0.23132348    1.04956646  -38.55194596
     atom   35 type  2   force =     0.05429641   -0.12079496   37.13771566
     atom   36 type  3   force =    -0.62445618    0.35347418   -8.31683047
     The core correction contribution to forces
     atom    1 type  1   force =     0.00000000    0.00000000    0.00000000
     atom    2 type  2   force =    -0.01581888    0.00865098    0.00248464
     atom    3 type  2   force =     0.00049534    0.00017946   -0.02121922
     atom    4 type  1   force =     0.00000000    0.00000000    0.00000000
     atom    5 type  2   force =    -0.00052252    0.00036669    0.01991886
     atom    6 type  2   force =     0.00036516    0.00020684   -0.02090464
     atom    7 type  1   force =     0.00000000    0.00000000    0.00000000
     atom    8 type  2   force =    -0.00042392    0.00025932    0.02064153
     atom    9 type  2   force =     0.00062429    0.00083041   -0.02082591
     atom   10 type  1   force =     0.00000000    0.00000000    0.00000000
     atom   11 type  2   force =    -0.00059975   -0.00058930    0.02027141
     atom   12 type  2   force =     0.00099527    0.00109172   -0.02077706
     atom   13 type  1   force =     0.00000000    0.00000000    0.00000000
     atom   14 type  2   force =     0.00082757    0.00033292    0.02024089
     atom   15 type  2   force =    -0.00033594   -0.00020461   -0.02081336
     atom   16 type  1   force =     0.00000000    0.00000000    0.00000000
     atom   17 type  2   force =     0.00063460    0.00105730    0.02027052
     atom   18 type  2   force =    -0.00033738   -0.00012174   -0.02081590
     atom   19 type  1   force =     0.00000000    0.00000000    0.00000000
     atom   20 type  2   force =    -0.00002466    0.00064790   -0.02116335
     atom   21 type  1   force =     0.00000000    0.00000000    0.00000000
     atom   22 type  2   force =     0.00016778   -0.00022407    0.02047188
     atom   23 type  2   force =    -0.00076030    0.00078916   -0.02090214
     atom   24 type  1   force =     0.00000000    0.00000000    0.00000000
     atom   25 type  2   force =     0.00057560    0.00052707    0.01983951
     atom   26 type  2   force =    -0.00054228    0.00023800   -0.02093677
     atom   27 type  1   force =     0.00000000    0.00000000    0.00000000
     atom   28 type  2   force =    -0.00011687    0.00155539    0.02065668
     atom   29 type  2   force =     0.00003601    0.00005130   -0.02075751
     atom   30 type  1   force =     0.00000000    0.00000000    0.00000000
     atom   31 type  2   force =     0.00045355    0.00028769    0.02072292
     atom   32 type  2   force =    -0.00053279    0.00075707   -0.02089735
     atom   33 type  1   force =     0.00000000    0.00000000    0.00000000
     atom   34 type  2   force =     0.00016244   -0.00036766    0.02029210
     atom   35 type  2   force =    -0.00002870    0.00097472   -0.02099935
     atom   36 type  3   force =     0.00000000    0.00000000    0.00000000
     The Hubbard contrib.    to forces
     atom    1 type  1   force =     0.00000000    0.00000000    0.00000000
     atom    2 type  2   force =     0.00000000    0.00000000    0.00000000
     atom    3 type  2   force =     0.00000000    0.00000000    0.00000000
     atom    4 type  1   force =     0.00000000    0.00000000    0.00000000
     atom    5 type  2   force =     0.00000000    0.00000000    0.00000000
     atom    6 type  2   force =     0.00000000    0.00000000    0.00000000
     atom    7 type  1   force =     0.00000000    0.00000000    0.00000000
     atom    8 type  2   force =     0.00000000    0.00000000    0.00000000
     atom    9 type  2   force =     0.00000000    0.00000000    0.00000000
     atom   10 type  1   force =     0.00000000    0.00000000    0.00000000
     atom   11 type  2   force =     0.00000000    0.00000000    0.00000000
     atom   12 type  2   force =     0.00000000    0.00000000    0.00000000
     atom   13 type  1   force =     0.00000000    0.00000000    0.00000000
     atom   14 type  2   force =     0.00000000    0.00000000    0.00000000
     atom   15 type  2   force =     0.00000000    0.00000000    0.00000000
     atom   16 type  1   force =     0.00000000    0.00000000    0.00000000
     atom   17 type  2   force =     0.00000000    0.00000000    0.00000000
     atom   18 type  2   force =     0.00000000    0.00000000    0.00000000
     atom   19 type  1   force =     0.00000000    0.00000000    0.00000000
     atom   20 type  2   force =     0.00000000    0.00000000    0.00000000
     atom   21 type  1   force =     0.00000000    0.00000000    0.00000000
     atom   22 type  2   force =     0.00000000    0.00000000    0.00000000
     atom   23 type  2   force =     0.00000000    0.00000000    0.00000000
     atom   24 type  1   force =     0.00000000    0.00000000    0.00000000
     atom   25 type  2   force =     0.00000000    0.00000000    0.00000000
     atom   26 type  2   force =     0.00000000    0.00000000    0.00000000
     atom   27 type  1   force =     0.00000000    0.00000000    0.00000000
     atom   28 type  2   force =     0.00000000    0.00000000    0.00000000
     atom   29 type  2   force =     0.00000000    0.00000000    0.00000000
     atom   30 type  1   force =     0.00000000    0.00000000    0.00000000
     atom   31 type  2   force =     0.00000000    0.00000000    0.00000000
     atom   32 type  2   force =     0.00000000    0.00000000    0.00000000
     atom   33 type  1   force =     0.00000000    0.00000000    0.00000000
     atom   34 type  2   force =     0.00000000    0.00000000    0.00000000
     atom   35 type  2   force =     0.00000000    0.00000000    0.00000000
     atom   36 type  3   force =     0.00000000    0.00000000    0.00000000
     The SCF correction term to forces
     atom    1 type  1   force =     0.00003666   -0.00002519    0.00009794
     atom    2 type  2   force =    -0.00002073    0.00002077    0.00005405
     atom    3 type  2   force =     0.00000401   -0.00000603    0.00002507
     atom    4 type  1   force =     0.00001134   -0.00005093    0.00007638
     atom    5 type  2   force =     0.00000717   -0.00003208    0.00004486
     atom    6 type  2   force =    -0.00000345   -0.00001076    0.00002010
     atom    7 type  1   force =    -0.00001512    0.00004663    0.00005800
     atom    8 type  2   force =    -0.00001004   -0.00000406    0.00003744
     atom    9 type  2   force =     0.00000467    0.00002237    0.00000899
     atom   10 type  1   force =    -0.00003067    0.00004727    0.00004310
     atom   11 type  2   force =    -0.00001393    0.00001739    0.00003142
     atom   12 type  2   force =     0.00001492    0.00000078    0.00002031
     atom   13 type  1   force =    -0.00001291    0.00003783    0.00008497
     atom   14 type  2   force =     0.00002119    0.00000115    0.00005234
     atom   15 type  2   force =     0.00000334   -0.00000405    0.00001303
     atom   16 type  1   force =    -0.00000844   -0.00000629    0.00010010
     atom   17 type  2   force =     0.00000088   -0.00002534    0.00002323
     atom   18 type  2   force =     0.00000143   -0.00002408    0.00003402
     atom   19 type  1   force =     0.00005123    0.00004611    0.00008499
     atom   20 type  2   force =     0.00001048    0.00000750    0.00002754
     atom   21 type  1   force =     0.00002075    0.00000442    0.00010638
     atom   22 type  2   force =     0.00002234    0.00000987    0.00002806
     atom   23 type  2   force =    -0.00000542    0.00000882    0.00001869
     atom   24 type  1   force =    -0.00005215    0.00000357    0.00008935
     atom   25 type  2   force =    -0.00000185    0.00001288    0.00005423
     atom   26 type  2   force =    -0.00000282    0.00001072   -0.00000269
     atom   27 type  1   force =    -0.00000536   -0.00010452    0.00009365
     atom   28 type  2   force =    -0.00000805   -0.00002603    0.00003819
     atom   29 type  2   force =     0.00000197   -0.00001852    0.00002607
     atom   30 type  1   force =    -0.00004898    0.00005670   -0.00001791
     atom   31 type  2   force =     0.00000894   -0.00000402    0.00004722
     atom   32 type  2   force =    -0.00001623    0.00001721   -0.00000080
     atom   33 type  1   force =    -0.00000757   -0.00000620    0.00003621
     atom   34 type  2   force =    -0.00000038    0.00001154    0.00002980
     atom   35 type  2   force =    -0.00001107   -0.00000690    0.00001245
     atom   36 type  3   force =    -0.00000393    0.00000492    0.00000618

     Total force =     0.005123     Total SCF correction =     0.000379
     Energy error            =      6.6E-05 Ry
     Gradient error          =      1.4E-03 Ry/Bohr

     bfgs converged in  21 scf cycles and  20 bfgs steps
     (criteria: energy <  1.0E-04 Ry, force <  1.0E-02 Ry/Bohr)

     End of BFGS Geometry Optimization

     Final energy             =   -2205.5826748908 Ry

     File ./MoS2-V-O.bfgs deleted, as requested
Begin final coordinates

ATOMIC_POSITIONS (angstrom)
Mo            6.5426789727        1.7798214684        2.6960821635
S             8.2282157309        0.7748879695        4.5202715697
S             8.1605040104        0.8293254257        1.2096492438
Mo            8.1195214889        4.4714510922        2.7098133548
S             6.5106712739        3.6571520895        4.2867170961
S             6.5477276597        3.5701817544        1.0786483342
Mo            6.5209306626        7.1974184183        2.6611340856
S             8.0836126144        6.2915682179        4.2953934191
S             8.1542471434        6.3178216511        1.1202433174
Mo            8.1565499062        9.9224108471        2.8060120651
S             6.5136265425        8.9415722596        4.3325084790
S             6.6200515450        9.0360302345        1.1293612241
Mo            3.4396585851        1.7465679932        2.7461431971
S             5.0255950247        0.8274696674        4.3117557754
S             4.9928170425        0.8343968483        1.1234032510
Mo            4.9940331700        4.5354565192        2.6342894333
S             3.4769348284        3.6562528647        4.2965887357
S             3.4231461253        3.5583376335        1.1050577395
Mo            3.4932548354        7.1843126639        2.6721096311
S             5.0039344498        6.3261402693        1.0325849396
Mo            5.0175564418        9.9187176559        2.7147659902
S             3.4982934456        8.9570768077        4.3225534977
S             3.4053002568        9.0265500160        1.1282348342
Mo            0.2803552664        1.7283444030        2.8057314524
S             1.8943201954        0.8421330066        4.3686668316
S             1.8358111466        0.8297408817        1.1836869659
Mo            1.8669486046        4.4819756321        2.7194932111
S             0.2668511407        3.6134363712        4.3300284018
S             0.2728323096        3.5326964728        1.1652108882
Mo            0.2774576736        7.2061171330        2.7430727374
S             1.9273472159        6.2968216769        4.3046446550
S             1.8560595834        6.3178206403        1.1251970641
Mo            1.8635769223        9.9292009205        2.7752789808
S             0.2930989442        8.9981483574        4.3755063942
S             0.2715371396        9.0463988976        1.1832555023
H             9.0940491135       11.2260916501        5.5132283578
End final coordinates



     Writing all to output data dir ./MoS2-V-O.save/
 
     init_run     :      2.41s CPU      2.58s WALL (       1 calls)
     electrons    :   1850.49s CPU   2030.97s WALL (      21 calls)
     update_pot   :     28.04s CPU     29.21s WALL (      20 calls)
     forces       :     28.30s CPU     30.33s WALL (      21 calls)

     Called by init_run:
     wfcinit      :      0.39s CPU      0.43s WALL (       1 calls)
     potinit      :      1.33s CPU      1.42s WALL (       1 calls)
     hinit0       :      0.17s CPU      0.18s WALL (       1 calls)

     Called by electrons:
     c_bands      :    213.28s CPU    215.78s WALL (     178 calls)
     sum_band     :     57.44s CPU     62.87s WALL (     178 calls)
     v_of_rho     :     72.20s CPU     83.38s WALL (     186 calls)
     newd         :     29.70s CPU     33.47s WALL (     186 calls)
     mix_rho      :   1487.06s CPU   1643.64s WALL (     178 calls)

     Called by c_bands:
     init_us_2    :      3.94s CPU      4.09s WALL (     357 calls)
     init_us_2:cp :      3.94s CPU      4.09s WALL (     357 calls)
     regterg      :    200.34s CPU    202.68s WALL (     178 calls)

     Called by *egterg:
     rdiaghg      :     16.24s CPU     16.39s WALL (     927 calls)
     h_psi        :    116.81s CPU    117.84s WALL (     961 calls)
     s_psi        :     14.56s CPU     14.63s WALL (     961 calls)
     g_psi        :      0.78s CPU      0.79s WALL (     782 calls)

     Called by h_psi:
     h_psi:calbec :     15.75s CPU     15.81s WALL (     961 calls)
     vloc_psi     :     84.88s CPU     85.72s WALL (     961 calls)
     add_vuspsi   :     14.29s CPU     14.40s WALL (     961 calls)

     General routines
     calbec       :     22.70s CPU     22.79s WALL (    1223 calls)
     fft          :     48.06s CPU     56.16s WALL (   12576 calls)
     ffts         :    663.08s CPU    814.73s WALL (  360716 calls)
     fftw         :     73.12s CPU     73.74s WALL (  107496 calls)
     interpolate  :      1.33s CPU      1.53s WALL (     186 calls)
 
     Parallel routines
 
     PWSCF        :  31m53.46s CPU  34m58.94s WALL

 
   This run was terminated on:  12:23:59   4Nov2023            

=------------------------------------------------------------------------------=
   JOB DONE.
=------------------------------------------------------------------------------=
