
     Program PWSCF v.7.2 starts on  4Nov2023 at 10: 2:41 

     This program is part of the open-source Quantum ESPRESSO suite
     for quantum simulation of materials; please cite
         "P. Giannozzi et al., J. Phys.:Condens. Matter 21 395502 (2009);
         "P. Giannozzi et al., J. Phys.:Condens. Matter 29 465901 (2017);
         "P. Giannozzi et al., J. Chem. Phys. 152 154105 (2020);
          URL http://www.quantum-espresso.org", 
     in publications or presentations arising from this work. More details at
     http://www.quantum-espresso.org/quote

     Parallel version (MPI & OpenMP), running on      48 processor cores
     Number of MPI processes:                48
     Threads/MPI process:                     1

     MPI processes distributed on     1 nodes
     17232 MiB available memory on the printing compute node when the environment starts
 
     Waiting for input...
     Reading input from standard input
Warning: card &CELL ignored
Warning: card CELL_DYNAMICS = 'BFGS', ignored
Warning: card CELL_DOFREE = '2DXY' ignored
Warning: card / ignored

     Current dimensions of program PWSCF are:
     Max number of different atomic species (ntypx) = 10
     Max number of k-points (npk) =  40000
     Max angular momentum in pseudopotentials (lmaxx) =  4

     IMPORTANT: XC functional enforced from input :
     Exchange-correlation= RVV10
                           (   1   4  13   4  26   0   0)
     Any further DFT definition will be discarded
     Please, verify this is what you really want


     gamma-point specific algorithms are used
     signal trapping enabled: kill the code with -SIGUSR1 to stop cleanly the simulation 
 
     R & G space division:  proc/nbgrp/npool/nimage =      48
     Subspace diagonalization in iterative solution of the eigenvalue problem:
     one sub-group per band group will be used
     scalapack distributed-memory algorithm (size of sub-group:  2*  2 procs)

 
     Parallelization info
     --------------------
     sticks:   dense  smooth     PW     G-vecs:    dense   smooth      PW
     Min         243     194     47                49060    35090    4376
     Max         246     196     50                49086    35128    4410
     Sum       11735    9389   2349              2355467  1685513  210763
 
     Using Slab Decomposition
 


     bravais-lattice index     =            0
     lattice parameter (alat)  =      17.8707  a.u.
     unit-cell volume          =   17436.2743 (a.u.)^3
     number of atoms/cell      =           36
     number of atomic types    =            3
     number of electrons       =       307.00
     number of Kohn-Sham states=          185
     kinetic-energy cutoff     =      80.0000  Ry
     charge density cutoff     =     400.0000  Ry
     scf convergence threshold =      1.0E-06
     mixing beta               =       0.7000
     number of iterations used =            8  local-TF  mixing
     energy convergence thresh.=      1.0E-04
     force convergence thresh. =      1.0E-02
     Exchange-correlation= RVV10
                           (   1   4  13   4  26   0   0)
     nstep                     =          200


     celldm(1)=  17.870686  celldm(2)=   0.000000  celldm(3)=   0.000000
     celldm(4)=   0.000000  celldm(5)=   0.000000  celldm(6)=   0.000000

     crystal axes: (cart. coord. in units of alat)
               a(1) = (   1.000000   0.000000   0.000000 )  
               a(2) = (   0.000000   1.155671   0.000000 )  
               a(3) = (   0.000000   0.000000   2.643601 )  

     reciprocal axes: (cart. coord. in units 2 pi/alat)
               b(1) = (  1.000000  0.000000  0.000000 )  
               b(2) = (  0.000000  0.865298  0.000000 )  
               b(3) = (  0.000000  0.000000  0.378272 )  


     PseudoPot. # 1 for Mo read from file:
     ../pseudo/Mo_ONCV_PBE-1.0.oncvpsp.upf
     MD5 check sum: 1b5d28e075c9ccadda658a603575cd1f
     Pseudo is Norm-conserving, Zval = 14.0
     Generated using ONCVPSP code by D. R. Hamann
     Using radial grid of 1526 points,  6 beta functions with: 
                l(1) =   0
                l(2) =   0
                l(3) =   1
                l(4) =   1
                l(5) =   2
                l(6) =   2

     PseudoPot. # 2 for S  read from file:
     ../pseudo/s_pbe_v1.4.uspp.F.UPF
     MD5 check sum: 88d86576ff6df21479756cfb9bdac1df
     Pseudo is Ultrasoft + core correction, Zval =  6.0
     Generated by new atomic code, or converted to UPF format
     Using radial grid of  907 points,  6 beta functions with: 
                l(1) =   0
                l(2) =   0
                l(3) =   1
                l(4) =   1
                l(5) =   2
                l(6) =   2
     Q(r) pseudized with  8 coefficients,  rinner =    1.300   1.300   1.300
                                                       1.300   1.300

     PseudoPot. # 3 for H  read from file:
     ../pseudo/H_ONCV_PBE-1.0.oncvpsp.upf
     MD5 check sum: 1790becc920ee074925cf490c71280fe
     Pseudo is Norm-conserving, Zval =  1.0
     Generated using ONCVPSP code by D. R. Hamann
     Using radial grid of 1166 points,  2 beta functions with: 
                l(1) =   0
                l(2) =   0

     atomic species   valence    mass     pseudopotential
        Mo            14.00    95.94000     Mo( 1.00)
        S              6.00    32.06500     S ( 1.00)
        H              1.00     1.00794     H ( 1.00)

     No symmetry found



   Cartesian axes

     site n.     atom                  positions (alat units)
         1           Mo  tau(   1) = (   0.6952221   0.1890506   0.2985846  )
         2           S   tau(   2) = (   0.8646417   0.0856217   0.4689279  )
         3           S   tau(   3) = (   0.8663890   0.0857843   0.1351291  )
         4           Mo  tau(   4) = (   0.8560186   0.4753274   0.2873942  )
         5           S   tau(   5) = (   0.6873294   0.3936244   0.4596353  )
         6           S   tau(   6) = (   0.6929804   0.3713468   0.1185692  )
         7           Mo  tau(   7) = (   0.6862796   0.7633098   0.2825370  )
         8           S   tau(   8) = (   0.8545980   0.6708292   0.4486168  )
         9           S   tau(   9) = (   0.8545123   0.6666874   0.1146125  )
        10           Mo  tau(  10) = (   0.8629403   1.0471007   0.3006803  )
        11           S   tau(  11) = (   0.6868280   0.9456650   0.4634891  )
        12           S   tau(  12) = (   0.6998113   0.9568511   0.1205389  )
        13           Mo  tau(  13) = (   0.3618216   0.1847309   0.2935964  )
        14           S   tau(  14) = (   0.5260962   0.0863870   0.4600448  )
        15           S   tau(  15) = (   0.5348379   0.0894875   0.1297123  )
        16           Mo  tau(  16) = (   0.5265817   0.4772436   0.2784130  )
        17           S   tau(  17) = (   0.3624753   0.3882513   0.4525556  )
        18           S   tau(  18) = (   0.3635411   0.3752055   0.1119148  )
        19           Mo  tau(  19) = (   0.3652268   0.7630864   0.2781795  )
        20           S   tau(  20) = (   0.5269494   0.6690381   0.1096838  )
        21           Mo  tau(  21) = (   0.5300192   1.0470394   0.2900995  )
        22           S   tau(  22) = (   0.3670346   0.9457522   0.4574073  )
        23           S   tau(  23) = (   0.3604225   0.9585725   0.1159032  )
        24           Mo  tau(  24) = (   0.0313099   0.1847895   0.3013130  )
        25           S   tau(  25) = (   0.1956761   0.0838230   0.4650863  )
        26           S   tau(  26) = (   0.1967693   0.0903508   0.1278874  )
        27           Mo  tau(  27) = (   0.1967578   0.4753919   0.2813011  )
        28           S   tau(  28) = (   0.0287851   0.3864324   0.4586755  )
        29           S   tau(  29) = (   0.0244514   0.3729871   0.1239344  )
        30           Mo  tau(  30) = (   0.0286728   0.7631204   0.2856894  )
        31           S   tau(  31) = (   0.2011512   0.6675435   0.4465001  )
        32           S   tau(  32) = (   0.1969214   0.6672839   0.1104564  )
        33           Mo  tau(  33) = (   0.1950294   1.0511147   0.2932237  )
        34           S   tau(  34) = (   0.0312912   0.9612169   0.4667423  )
        35           S   tau(  35) = (   0.0292670   0.9563028   0.1216485  )
        36           H   tau(  36) = (   0.8888889   1.0272628   0.5656742  )

     number of k points=     1  Gaussian smearing, width (Ry)=  0.0100
                       cart. coord. in units 2pi/alat
        k(    1) = (   0.0000000   0.0000000   0.0000000), wk =   2.0000000

     Dense  grid:  1177734 G-vectors     FFT dimensions: ( 120, 135, 320)

     Smooth grid:   842757 G-vectors     FFT dimensions: ( 108, 120, 270)

     Estimated max dynamical RAM per process >     146.59 MB

     Estimated total dynamical RAM >       6.87 GB

     Initial potential from superposition of free atoms

     starting charge     306.9873, renormalised to     307.0000

     negative rho (up, down):  1.412E-04 0.000E+00


---------------------------------------------------------------------------------
Carrying out rVV10 run using the following parameters:
Nqs =      20    Nr_points =    1024   r_max =   100.000
b_value =  6.30000    beta =  0.00901
     q_mesh =  0.00010000  0.00030000  0.00058939  0.00100810
               0.00161396  0.00249058  0.00375900  0.00559430
               0.00824984  0.01209221  0.01765183  0.02569619
               0.03733578  0.05417739  0.07854596  0.11380545
               0.16482331  0.23864234  0.34545298  0.50000000

Gradients computed in Reciprocal space

---------------------------------------------------------------------------------


     Starting wfcs are  213 randomized atomic wfcs

     total cpu time spent up to now is        2.7 secs

     Self-consistent Calculation

     iteration #  1     ecut=    80.00 Ry     beta= 0.70
     Davidson diagonalization with overlap
     ethr =  1.00E-02,  avg # of iterations =  2.0

     Threshold (ethr) on eigenvalues was too large:
     Diagonalizing with lowered threshold

     Davidson diagonalization with overlap
     ethr =  4.00E-04,  avg # of iterations =  4.0

     negative rho (up, down):  1.283E-08 0.000E+00

     total cpu time spent up to now is       18.7 secs

     total energy              =   -2205.54979340 Ry
     estimated scf accuracy    <       1.52014268 Ry

     iteration #  2     ecut=    80.00 Ry     beta= 0.70
     Davidson diagonalization with overlap
     ethr =  4.95E-04,  avg # of iterations =  5.0

     total cpu time spent up to now is       21.2 secs

     total energy              =   -2205.45784621 Ry
     estimated scf accuracy    <       0.57538273 Ry

     iteration #  3     ecut=    80.00 Ry     beta= 0.70
     Davidson diagonalization with overlap
     ethr =  1.87E-04,  avg # of iterations =  2.0

     total cpu time spent up to now is       23.5 secs

     total energy              =   -2205.46343630 Ry
     estimated scf accuracy    <       0.25344709 Ry

     iteration #  4     ecut=    80.00 Ry     beta= 0.70
     Davidson diagonalization with overlap
     ethr =  8.26E-05,  avg # of iterations =  9.0

     total cpu time spent up to now is       26.2 secs

     total energy              =   -2205.49376173 Ry
     estimated scf accuracy    <       0.03645858 Ry

     iteration #  5     ecut=    80.00 Ry     beta= 0.70
     Davidson diagonalization with overlap
     ethr =  1.19E-05,  avg # of iterations =  8.0

     total cpu time spent up to now is       28.7 secs

     total energy              =   -2205.49435718 Ry
     estimated scf accuracy    <       0.01806545 Ry

     iteration #  6     ecut=    80.00 Ry     beta= 0.70
     Davidson diagonalization with overlap
     c_bands:  1 eigenvalues not converged
     ethr =  5.88E-06,  avg # of iterations = 20.0

     total cpu time spent up to now is       31.5 secs

     total energy              =   -2205.49348895 Ry
     estimated scf accuracy    <       0.01238725 Ry

     iteration #  7     ecut=    80.00 Ry     beta= 0.70
     Davidson diagonalization with overlap
     c_bands:  1 eigenvalues not converged
     ethr =  4.03E-06,  avg # of iterations = 20.0

     total cpu time spent up to now is       35.6 secs

     total energy              =   -2205.49207497 Ry
     estimated scf accuracy    <       0.00715989 Ry

     iteration #  8     ecut=    80.00 Ry     beta= 0.70
     Davidson diagonalization with overlap
     ethr =  2.33E-06,  avg # of iterations =  2.0

     negative rho (up, down):  1.462E-02 0.000E+00

     total cpu time spent up to now is       40.0 secs

     total energy              =   -2205.49164441 Ry
     estimated scf accuracy    <       0.00391595 Ry

     iteration #  9     ecut=    80.00 Ry     beta= 0.70
     Davidson diagonalization with overlap
     ethr =  1.28E-06,  avg # of iterations =  2.0

     negative rho (up, down):  2.520E-02 0.000E+00

     total cpu time spent up to now is       44.4 secs

     total energy              =   -2205.49142010 Ry
     estimated scf accuracy    <       0.00223532 Ry

     iteration # 10     ecut=    80.00 Ry     beta= 0.70
     Davidson diagonalization with overlap
     ethr =  7.28E-07,  avg # of iterations =  2.0

     negative rho (up, down):  2.878E-02 0.000E+00

     total cpu time spent up to now is       49.1 secs

     total energy              =   -2205.49163464 Ry
     estimated scf accuracy    <       0.00085820 Ry

     iteration # 11     ecut=    80.00 Ry     beta= 0.70
     Davidson diagonalization with overlap
     ethr =  2.80E-07,  avg # of iterations =  2.0

     negative rho (up, down):  1.719E-02 0.000E+00

     total cpu time spent up to now is       54.3 secs

     total energy              =   -2205.49161210 Ry
     estimated scf accuracy    <       0.00045852 Ry

     iteration # 12     ecut=    80.00 Ry     beta= 0.70
     Davidson diagonalization with overlap
     ethr =  1.49E-07,  avg # of iterations =  5.0

     negative rho (up, down):  4.045E-03 0.000E+00

     total cpu time spent up to now is       62.1 secs

     total energy              =   -2205.49168282 Ry
     estimated scf accuracy    <       0.00006322 Ry

     iteration # 13     ecut=    80.00 Ry     beta= 0.70
     Davidson diagonalization with overlap
     ethr =  2.06E-08,  avg # of iterations =  8.0

     negative rho (up, down):  2.123E-03 0.000E+00

     total cpu time spent up to now is       69.0 secs

     total energy              =   -2205.49171147 Ry
     estimated scf accuracy    <       0.00002131 Ry

     iteration # 14     ecut=    80.00 Ry     beta= 0.70
     Davidson diagonalization with overlap
     ethr =  6.94E-09,  avg # of iterations =  2.0

     negative rho (up, down):  5.097E-04 0.000E+00

     total cpu time spent up to now is       80.1 secs

     total energy              =   -2205.49171328 Ry
     estimated scf accuracy    <       0.00000108 Ry

     iteration # 15     ecut=    80.00 Ry     beta= 0.70
     Davidson diagonalization with overlap
     ethr =  3.51E-10,  avg # of iterations =  7.0

     negative rho (up, down):  1.371E-04 0.000E+00

     total cpu time spent up to now is       82.8 secs

     End of self-consistent calculation

          k = 0.0000 0.0000 0.0000 (105382 PWs)   bands (ev):

   -62.8984 -62.8718 -62.8577 -62.8563 -62.8393 -62.8379 -62.8132 -62.8039
   -62.7997 -62.7827 -62.7591 -62.7207 -37.2328 -37.1645 -37.1518 -37.1431
   -37.1404 -37.1077 -37.0981 -37.0831 -37.0729 -37.0653 -37.0600 -37.0429
   -37.0380 -37.0323 -37.0277 -37.0185 -37.0098 -37.0074 -36.9991 -36.9830
   -36.9780 -36.9660 -36.9474 -36.9294 -36.9201 -36.9114 -36.9074 -36.9005
   -36.8878 -36.8825 -36.8731 -36.8470 -36.8451 -36.8051 -36.7294 -36.7158
   -16.0445 -15.3364 -15.1320 -15.0425 -14.9725 -14.8360 -14.6307 -14.4950
   -14.4709 -14.4492 -14.4064 -14.3722 -14.3354 -14.2789 -14.1879 -14.1467
   -14.1313 -14.0966 -14.0207 -13.9597 -13.8445 -13.8275 -13.8007  -8.1859
    -7.6681  -7.4520  -7.3361  -7.2658  -7.2439  -7.1946  -7.1243  -7.0446
    -6.8368  -6.8260  -6.7715  -6.7305  -6.6134  -6.5175  -6.4896  -6.4463
    -6.2889  -6.2520  -6.0812  -5.9354  -5.9278  -5.8906  -5.8322  -5.8247
    -5.7657  -5.7372  -5.7096  -5.6521  -5.6136  -5.5673  -5.5270  -5.4552
    -5.4230  -5.4088  -5.2243  -5.1719  -5.1163  -5.0633  -4.9951  -4.9439
    -4.9150  -4.8358  -4.6566  -4.5164  -4.3586  -4.3151  -4.2877  -4.2666
    -4.1822  -4.1102  -4.0461  -3.8873  -3.8163  -3.7644  -3.7318  -3.7052
    -3.6785  -3.5991  -3.5550  -3.4979  -3.4932  -3.4742  -3.4492  -3.3804
    -3.3664  -3.2256  -3.1457  -2.9154  -2.8791  -2.8240  -2.7757  -2.7396
    -2.7119  -2.6658  -2.6583  -2.6297  -2.5703  -2.2791  -2.0174  -1.9928
    -1.9516  -0.9149  -0.7970  -0.6976  -0.1893  -0.1561  -0.0954  -0.0411
     0.0760   0.1196   0.1557   0.2025   0.2287   0.3011   0.3656   0.4197
     0.4707   0.5192   0.5430   0.5658   0.6000   0.6542   0.6943   0.7443
     0.7746   0.7966   0.8597   0.8861   0.9376   0.9945   1.0418   1.1557
     1.3447

     the Fermi energy is    -0.9349 ev

!    total energy              =   -2205.49171292 Ry
     estimated scf accuracy    <       0.00000093 Ry
     smearing contrib. (-TS)   =      -0.00780739 Ry
     internal energy E=F+TS    =   -2205.48390553 Ry

     The total energy is F=E-TS. E is the sum of the following terms:
     one-electron contribution =  -18048.09318249 Ry
     hartree contribution      =    9010.77187454 Ry
     xc contribution           =    -385.24252588 Ry
     ewald contribution        =    7217.07992830 Ry

     convergence has been achieved in  15 iterations

     negative rho (up, down):  1.371E-04 0.000E+00

     Forces acting on atoms (cartesian axes, Ry/au):

     atom    1 type  1   force =     0.01192844   -0.02521352    0.00419802
     atom    2 type  2   force =    -0.01744681    0.01963362    0.00677479
     atom    3 type  2   force =    -0.01177480    0.00880821   -0.00286302
     atom    4 type  1   force =     0.00535958   -0.00038096   -0.00153684
     atom    5 type  2   force =    -0.00109479   -0.00575938   -0.00754457
     atom    6 type  2   force =     0.00210311    0.01121106    0.00013076
     atom    7 type  1   force =     0.00421017   -0.01229382   -0.00720836
     atom    8 type  2   force =    -0.00026518   -0.00755184    0.01717053
     atom    9 type  2   force =     0.01284968    0.00568708    0.01124943
     atom   10 type  1   force =    -0.02220856    0.01686442   -0.06941983
     atom   11 type  2   force =     0.00435826   -0.00094150    0.00007548
     atom   12 type  2   force =     0.00065989    0.00064380    0.00601798
     atom   13 type  1   force =     0.00611506    0.01143936   -0.00744529
     atom   14 type  2   force =     0.00642931    0.00022384    0.01247535
     atom   15 type  2   force =    -0.01185380    0.00195176   -0.00854464
     atom   16 type  1   force =    -0.00127995    0.00781139    0.00395491
     atom   17 type  2   force =     0.00579319    0.00137107    0.00248420
     atom   18 type  2   force =    -0.00380157   -0.00655337    0.01320632
     atom   19 type  1   force =     0.00464502   -0.00596700   -0.00568084
     atom   20 type  2   force =     0.00373537   -0.00495673    0.00116619
     atom   21 type  1   force =    -0.00713502    0.00643500   -0.00110924
     atom   22 type  2   force =    -0.00059941   -0.00203076   -0.00270016
     atom   23 type  2   force =    -0.00252996    0.00246045    0.00980824
     atom   24 type  1   force =    -0.00978170   -0.00319060   -0.02340699
     atom   25 type  2   force =     0.02103005    0.02172472    0.00944221
     atom   26 type  2   force =    -0.01202353   -0.00159650   -0.00360083
     atom   27 type  1   force =    -0.00154401   -0.00150656    0.00773325
     atom   28 type  2   force =    -0.00003221   -0.00081043   -0.00523367
     atom   29 type  2   force =     0.00299670   -0.00038096   -0.00207707
     atom   30 type  1   force =    -0.00319784    0.00703706   -0.01103877
     atom   31 type  2   force =     0.00211963   -0.00136236    0.01787492
     atom   32 type  2   force =    -0.01073431    0.00613439    0.00735548
     atom   33 type  1   force =     0.01893499    0.00062032   -0.01535797
     atom   34 type  2   force =    -0.02805714   -0.03879853    0.03871261
     atom   35 type  2   force =    -0.00839718    0.00687713    0.01435079
     atom   36 type  3   force =     0.04048931   -0.01763985   -0.00941338
     The non-local contrib.  to forces
     atom    1 type  1   force =    -0.00010811    0.03525265   -0.01394936
     atom    2 type  2   force =    -0.01433826   -0.00786096   -0.23071229
     atom    3 type  2   force =    -0.01499420   -0.00384929    0.27255291
     atom    4 type  1   force =     0.00024298    0.00513695    0.00481897
     atom    5 type  2   force =     0.00487463   -0.03335001   -0.25348982
     atom    6 type  2   force =    -0.00099628    0.01070194    0.26225392
     atom    7 type  1   force =    -0.02177120   -0.00343331   -0.01632199
     atom    8 type  2   force =     0.00357912   -0.00604431   -0.25363430
     atom    9 type  2   force =     0.00747703   -0.00487706    0.27466589
     atom   10 type  1   force =     0.00129415    0.00176312    0.00215907
     atom   11 type  2   force =     0.03311524    0.01041906   -0.22054614
     atom   12 type  2   force =    -0.01252228   -0.01504444    0.26407002
     atom   13 type  1   force =    -0.00052725    0.02110886   -0.00518148
     atom   14 type  2   force =     0.00941881   -0.01013929   -0.26126883
     atom   15 type  2   force =    -0.01132152   -0.00605309    0.26067739
     atom   16 type  1   force =    -0.00185974    0.03280657   -0.02695064
     atom   17 type  2   force =     0.00065143   -0.02661160   -0.24754128
     atom   18 type  2   force =    -0.00456655   -0.00385272    0.27290917
     atom   19 type  1   force =     0.01725842   -0.00570463   -0.01274216
     atom   20 type  2   force =     0.00054565   -0.02145240    0.26552116
     atom   21 type  1   force =     0.00280231    0.02542796    0.00517343
     atom   22 type  2   force =    -0.00474097    0.00073571   -0.25651765
     atom   23 type  2   force =     0.00597650   -0.01208251    0.26897635
     atom   24 type  1   force =     0.00588442    0.01479524   -0.01313103
     atom   25 type  2   force =     0.01252804    0.00856653   -0.25861992
     atom   26 type  2   force =    -0.00642903   -0.01623374    0.26289310
     atom   27 type  1   force =    -0.00148197    0.00805079    0.00951894
     atom   28 type  2   force =    -0.00386501   -0.02377057   -0.27445673
     atom   29 type  2   force =     0.00686156    0.00098504    0.26409230
     atom   30 type  1   force =    -0.00320278    0.02092339    0.00185063
     atom   31 type  2   force =    -0.00304301    0.00080955   -0.25003982
     atom   32 type  2   force =    -0.00513110   -0.01079540    0.27338440
     atom   33 type  1   force =    -0.01151743    0.00402252    0.00358860
     atom   34 type  2   force =    -0.16453883    0.06573433   -0.10100379
     atom   35 type  2   force =    -0.00267326   -0.01102183    0.27381616
     atom   36 type  3   force =     0.01251756   -0.00536654   -0.01159409
     The ionic contribution  to forces
     atom    1 type  1   force =     0.26204122    0.44842217    5.56624993
     atom    2 type  2   force =    -0.72888732    0.99146670   39.03324081
     atom    3 type  2   force =    -0.16897672    0.07069867  -36.16358670
     atom    4 type  1   force =     0.08156881    0.55464313    0.64158208
     atom    5 type  2   force =    -0.99832823    1.52833229   38.74680273
     atom    6 type  2   force =     0.33419418   -0.48687066  -38.02501689
     atom    7 type  1   force =    -2.77012101   -3.00037596    2.38812967
     atom    8 type  2   force =    -1.00556396   -0.17512641   37.33530022
     atom    9 type  2   force =     0.33773302   -0.07512302  -38.03006534
     atom   10 type  1   force =    -1.20973490   -0.22689404    4.57687591
     atom   11 type  2   force =    -1.07061442   -1.81836403   38.89230488
     atom   12 type  2   force =     0.40296832    0.67534229  -37.93132332
     atom   13 type  1   force =     0.49826135    1.08392611    2.82931090
     atom   14 type  2   force =    -0.03955750    0.08348968   38.49258718
     atom   15 type  2   force =     0.13484165   -0.03607947  -36.82584902
     atom   16 type  1   force =    -0.05691042    3.93445496    0.49355211
     atom   17 type  2   force =     0.81668238    1.51738146   37.93981544
     atom   18 type  2   force =    -0.15914074   -0.63751511  -38.55415321
     atom   19 type  1   force =     2.73665041   -2.53930160    0.61371230
     atom   20 type  2   force =     0.21660630   -0.21952591  -38.47996942
     atom   21 type  1   force =    -0.15359322    0.07009489    1.00231166
     atom   22 type  2   force =     0.48068521   -1.74695097   38.40925174
     atom   23 type  2   force =    -0.08052371    0.65743863  -38.31068207
     atom   24 type  1   force =    -0.43549362    1.40091970    5.67107595
     atom   25 type  2   force =     0.80321188    0.40756127   39.22808205
     atom   26 type  2   force =    -0.26139185    0.09543875  -37.36059900
     atom   27 type  1   force =     0.06768131    0.39027770   -2.24888916
     atom   28 type  2   force =     0.07764469    1.04824234   38.20280500
     atom   29 type  2   force =    -0.25637192   -0.41275234  -37.26827419
     atom   30 type  1   force =    -0.20294446   -1.17766279   -0.27005495
     atom   31 type  2   force =     1.28522838   -0.13837468   37.31508929
     atom   32 type  2   force =    -0.46517665   -0.03078619  -38.64061390
     atom   33 type  1   force =     1.06187621   -0.82517849    1.82959407
     atom   34 type  2   force =     1.05089544   -1.82283361   38.80088767
     atom   35 type  2   force =    -0.26586945    0.45801505  -37.90691878
     atom   36 type  3   force =    -0.31957067   -0.04643050    8.00743433
     The local contribution  to forces
     atom    1 type  1   force =    -0.24999317   -0.50871415   -5.54813977
     atom    2 type  2   force =     0.72541502   -0.96462635  -38.81498798
     atom    3 type  2   force =     0.17153154   -0.05808515   35.90983513
     atom    4 type  1   force =    -0.07665797   -0.56025155   -0.64791475
     atom    5 type  2   force =     0.99293277   -1.50263800  -38.52189589
     atom    6 type  2   force =    -0.33139059    0.48855528   37.78441800
     atom    7 type  1   force =     2.79628131    2.99164952   -2.37917857
     atom    8 type  2   force =     1.00187485    0.17304706  -37.08540528
     atom    9 type  2   force =    -0.33225637    0.08530729   37.78809746
     atom   10 type  1   force =     1.18629823    0.24202454   -4.64857099
     atom   11 type  2   force =     1.04373209    1.80793859  -38.69085235
     atom   12 type  2   force =    -0.39092331   -0.66102428   37.69480010
     atom   13 type  1   force =    -0.49168213   -1.09348449   -2.83158584
     atom   14 type  2   force =     0.03712288   -0.07310953  -38.23996190
     atom   15 type  2   force =    -0.13598131    0.04377878   36.57781392
     atom   16 type  1   force =     0.05751592   -3.95990070   -0.46276864
     atom   17 type  2   force =    -0.81159586   -1.49077941  -37.71055219
     atom   18 type  2   force =     0.15985438    0.63535524   38.31608330
     atom   19 type  1   force =    -2.74941917    2.53906900   -0.60682793
     atom   20 type  2   force =    -0.21351856    0.23514309   38.23736512
     atom   21 type  1   force =     0.14373618   -0.08927293   -1.00847972
     atom   22 type  2   force =    -0.47664726    1.74457817  -38.17642559
     atom   23 type  2   force =     0.07248739   -0.64405514   38.07308850
     atom   24 type  1   force =     0.41980629   -1.41893671   -5.68129652
     atom   25 type  2   force =    -0.79456785   -0.39388176  -38.98119843
     atom   26 type  2   force =     0.25574873   -0.08165164   37.11559703
     atom   27 type  1   force =    -0.06758223   -0.39984304    2.24714299
     atom   28 type  2   force =    -0.07410659   -1.02709836  -37.95507173
     atom   29 type  2   force =     0.25310020    0.41196300   37.02333142
     atom   30 type  1   force =     0.20292763    1.16371783    0.25713564
     atom   31 type  2   force =    -1.28038824    0.13612896  -37.06809908
     atom   32 type  2   force =     0.45961304    0.04702687   38.39619908
     atom   33 type  1   force =    -1.03148976    0.82194010   -1.84858593
     atom   34 type  2   force =    -0.92437853    1.72287222  -38.67317816
     atom   35 type  2   force =     0.26022429   -0.44112764   37.66934589
     atom   36 type  3   force =     0.34753148    0.03416368   -8.00530126
     The core correction contribution to forces
     atom    1 type  1   force =     0.00000000    0.00000000    0.00000000
     atom    2 type  2   force =     0.00038604    0.00071389    0.01860542
     atom    3 type  2   force =     0.00068022    0.00005961   -0.02100023
     atom    4 type  1   force =     0.00000000    0.00000000    0.00000000
     atom    5 type  2   force =    -0.00057010    0.00188036    0.02038070
     atom    6 type  2   force =     0.00022523   -0.00108058   -0.02084047
     atom    7 type  1   force =     0.00000000    0.00000000    0.00000000
     atom    8 type  2   force =    -0.00012365    0.00051177    0.02033116
     atom    9 type  2   force =    -0.00013588    0.00033275   -0.02087362
     atom   10 type  1   force =     0.00000000    0.00000000    0.00000000
     atom   11 type  2   force =    -0.00186981   -0.00089818    0.01853819
     atom   12 type  2   force =     0.00116880    0.00131669   -0.02088370
     atom   13 type  1   force =     0.00000000    0.00000000    0.00000000
     atom   14 type  2   force =    -0.00053129    0.00004901    0.02056627
     atom   15 type  2   force =     0.00061701    0.00040082   -0.02054861
     atom   16 type  1   force =     0.00000000    0.00000000    0.00000000
     atom   17 type  2   force =     0.00007610    0.00140390    0.02011812
     atom   18 type  2   force =     0.00011488   -0.00043565   -0.02097637
     atom   19 type  1   force =     0.00000000    0.00000000    0.00000000
     atom   20 type  2   force =     0.00009101    0.00077744   -0.02118793
     atom   21 type  1   force =     0.00000000    0.00000000    0.00000000
     atom   22 type  2   force =     0.00011611   -0.00035044    0.02038872
     atom   23 type  2   force =    -0.00050212    0.00109118   -0.02094989
     atom   24 type  1   force =     0.00000000    0.00000000    0.00000000
     atom   25 type  2   force =    -0.00018884   -0.00048390    0.02055768
     atom   26 type  2   force =     0.00004402    0.00087061   -0.02081898
     atom   27 type  1   force =     0.00000000    0.00000000    0.00000000
     atom   28 type  2   force =     0.00028247    0.00176430    0.02093638
     atom   29 type  2   force =    -0.00057959   -0.00052677   -0.02061907
     atom   30 type  1   force =     0.00000000    0.00000000    0.00000000
     atom   31 type  2   force =     0.00028072   -0.00001036    0.02034012
     atom   32 type  2   force =     0.00000353    0.00063422   -0.02102265
     atom   33 type  1   force =     0.00000000    0.00000000    0.00000000
     atom   34 type  2   force =     0.00993757   -0.00452914    0.01137183
     atom   35 type  2   force =    -0.00008660    0.00099483   -0.02123313
     atom   36 type  3   force =     0.00000000    0.00000000    0.00000000
     The Hubbard contrib.    to forces
     atom    1 type  1   force =     0.00000000    0.00000000    0.00000000
     atom    2 type  2   force =     0.00000000    0.00000000    0.00000000
     atom    3 type  2   force =     0.00000000    0.00000000    0.00000000
     atom    4 type  1   force =     0.00000000    0.00000000    0.00000000
     atom    5 type  2   force =     0.00000000    0.00000000    0.00000000
     atom    6 type  2   force =     0.00000000    0.00000000    0.00000000
     atom    7 type  1   force =     0.00000000    0.00000000    0.00000000
     atom    8 type  2   force =     0.00000000    0.00000000    0.00000000
     atom    9 type  2   force =     0.00000000    0.00000000    0.00000000
     atom   10 type  1   force =     0.00000000    0.00000000    0.00000000
     atom   11 type  2   force =     0.00000000    0.00000000    0.00000000
     atom   12 type  2   force =     0.00000000    0.00000000    0.00000000
     atom   13 type  1   force =     0.00000000    0.00000000    0.00000000
     atom   14 type  2   force =     0.00000000    0.00000000    0.00000000
     atom   15 type  2   force =     0.00000000    0.00000000    0.00000000
     atom   16 type  1   force =     0.00000000    0.00000000    0.00000000
     atom   17 type  2   force =     0.00000000    0.00000000    0.00000000
     atom   18 type  2   force =     0.00000000    0.00000000    0.00000000
     atom   19 type  1   force =     0.00000000    0.00000000    0.00000000
     atom   20 type  2   force =     0.00000000    0.00000000    0.00000000
     atom   21 type  1   force =     0.00000000    0.00000000    0.00000000
     atom   22 type  2   force =     0.00000000    0.00000000    0.00000000
     atom   23 type  2   force =     0.00000000    0.00000000    0.00000000
     atom   24 type  1   force =     0.00000000    0.00000000    0.00000000
     atom   25 type  2   force =     0.00000000    0.00000000    0.00000000
     atom   26 type  2   force =     0.00000000    0.00000000    0.00000000
     atom   27 type  1   force =     0.00000000    0.00000000    0.00000000
     atom   28 type  2   force =     0.00000000    0.00000000    0.00000000
     atom   29 type  2   force =     0.00000000    0.00000000    0.00000000
     atom   30 type  1   force =     0.00000000    0.00000000    0.00000000
     atom   31 type  2   force =     0.00000000    0.00000000    0.00000000
     atom   32 type  2   force =     0.00000000    0.00000000    0.00000000
     atom   33 type  1   force =     0.00000000    0.00000000    0.00000000
     atom   34 type  2   force =     0.00000000    0.00000000    0.00000000
     atom   35 type  2   force =     0.00000000    0.00000000    0.00000000
     atom   36 type  3   force =     0.00000000    0.00000000    0.00000000
     The SCF correction term to forces
     atom    1 type  1   force =    -0.00001130   -0.00017712    0.00003938
     atom    2 type  2   force =    -0.00002210   -0.00006259    0.00063097
     atom    3 type  2   force =    -0.00001544   -0.00001857   -0.00066198
     atom    4 type  1   force =     0.00020594    0.00008758   -0.00002100
     atom    5 type  2   force =    -0.00000367    0.00001305    0.00065985
     atom    6 type  2   force =     0.00007076   -0.00009785   -0.00068166
     atom    7 type  1   force =    -0.00017874   -0.00013698    0.00016468
     atom    8 type  2   force =    -0.00003135    0.00005712    0.00058087
     atom    9 type  2   force =     0.00003207    0.00004418   -0.00057281
     atom   10 type  1   force =    -0.00006585   -0.00003213    0.00011832
     atom   11 type  2   force =    -0.00000465   -0.00003986    0.00063303
     atom   12 type  2   force =    -0.00003145    0.00005062   -0.00064298
     atom   13 type  1   force =     0.00006328   -0.00011404    0.00001327
     atom   14 type  2   force =    -0.00002339   -0.00006897    0.00055477
     atom   15 type  2   force =    -0.00000944   -0.00009821   -0.00063619
     atom   16 type  1   force =    -0.00002552    0.00044764    0.00012422
     atom   17 type  2   force =    -0.00002067   -0.00002621    0.00064626
     atom   18 type  2   force =    -0.00006335   -0.00010806   -0.00065443
     atom   19 type  1   force =     0.00015555   -0.00003269    0.00017909
     atom   20 type  2   force =     0.00001115    0.00009812   -0.00056060
     atom   21 type  1   force =    -0.00008010    0.00018216   -0.00011248
     atom   22 type  2   force =    -0.00001231   -0.00004616    0.00060476
     atom   23 type  2   force =     0.00003217    0.00006537   -0.00062251
     atom   24 type  1   force =     0.00002141    0.00002825   -0.00005325
     atom   25 type  2   force =     0.00004702   -0.00004035    0.00062297
     atom   26 type  2   force =     0.00000480   -0.00002340   -0.00067084
     atom   27 type  1   force =    -0.00016094    0.00000506   -0.00003736
     atom   28 type  2   force =     0.00001242    0.00004893    0.00055554
     atom   29 type  2   force =    -0.00001336   -0.00005282   -0.00060539
     atom   30 type  1   force =     0.00002196    0.00005570    0.00003205
     atom   31 type  2   force =     0.00004196    0.00008123    0.00058654
     atom   32 type  2   force =    -0.00004294    0.00005195   -0.00058931
     atom   33 type  1   force =     0.00006616   -0.00016674    0.00004743
     atom   34 type  2   force =     0.00002741   -0.00004525    0.00063720
     atom   35 type  2   force =     0.00000802    0.00001380   -0.00065721
     atom   36 type  3   force =     0.00001112   -0.00000941    0.00004978

     Total force =     0.138847     Total SCF correction =     0.003097

     BFGS Geometry Optimization
     Energy error            =      0.0E+00 Ry
     Gradient error          =      6.9E-02 Ry/Bohr

     number of scf cycles    =   1
     number of bfgs steps    =   0

     energy             new  =   -2205.4917129245 Ry

     new trust radius        =       0.0748113752 bohr
     new conv_thr            =       0.0000010000 Ry


ATOMIC_POSITIONS (angstrom)
Mo            6.5808606678        1.7744638079        2.8258645303
S             8.1674768871        0.8200936862        4.4381234159
S             8.1870021320        0.8159028472        1.2763683836
Mo            8.0979987327        4.4948553517        2.7170051351
S             6.4993299204        3.7193637572        4.3426682334
S             6.5544627173        3.5176701911        1.1213494218
Mo            6.4922096245        7.2119316771        2.6680699869
S             8.0815873993        6.3398747325        4.2515478182
S             8.0877174024        6.3077117891        1.0898159425
Mo            8.1488667829        9.9111046783        2.8067263681
S             6.4974738863        8.9424285944        4.3831454755
S             6.6182963961        9.0490518969        1.1430918808
Mo            3.4248956145        1.7530092993        2.7725312830
S             4.9785677372        0.8170596599        4.3571347659
S             5.0515609952        0.8472949348        1.2221368327
Mo            4.9790793588        4.5173116107        2.6349773949
S             3.4309072872        3.6723252259        4.2810241622
S             3.4359088785        3.5447608037        1.0653401647
Mo            3.4563197802        7.2131669396        2.6276706918
S             4.9852108632        6.3243092991        1.0378708523
Mo            5.0084882281        9.9050053088        2.7428139743
S             3.4706409240        8.9426766354        4.3241624510
S             3.4070903674        9.0662919991        1.1012585948
Mo            0.2909142358        1.7458211387        2.8370582612
S             1.8615908352        0.8041902319        4.4032060402
S             1.8544374589        0.8535810872        1.2074953793
Mo            1.8598742525        4.4948695242        2.6642896419
S             0.2721968024        3.6539699648        4.3348145584
S             0.2328169944        3.5270476312        1.1709187446
Mo            0.2694599271        7.2203699436        2.6958549646
S             1.9033599086        6.3120779027        4.2319031209
S             1.8565578619        6.3135899920        1.0484516345
Mo            1.8543666291        9.9404674122        2.7648191641
S             0.2810657001        9.0694665299        4.4343552952
S             0.2723278040        9.0471649336        1.1579948914
H             8.4274349079        9.7052431703        5.3444633634



     Writing config-only to output data dir ./MoS2-V-O.save/
     NEW-OLD atomic charge density approx. for the potential

     negative rho (up, down):  1.435E-04 0.000E+00

     total cpu time spent up to now is       86.2 secs

     Self-consistent Calculation

     iteration #  1     ecut=    80.00 Ry     beta= 0.70
     Davidson diagonalization with overlap
     c_bands:  1 eigenvalues not converged
     ethr =  1.00E-06,  avg # of iterations = 20.0

     negative rho (up, down):  1.354E-04 0.000E+00

     total cpu time spent up to now is       99.0 secs

     total energy              =   -2205.50708933 Ry
     estimated scf accuracy    <       0.00153353 Ry

     iteration #  2     ecut=    80.00 Ry     beta= 0.70
     Davidson diagonalization with overlap
     ethr =  5.00E-07,  avg # of iterations =  2.0

     negative rho (up, down):  1.460E-04 0.000E+00

     total cpu time spent up to now is      118.1 secs

     total energy              =   -2205.50708763 Ry
     estimated scf accuracy    <       0.00033644 Ry

     iteration #  3     ecut=    80.00 Ry     beta= 0.70
     Davidson diagonalization with overlap
     ethr =  1.10E-07,  avg # of iterations =  3.0

     negative rho (up, down):  1.501E-04 0.000E+00

     total cpu time spent up to now is      130.4 secs

     total energy              =   -2205.50713906 Ry
     estimated scf accuracy    <       0.00002323 Ry

     iteration #  4     ecut=    80.00 Ry     beta= 0.70
     Davidson diagonalization with overlap
     ethr =  7.57E-09,  avg # of iterations =  9.0

     negative rho (up, down):  1.448E-04 0.000E+00

     total cpu time spent up to now is      149.5 secs

     total energy              =   -2205.50714936 Ry
     estimated scf accuracy    <       0.00000741 Ry

     iteration #  5     ecut=    80.00 Ry     beta= 0.70
     Davidson diagonalization with overlap
     ethr =  2.41E-09,  avg # of iterations =  2.0

     negative rho (up, down):  1.380E-04 0.000E+00

     total cpu time spent up to now is      163.8 secs

     total energy              =   -2205.50715031 Ry
     estimated scf accuracy    <       0.00000127 Ry

     iteration #  6     ecut=    80.00 Ry     beta= 0.70
     Davidson diagonalization with overlap
     ethr =  4.13E-10,  avg # of iterations =  6.0

     negative rho (up, down):  1.374E-04 0.000E+00

     total cpu time spent up to now is      166.1 secs

     End of self-consistent calculation

          k = 0.0000 0.0000 0.0000 (105382 PWs)   bands (ev):

   -62.8924 -62.8697 -62.8568 -62.8509 -62.8339 -62.8319 -62.8046 -62.8002
   -62.7888 -62.7829 -62.7630 -62.7258 -37.2289 -37.1609 -37.1428 -37.1375
   -37.1314 -37.1040 -37.0902 -37.0732 -37.0689 -37.0629 -37.0570 -37.0375
   -37.0330 -37.0299 -37.0231 -37.0139 -37.0049 -37.0014 -36.9873 -36.9781
   -36.9726 -36.9635 -36.9444 -36.9275 -36.9169 -36.9119 -36.9050 -36.9003
   -36.8920 -36.8772 -36.8672 -36.8448 -36.8378 -36.8026 -36.7318 -36.7185
   -16.0310 -15.3187 -15.1260 -15.0332 -14.9662 -14.8398 -14.6158 -14.4892
   -14.4643 -14.4333 -14.4079 -14.3601 -14.3429 -14.2828 -14.1823 -14.1403
   -14.1228 -14.1062 -14.0191 -13.9428 -13.8506 -13.8236 -13.8020  -8.1658
    -7.6569  -7.4460  -7.3089  -7.2661  -7.2332  -7.1911  -7.1334  -7.0469
    -6.8262  -6.8209  -6.7603  -6.7174  -6.6058  -6.5163  -6.4899  -6.4353
    -6.2876  -6.2457  -6.0764  -5.9311  -5.9132  -5.8917  -5.8210  -5.8134
    -5.7603  -5.7323  -5.7152  -5.6583  -5.6121  -5.5773  -5.5193  -5.4502
    -5.4005  -5.3851  -5.2140  -5.1497  -5.1112  -5.0525  -4.9863  -4.9516
    -4.9158  -4.8340  -4.6482  -4.5167  -4.3316  -4.3182  -4.2773  -4.2521
    -4.1973  -4.1326  -4.0618  -3.8876  -3.8050  -3.7601  -3.7239  -3.6995
    -3.6755  -3.5910  -3.5500  -3.5061  -3.4878  -3.4749  -3.4412  -3.3783
    -3.3600  -3.2278  -3.1469  -2.9052  -2.8707  -2.8088  -2.7771  -2.7427
    -2.7012  -2.6692  -2.6579  -2.6271  -2.5707  -2.2706  -2.0132  -2.0012
    -1.9688  -0.9152  -0.7892  -0.7072  -0.1757  -0.1582  -0.0829  -0.0416
     0.0795   0.1207   0.1521   0.2215   0.2540   0.3089   0.3751   0.4247
     0.4870   0.5282   0.5436   0.5861   0.6057   0.6490   0.6909   0.7428
     0.7715   0.7925   0.8735   0.8885   0.9639   0.9977   1.0389   1.1836
     1.3280

     the Fermi energy is    -0.9336 ev

!    total energy              =   -2205.50715012 Ry
     estimated scf accuracy    <       0.00000071 Ry
     smearing contrib. (-TS)   =      -0.00772091 Ry
     internal energy E=F+TS    =   -2205.49942921 Ry

     The total energy is F=E-TS. E is the sum of the following terms:
     one-electron contribution =  -18045.54791353 Ry
     hartree contribution      =    9009.49919631 Ry
     xc contribution           =    -385.23212236 Ry
     ewald contribution        =    7215.78141037 Ry

     convergence has been achieved in   6 iterations

     negative rho (up, down):  1.374E-04 0.000E+00

     Forces acting on atoms (cartesian axes, Ry/au):

     atom    1 type  1   force =     0.00242819   -0.01241216    0.00029244
     atom    2 type  2   force =    -0.01149875    0.01110353   -0.00132522
     atom    3 type  2   force =    -0.01104259    0.01099113   -0.01394881
     atom    4 type  1   force =     0.00445098    0.00077779    0.00041853
     atom    5 type  2   force =     0.00023370   -0.00648666   -0.00713320
     atom    6 type  2   force =     0.00147706    0.00725942    0.00204667
     atom    7 type  1   force =     0.00420270   -0.00841073    0.00016441
     atom    8 type  2   force =     0.00034243   -0.00676895    0.01105484
     atom    9 type  2   force =     0.01120278    0.00403705    0.00643200
     atom   10 type  1   force =    -0.01015293    0.01169241   -0.02575591
     atom   11 type  2   force =     0.00453323    0.00043316   -0.00827680
     atom   12 type  2   force =    -0.00470124   -0.00130079   -0.00238530
     atom   13 type  1   force =     0.00452665    0.00678815   -0.00292047
     atom   14 type  2   force =     0.00437067    0.00020089    0.00826144
     atom   15 type  2   force =    -0.00871908    0.00194530   -0.00750302
     atom   16 type  1   force =    -0.00035698    0.00575701    0.00308132
     atom   17 type  2   force =     0.00506982    0.00176819    0.00312943
     atom   18 type  2   force =    -0.00264093   -0.00339355    0.01006159
     atom   19 type  1   force =     0.00184398   -0.00457341   -0.00004238
     atom   20 type  2   force =     0.00340820   -0.00459130   -0.00215252
     atom   21 type  1   force =    -0.00480093    0.00309600    0.00331221
     atom   22 type  2   force =    -0.00060979   -0.00168021   -0.00411462
     atom   23 type  2   force =    -0.00086271    0.00113269    0.00400707
     atom   24 type  1   force =    -0.00551030   -0.00313360   -0.00852666
     atom   25 type  2   force =     0.01498364    0.01663544    0.00073264
     atom   26 type  2   force =    -0.00713928   -0.00058615   -0.00513577
     atom   27 type  1   force =    -0.00083302    0.00015374    0.00711687
     atom   28 type  2   force =    -0.00061210   -0.00274236   -0.00560969
     atom   29 type  2   force =     0.00267652    0.00097790   -0.00366987
     atom   30 type  1   force =    -0.00333435   -0.00048773    0.00119971
     atom   31 type  2   force =     0.00131738    0.00019365    0.01129025
     atom   32 type  2   force =    -0.00890200    0.00452326    0.00528043
     atom   33 type  1   force =     0.00569713    0.00072154    0.00238377
     atom   34 type  2   force =    -0.03218630   -0.01936946    0.02511552
     atom   35 type  2   force =    -0.00437820    0.00724058    0.00567898
     atom   36 type  3   force =     0.04551641   -0.02149177   -0.01255988
     The non-local contrib.  to forces
     atom    1 type  1   force =     0.00164809    0.03120457   -0.01487732
     atom    2 type  2   force =    -0.01214772   -0.00923283   -0.23404605
     atom    3 type  2   force =    -0.01333654   -0.00435226    0.26467466
     atom    4 type  1   force =     0.00125002    0.00624587    0.00401452
     atom    5 type  2   force =     0.00573040   -0.03436539   -0.25437623
     atom    6 type  2   force =    -0.00137827    0.00718298    0.26484642
     atom    7 type  1   force =    -0.02079752   -0.00405419   -0.01835410
     atom    8 type  2   force =     0.00370715   -0.00534897   -0.25807243
     atom    9 type  2   force =     0.00622860   -0.00574980    0.27248706
     atom   10 type  1   force =    -0.00103885    0.00265089    0.00253131
     atom   11 type  2   force =     0.02654703    0.00927917   -0.22710033
     atom   12 type  2   force =    -0.01555054   -0.01596334    0.26045702
     atom   13 type  1   force =     0.00037322    0.02264365   -0.00559209
     atom   14 type  2   force =     0.00790307   -0.00981533   -0.26360677
     atom   15 type  2   force =    -0.00908373   -0.00648344    0.26094548
     atom   16 type  1   force =    -0.00218420    0.03345304   -0.02858650
     atom   17 type  2   force =     0.00006632   -0.02523272   -0.24721624
     atom   18 type  2   force =    -0.00359888   -0.00140120    0.27139463
     atom   19 type  1   force =     0.01817799   -0.00510661   -0.01406095
     atom   20 type  2   force =    -0.00000499   -0.02036211    0.26379035
     atom   21 type  1   force =     0.00186068    0.02672758    0.00364097
     atom   22 type  2   force =    -0.00291516   -0.00011649   -0.25743346
     atom   23 type  2   force =     0.00721021   -0.01326274    0.26596276
     atom   24 type  1   force =     0.00397958    0.01480776   -0.01282869
     atom   25 type  2   force =     0.00826229    0.00548851   -0.26357066
     atom   26 type  2   force =    -0.00247931   -0.01510480    0.26271560
     atom   27 type  1   force =    -0.00187185    0.00712966    0.00843621
     atom   28 type  2   force =    -0.00385251   -0.02406130   -0.27527658
     atom   29 type  2   force =     0.00637399    0.00066121    0.26394490
     atom   30 type  1   force =    -0.00422478    0.02206521   -0.00087300
     atom   31 type  2   force =    -0.00250027    0.00095821   -0.25432805
     atom   32 type  2   force =    -0.00295720   -0.01156279    0.27294658
     atom   33 type  1   force =    -0.00874411    0.00384254    0.00056709
     atom   34 type  2   force =    -0.18720080    0.08833009   -0.10463667
     atom   35 type  2   force =    -0.00114805   -0.01012330    0.26959330
     atom   36 type  3   force =     0.01468802   -0.00682182   -0.01257726
     The ionic contribution  to forces
     atom    1 type  1   force =     0.01188913    0.79097447    5.71460081
     atom    2 type  2   force =    -0.50895514    0.76054321   39.12463247
     atom    3 type  2   force =    -0.12991961    0.20426526  -36.31320148
     atom    4 type  1   force =     0.02802713    0.54338615    0.69993273
     atom    5 type  2   force =    -0.99091880    1.50989255   38.66982095
     atom    6 type  2   force =     0.28360212   -0.52003390  -37.93614254
     atom    7 type  1   force =    -2.76467482   -2.84313795    2.42281439
     atom    8 type  2   force =    -0.98648432   -0.12002716   37.42998215
     atom    9 type  2   force =     0.32351239   -0.11900970  -37.98985403
     atom   10 type  1   force =    -0.71060626   -0.38592112    3.49396159
     atom   11 type  2   force =    -0.95986529   -1.79679315   38.84263346
     atom   12 type  2   force =     0.22589975    0.53709277  -37.94041104
     atom   13 type  1   force =     0.42717898    0.97637593    2.77528069
     atom   14 type  2   force =    -0.11167283    0.08421830   38.58618090
     atom   15 type  2   force =     0.12391504    0.01813369  -36.87051473
     atom   16 type  1   force =     0.00491744    3.81310056    0.65000899
     atom   17 type  2   force =     0.80691310    1.49877809   37.98596992
     atom   18 type  2   force =    -0.14598534   -0.57051950  -38.49674603
     atom   19 type  1   force =     2.62994415   -2.49541470    0.58863610
     atom   20 type  2   force =     0.18879632   -0.21987639  -38.51544956
     atom   21 type  1   force =    -0.17198147   -0.05642498    1.19689962
     atom   22 type  2   force =     0.42335895   -1.75396030   38.41942517
     atom   23 type  2   force =    -0.05645478    0.59013390  -38.28518716
     atom   24 type  1   force =    -0.20347673    1.20207461    5.43923239
     atom   25 type  2   force =     0.64202960    0.30262565   39.19393234
     atom   26 type  2   force =    -0.20741075    0.10702844  -37.32096820
     atom   27 type  1   force =     0.06513020    0.48177676   -1.96826506
     atom   28 type  2   force =     0.08295087    0.96617534   38.19654595
     atom   29 type  2   force =    -0.22564540   -0.34433613  -37.28798755
     atom   30 type  1   force =    -0.09766735   -1.06776086   -0.24505108
     atom   31 type  2   force =     1.25597133   -0.06374832   37.37164929
     atom   32 type  2   force =    -0.42503690   -0.06700736  -38.57528906
     atom   33 type  1   force =     0.61790398   -0.78589092    2.00634413
     atom   34 type  2   force =     1.02650039   -1.59055607   38.73988675
     atom   35 type  2   force =    -0.12691411    0.42295318  -37.78084067
     atom   36 type  3   force =    -0.34477097   -0.00911035    7.97753740
     The local contribution  to forces
     atom    1 type  1   force =    -0.01099427   -0.83498892   -5.70019924
     atom    2 type  2   force =     0.50896951   -0.74043067  -38.91109398
     atom    3 type  2   force =     0.13147629   -0.18922522   36.05508797
     atom    4 type  1   force =    -0.02498161   -0.54896547   -0.70429912
     atom    5 type  2   force =     0.98594392   -1.48393794  -38.44319412
     atom    6 type  2   force =    -0.28099210    0.52103086   37.69387192
     atom    7 type  1   force =     2.78934429    2.83871115   -2.40525723
     atom    8 type  2   force =     0.98312386    0.11798849  -37.18160437
     atom    9 type  2   force =    -0.31851267    0.12854408   37.74430927
     atom   10 type  1   force =     0.70075899    0.39535645   -3.52420594
     atom   11 type  2   force =     0.93900126    1.78873857  -38.64290449
     atom   12 type  2   force =    -0.21614535   -0.52351498   37.69799645
     atom   13 type  1   force =    -0.42283976   -0.99220500   -2.77339212
     atom   14 type  2   force =     0.10870685   -0.07425558  -38.33526513
     atom   15 type  2   force =    -0.12403186   -0.01025232   36.62228442
     atom   16 type  1   force =    -0.00314715   -3.84067453   -0.61903147
     atom   17 type  2   force =    -0.80194033   -1.47309213  -37.75599562
     atom   18 type  2   force =     0.14695164    0.56896204   38.25612825
     atom   19 type  1   force =    -2.64599307    2.49595966   -0.57541314
     atom   20 type  2   force =    -0.18549173    0.23493636   38.27043923
     atom   21 type  1   force =     0.16535366    0.03293356   -1.19824166
     atom   22 type  2   force =    -0.42091169    1.75272936  -38.18685072
     atom   23 type  2   force =     0.04897898   -0.57679883   38.04378353
     atom   24 type  1   force =     0.19376741   -1.21991664   -5.43598737
     atom   25 type  2   force =    -0.63505865   -0.29091168  -38.95044148
     atom   26 type  2   force =     0.20282371   -0.09335034   37.07347196
     atom   27 type  1   force =    -0.06388423   -0.48887705    1.96624239
     atom   28 type  2   force =    -0.07996930   -0.94657326  -37.94809492
     atom   29 type  2   force =     0.22244696    0.34498246   37.04066901
     atom   30 type  1   force =     0.09852530    1.04492025    0.24586386
     atom   31 type  2   force =    -1.25221618    0.06286442  -37.12669012
     atom   32 type  2   force =     0.41923588    0.08256641   38.32829819
     atom   33 type  1   force =    -0.60278706    0.78290856   -2.00598147
     atom   34 type  2   force =    -0.88255279    1.48831483  -38.62116091
     atom   35 type  2   force =     0.12362201   -0.40645536   37.53748232
     atom   36 type  3   force =     0.37558110   -0.00555723   -7.97754567
     The core correction contribution to forces
     atom    1 type  1   force =     0.00000000    0.00000000    0.00000000
     atom    2 type  2   force =     0.00042049    0.00058288    0.01876392
     atom    3 type  2   force =     0.00061174    0.00022553   -0.02083178
     atom    4 type  1   force =     0.00000000    0.00000000    0.00000000
     atom    5 type  2   force =    -0.00060788    0.00189605    0.02037004
     atom    6 type  2   force =     0.00021176   -0.00095351   -0.02087604
     atom    7 type  1   force =     0.00000000    0.00000000    0.00000000
     atom    8 type  2   force =    -0.00010388    0.00049553    0.02048287
     atom    9 type  2   force =    -0.00007072    0.00032638   -0.02085552
     atom   10 type  1   force =     0.00000000    0.00000000    0.00000000
     atom   11 type  2   force =    -0.00144910   -0.00081789    0.01874105
     atom   12 type  2   force =     0.00112398    0.00124752   -0.02080186
     atom   13 type  1   force =     0.00000000    0.00000000    0.00000000
     atom   14 type  2   force =    -0.00051743    0.00005021    0.02065764
     atom   15 type  2   force =     0.00053966    0.00044916   -0.02056297
     atom   16 type  1   force =     0.00000000    0.00000000    0.00000000
     atom   17 type  2   force =     0.00010482    0.00132117    0.02011967
     atom   18 type  2   force =     0.00006676   -0.00049519   -0.02096243
     atom   19 type  1   force =     0.00000000    0.00000000    0.00000000
     atom   20 type  2   force =     0.00011289    0.00072722   -0.02116296
     atom   21 type  1   force =     0.00000000    0.00000000    0.00000000
     atom   22 type  2   force =     0.00001552   -0.00034386    0.02045290
     atom   23 type  2   force =    -0.00050921    0.00110078   -0.02089889
     atom   24 type  1   force =     0.00000000    0.00000000    0.00000000
     atom   25 type  2   force =    -0.00006267   -0.00038589    0.02066914
     atom   26 type  2   force =    -0.00009891    0.00083371   -0.02080905
     atom   27 type  1   force =     0.00000000    0.00000000    0.00000000
     atom   28 type  2   force =     0.00027738    0.00169556    0.02098792
     atom   29 type  2   force =    -0.00053143   -0.00045709   -0.02063683
     atom   30 type  1   force =     0.00000000    0.00000000    0.00000000
     atom   31 type  2   force =     0.00022476    0.00003519    0.02044063
     atom   32 type  2   force =    -0.00009067    0.00061380   -0.02101466
     atom   33 type  1   force =     0.00000000    0.00000000    0.00000000
     atom   34 type  2   force =     0.01121143   -0.00561982    0.01094789
     atom   35 type  2   force =    -0.00005155    0.00092885   -0.02112230
     atom   36 type  3   force =     0.00000000    0.00000000    0.00000000
     The Hubbard contrib.    to forces
     atom    1 type  1   force =     0.00000000    0.00000000    0.00000000
     atom    2 type  2   force =     0.00000000    0.00000000    0.00000000
     atom    3 type  2   force =     0.00000000    0.00000000    0.00000000
     atom    4 type  1   force =     0.00000000    0.00000000    0.00000000
     atom    5 type  2   force =     0.00000000    0.00000000    0.00000000
     atom    6 type  2   force =     0.00000000    0.00000000    0.00000000
     atom    7 type  1   force =     0.00000000    0.00000000    0.00000000
     atom    8 type  2   force =     0.00000000    0.00000000    0.00000000
     atom    9 type  2   force =     0.00000000    0.00000000    0.00000000
     atom   10 type  1   force =     0.00000000    0.00000000    0.00000000
     atom   11 type  2   force =     0.00000000    0.00000000    0.00000000
     atom   12 type  2   force =     0.00000000    0.00000000    0.00000000
     atom   13 type  1   force =     0.00000000    0.00000000    0.00000000
     atom   14 type  2   force =     0.00000000    0.00000000    0.00000000
     atom   15 type  2   force =     0.00000000    0.00000000    0.00000000
     atom   16 type  1   force =     0.00000000    0.00000000    0.00000000
     atom   17 type  2   force =     0.00000000    0.00000000    0.00000000
     atom   18 type  2   force =     0.00000000    0.00000000    0.00000000
     atom   19 type  1   force =     0.00000000    0.00000000    0.00000000
     atom   20 type  2   force =     0.00000000    0.00000000    0.00000000
     atom   21 type  1   force =     0.00000000    0.00000000    0.00000000
     atom   22 type  2   force =     0.00000000    0.00000000    0.00000000
     atom   23 type  2   force =     0.00000000    0.00000000    0.00000000
     atom   24 type  1   force =     0.00000000    0.00000000    0.00000000
     atom   25 type  2   force =     0.00000000    0.00000000    0.00000000
     atom   26 type  2   force =     0.00000000    0.00000000    0.00000000
     atom   27 type  1   force =     0.00000000    0.00000000    0.00000000
     atom   28 type  2   force =     0.00000000    0.00000000    0.00000000
     atom   29 type  2   force =     0.00000000    0.00000000    0.00000000
     atom   30 type  1   force =     0.00000000    0.00000000    0.00000000
     atom   31 type  2   force =     0.00000000    0.00000000    0.00000000
     atom   32 type  2   force =     0.00000000    0.00000000    0.00000000
     atom   33 type  1   force =     0.00000000    0.00000000    0.00000000
     atom   34 type  2   force =     0.00000000    0.00000000    0.00000000
     atom   35 type  2   force =     0.00000000    0.00000000    0.00000000
     atom   36 type  3   force =     0.00000000    0.00000000    0.00000000
     The SCF correction term to forces
     atom    1 type  1   force =    -0.00011392    0.00039574    0.00075178
     atom    2 type  2   force =     0.00021494   -0.00036104    0.00040201
     atom    3 type  2   force =     0.00012636    0.00007585    0.00030541
     atom    4 type  1   force =     0.00015628    0.00010926    0.00075399
     atom    5 type  2   force =     0.00008690    0.00002608    0.00022974
     atom    6 type  2   force =     0.00003439    0.00003102    0.00033049
     atom    7 type  1   force =     0.00033159    0.00006828    0.00094493
     atom    8 type  2   force =     0.00010046    0.00012119    0.00025022
     atom    9 type  2   force =     0.00004601   -0.00007589    0.00032882
     atom   10 type  1   force =     0.00073403   -0.00039579    0.00194073
     atom   11 type  2   force =     0.00030017    0.00002449    0.00033711
     atom   12 type  2   force =    -0.00002824   -0.00016473    0.00035772
     atom   13 type  1   force =    -0.00018495   -0.00002840    0.00076664
     atom   14 type  2   force =    -0.00004816    0.00000132    0.00027840
     atom   15 type  2   force =    -0.00005735    0.00009624    0.00032836
     atom   16 type  1   force =     0.00005776   -0.00012404    0.00067390
     atom   17 type  2   force =    -0.00007326   -0.00000819    0.00023528
     atom   18 type  2   force =    -0.00007428    0.00005832    0.00023076
     atom   19 type  1   force =    -0.00028425   -0.00001372    0.00077919
     atom   20 type  2   force =    -0.00000345   -0.00001836    0.00021401
     atom   21 type  1   force =    -0.00003296   -0.00014213    0.00099687
     atom   22 type  2   force =    -0.00015659    0.00000911    0.00027507
     atom   23 type  2   force =    -0.00008708   -0.00004240    0.00033042
     atom   24 type  1   force =     0.00022028   -0.00010130    0.00104060
     atom   25 type  2   force =    -0.00018609   -0.00018314    0.00012690
     atom   26 type  2   force =     0.00002682    0.00000487    0.00043751
     atom   27 type  1   force =    -0.00020630    0.00012240    0.00068691
     atom   28 type  2   force =    -0.00001769    0.00001933    0.00021153
     atom   29 type  2   force =     0.00003324    0.00012547    0.00032419
     atom   30 type  1   force =     0.00003333    0.00028569    0.00124352
     atom   31 type  2   force =    -0.00016142    0.00008218    0.00020209
     atom   32 type  2   force =    -0.00005226   -0.00008878    0.00032296
     atom   33 type  1   force =    -0.00067485   -0.00014062    0.00143761
     atom   34 type  2   force =    -0.00014369    0.00015954    0.00006205
     atom   35 type  2   force =     0.00011434   -0.00006476    0.00054992
     atom   36 type  3   force =     0.00001910   -0.00000434    0.00000924

     Total force =     0.095301     Total SCF correction =     0.004270
     Energy error            =      1.5E-02 Ry
     Gradient error          =      4.6E-02 Ry/Bohr

     number of scf cycles    =   2
     number of bfgs steps    =   1

     energy             old  =   -2205.4917129245 Ry
     energy             new  =   -2205.5071501160 Ry

     CASE: energy            _new < energy            _old

     new trust radius        =       0.0822925127 bohr
     new conv_thr            =       0.0000000455 Ry


ATOMIC_POSITIONS (angstrom)
Mo            6.5847065334        1.7613899261        2.8268361907
S             8.1564536041        0.8312511856        4.4384707505
S             8.1773331373        0.8249906190        1.2663663168
Mo            8.1020090158        4.4953135261        2.7170064324
S             6.4992870725        3.7138970998        4.3364336812
S             6.5558532935        3.5246656200        1.1227637186
Mo            6.4958396089        7.2039548325        2.6668543221
S             8.0817711648        6.3338862683        4.2622186994
S             8.0976931322        6.3115012124        1.0962564080
Mo            8.1378808362        9.9221522632        2.7764484944
S             6.5013556551        8.9425494525        4.3775372769
S             6.6152245387        9.0482868718        1.1425797902
Mo            3.4290964123        1.7597266546        2.7691765558
S             4.9827204486        0.8172373321        4.3650436337
S             5.0434557208        0.8489756957        1.2154669305
Mo            4.9786011887        4.5226604981        2.6377986677
S             3.4354177647        3.6737787569        4.2836072953
S             3.4334149799        3.5412489668        1.0746064015
Mo            3.4584276514        7.2089616483        2.6265958375
S             4.9882137445        6.3202778821        1.0366234727
Mo            5.0039133134        9.9082932349        2.7448595703
S             3.4701163406        8.9411613944        4.3208703472
S             3.4060385007        9.0675144587        1.1057865181
Mo            0.2853701145        1.7431050958        2.8269562998
S             1.8756410813        0.8194903913        4.4054423732
S             1.8473740279        0.8528889592        1.2033438055
Mo            1.8590241004        4.4946965381        2.6705478408
S             0.2717750987        3.6519579577        4.3300403961
S             0.2351868592        3.5276417286        1.1680434783
Mo            0.2666061875        7.2213344430        2.6946372104
S             1.9046450627        6.3119585781        4.2428636104
S             1.8485344825        6.3177920467        1.0533928485
Mo            1.8617231364        9.9410717508        2.7636103610
S             0.2540364124        9.0491653006        4.4585437767
S             0.2678076178        9.0533495179        1.1644949406
H             8.4658080615        9.6873964811        5.3341985667



     Writing config-only to output data dir ./MoS2-V-O.save/
     NEW-OLD atomic charge density approx. for the potential

     negative rho (up, down):  1.474E-04 0.000E+00

     total cpu time spent up to now is      169.4 secs

     Self-consistent Calculation

     iteration #  1     ecut=    80.00 Ry     beta= 0.70
     Davidson diagonalization with overlap
     ethr =  1.00E-06,  avg # of iterations = 14.0

     negative rho (up, down):  8.330E-05 0.000E+00

     total cpu time spent up to now is      182.4 secs

     total energy              =   -2205.52032440 Ry
     estimated scf accuracy    <       0.00163289 Ry

     iteration #  2     ecut=    80.00 Ry     beta= 0.70
     Davidson diagonalization with overlap
     ethr =  5.32E-07,  avg # of iterations =  2.0

     negative rho (up, down):  6.459E-05 0.000E+00

     total cpu time spent up to now is      197.9 secs

     total energy              =   -2205.52035918 Ry
     estimated scf accuracy    <       0.00036752 Ry

     iteration #  3     ecut=    80.00 Ry     beta= 0.70
     Davidson diagonalization with overlap
     ethr =  1.20E-07,  avg # of iterations =  5.0

     negative rho (up, down):  5.094E-05 0.000E+00

     total cpu time spent up to now is      210.9 secs

     total energy              =   -2205.52038682 Ry
     estimated scf accuracy    <       0.00014734 Ry

     iteration #  4     ecut=    80.00 Ry     beta= 0.70
     Davidson diagonalization with overlap
     ethr =  4.80E-08,  avg # of iterations =  5.0

     negative rho (up, down):  4.867E-05 0.000E+00

     total cpu time spent up to now is      227.3 secs

     total energy              =   -2205.52040388 Ry
     estimated scf accuracy    <       0.00000622 Ry

     iteration #  5     ecut=    80.00 Ry     beta= 0.70
     Davidson diagonalization with overlap
     ethr =  2.03E-09,  avg # of iterations =  7.0

     negative rho (up, down):  4.968E-05 0.000E+00

     total cpu time spent up to now is      241.6 secs

     total energy              =   -2205.52040778 Ry
     estimated scf accuracy    <       0.00000366 Ry

     iteration #  6     ecut=    80.00 Ry     beta= 0.70
     Davidson diagonalization with overlap
     ethr =  1.19E-09,  avg # of iterations =  2.0

     negative rho (up, down):  5.435E-05 0.000E+00

     total cpu time spent up to now is      255.3 secs

     total energy              =   -2205.52040798 Ry
     estimated scf accuracy    <       0.00000083 Ry

     iteration #  7     ecut=    80.00 Ry     beta= 0.70
     Davidson diagonalization with overlap
     ethr =  2.69E-10,  avg # of iterations =  5.0

     negative rho (up, down):  5.987E-05 0.000E+00

     total cpu time spent up to now is      267.2 secs

     total energy              =   -2205.52040806 Ry
     estimated scf accuracy    <       0.00000034 Ry

     iteration #  8     ecut=    80.00 Ry     beta= 0.70
     Davidson diagonalization with overlap
     ethr =  1.10E-10,  avg # of iterations =  2.0

     negative rho (up, down):  8.182E-05 0.000E+00

     total cpu time spent up to now is      279.3 secs

     total energy              =   -2205.52040795 Ry
     estimated scf accuracy    <       0.00000017 Ry

     iteration #  9     ecut=    80.00 Ry     beta= 0.70
     Davidson diagonalization with overlap
     ethr =  5.57E-11,  avg # of iterations =  5.0

     negative rho (up, down):  1.378E-04 0.000E+00

     total cpu time spent up to now is      281.3 secs

     End of self-consistent calculation

          k = 0.0000 0.0000 0.0000 (105382 PWs)   bands (ev):

   -62.8854 -62.8649 -62.8516 -62.8440 -62.8278 -62.8244 -62.8013 -62.7920
   -62.7782 -62.7753 -62.7608 -62.7207 -37.2220 -37.1549 -37.1333 -37.1307
   -37.1214 -37.0988 -37.0817 -37.0660 -37.0589 -37.0579 -37.0512 -37.0317
   -37.0257 -37.0241 -37.0168 -37.0069 -36.9998 -36.9938 -36.9826 -36.9731
   -36.9602 -36.9557 -36.9361 -36.9207 -36.9105 -36.9072 -36.9007 -36.8943
   -36.8871 -36.8703 -36.8605 -36.8373 -36.8285 -36.7970 -36.7261 -36.7155
   -16.0237 -15.3295 -15.1180 -15.0352 -14.9547 -14.8369 -14.6156 -14.4785
   -14.4560 -14.4183 -14.4069 -14.3489 -14.3373 -14.2823 -14.1781 -14.1280
   -14.1188 -14.1036 -14.0134 -13.9298 -13.8512 -13.8242 -13.7858  -8.2190
    -7.6464  -7.4408  -7.2924  -7.2579  -7.2207  -7.1833  -7.1331  -7.0479
    -6.8161  -6.8125  -6.7476  -6.7065  -6.5895  -6.5120  -6.4858  -6.4191
    -6.2849  -6.2414  -6.0843  -5.9279  -5.8971  -5.8921  -5.8078  -5.8004
    -5.7531  -5.7204  -5.7094  -5.6568  -5.6104  -5.5831  -5.5078  -5.4429
    -5.3780  -5.3638  -5.2036  -5.1306  -5.1090  -5.0314  -4.9708  -4.9561
    -4.9174  -4.8274  -4.6344  -4.5124  -4.3190  -4.3108  -4.2707  -4.2389
    -4.2074  -4.1573  -4.0671  -3.8888  -3.7932  -3.7534  -3.7249  -3.6848
    -3.6670  -3.5828  -3.5395  -3.5104  -3.4828  -3.4746  -3.4314  -3.3708
    -3.3490  -3.2308  -3.1476  -2.8899  -2.8608  -2.7900  -2.7713  -2.7424
    -2.6902  -2.6679  -2.6556  -2.6151  -2.5649  -2.2608  -2.0176  -1.9981
    -1.9719  -0.8986  -0.7723  -0.7150  -0.1702  -0.1575  -0.0705  -0.0447
     0.0719   0.1179   0.1550   0.2359   0.2729   0.3134   0.3848   0.4311
     0.5010   0.5387   0.5459   0.6010   0.6139   0.6544   0.6862   0.7429
     0.7689   0.7978   0.8881   0.8967   0.9848   1.0019   1.0430   1.2339
     1.3098

     the Fermi energy is    -0.9184 ev

!    total energy              =   -2205.52040782 Ry
     estimated scf accuracy    <       0.00000003 Ry
     smearing contrib. (-TS)   =      -0.00790727 Ry
     internal energy E=F+TS    =   -2205.51250055 Ry

     The total energy is F=E-TS. E is the sum of the following terms:
     one-electron contribution =  -18042.03380389 Ry
     hartree contribution      =    9007.82177689 Ry
     xc contribution           =    -385.23065693 Ry
     ewald contribution        =    7213.93018337 Ry

     convergence has been achieved in   9 iterations

     negative rho (up, down):  1.378E-04 0.000E+00

     Forces acting on atoms (cartesian axes, Ry/au):

     atom    1 type  1   force =    -0.00587740   -0.00004426   -0.00514864
     atom    2 type  2   force =    -0.00559878    0.00459437   -0.00656073
     atom    3 type  2   force =    -0.00882062    0.01091190   -0.01947960
     atom    4 type  1   force =     0.00337436    0.00087788    0.00081296
     atom    5 type  2   force =     0.00137881   -0.00635436   -0.00545576
     atom    6 type  2   force =     0.00074377    0.00375733    0.00338937
     atom    7 type  1   force =     0.00349411   -0.00383644    0.00316520
     atom    8 type  2   force =     0.00023830   -0.00652655    0.00653631
     atom    9 type  2   force =     0.00852484    0.00208677    0.00228793
     atom   10 type  1   force =    -0.00310768    0.00775846    0.00450382
     atom   11 type  2   force =     0.00275489    0.00102222   -0.01334410
     atom   12 type  2   force =    -0.00878102   -0.00295224   -0.00695817
     atom   13 type  1   force =     0.00234727    0.00168326    0.00026771
     atom   14 type  2   force =     0.00201161    0.00019889    0.00427249
     atom   15 type  2   force =    -0.00557869    0.00091329   -0.00506739
     atom   16 type  1   force =     0.00044183    0.00309107    0.00171948
     atom   17 type  2   force =     0.00419610    0.00240657    0.00382478
     atom   18 type  2   force =    -0.00147422    0.00042349    0.00651956
     atom   19 type  1   force =    -0.00051814   -0.00259169    0.00277606
     atom   20 type  2   force =     0.00272669   -0.00331972   -0.00336824
     atom   21 type  1   force =    -0.00211109    0.00075928    0.00328587
     atom   22 type  2   force =    -0.00093473   -0.00161954   -0.00301423
     atom   23 type  2   force =    -0.00016787   -0.00005197    0.00096164
     atom   24 type  1   force =    -0.00218031   -0.00192057    0.00021916
     atom   25 type  2   force =     0.00819523    0.01089743   -0.00467686
     atom   26 type  2   force =    -0.00201727   -0.00044702   -0.00370649
     atom   27 type  1   force =    -0.00026888    0.00117948    0.00498743
     atom   28 type  2   force =    -0.00097794   -0.00426903   -0.00419980
     atom   29 type  2   force =     0.00251217    0.00205428   -0.00341242
     atom   30 type  1   force =    -0.00358567   -0.00420257    0.00876821
     atom   31 type  2   force =     0.00083639    0.00102958    0.00612645
     atom   32 type  2   force =    -0.00646493    0.00250317    0.00425475
     atom   33 type  1   force =    -0.00525892    0.00138335    0.01189780
     atom   34 type  2   force =    -0.03080009   -0.00134952    0.01850502
     atom   35 type  2   force =    -0.00037008    0.00588984    0.00109630
     atom   36 type  3   force =     0.05111796   -0.02593643   -0.01578585
     The non-local contrib.  to forces
     atom    1 type  1   force =     0.00252022    0.02752768   -0.01524177
     atom    2 type  2   force =    -0.00920998   -0.00859587   -0.23649758
     atom    3 type  2   force =    -0.01068711   -0.00605755    0.25939427
     atom    4 type  1   force =     0.00216753    0.00749314    0.00347852
     atom    5 type  2   force =     0.00653624   -0.03455854   -0.25453097
     atom    6 type  2   force =    -0.00181471    0.00399765    0.26682310
     atom    7 type  1   force =    -0.01982698   -0.00494889   -0.01954483
     atom    8 type  2   force =     0.00351651   -0.00446589   -0.26087408
     atom    9 type  2   force =     0.00437224   -0.00719966    0.27046409
     atom   10 type  1   force =    -0.00294618    0.00383690    0.00352081
     atom   11 type  2   force =     0.01704036    0.00728545   -0.23305209
     atom   12 type  2   force =    -0.01746541   -0.01646200    0.25888928
     atom   13 type  1   force =     0.00145670    0.02459731   -0.00594381
     atom   14 type  2   force =     0.00595932   -0.00981937   -0.26543855
     atom   15 type  2   force =    -0.00687184   -0.00744448    0.26169955
     atom   16 type  1   force =    -0.00245417    0.03467101   -0.02953435
     atom   17 type  2   force =    -0.00069574   -0.02391728   -0.24672319
     atom   18 type  2   force =    -0.00260942    0.00138777    0.26932831
     atom   19 type  1   force =     0.01970386   -0.00482836   -0.01468409
     atom   20 type  2   force =    -0.00087017   -0.01819731    0.26276250
     atom   21 type  1   force =     0.00075107    0.02762154    0.00264112
     atom   22 type  2   force =    -0.00127564   -0.00062332   -0.25638695
     atom   23 type  2   force =     0.00760100   -0.01425766    0.26441288
     atom   24 type  1   force =     0.00224343    0.01493585   -0.01149634
     atom   25 type  2   force =     0.00311833    0.00115113   -0.26628032
     atom   26 type  2   force =     0.00195363   -0.01424175    0.26422125
     atom   27 type  1   force =    -0.00195241    0.00638579    0.00748053
     atom   28 type  2   force =    -0.00341854   -0.02417367   -0.27491434
     atom   29 type  2   force =     0.00583302   -0.00023942    0.26488546
     atom   30 type  1   force =    -0.00547572    0.02258228   -0.00325785
     atom   31 type  2   force =    -0.00197447    0.00043530   -0.25711974
     atom   32 type  2   force =    -0.00015851   -0.01265807    0.27277467
     atom   33 type  1   force =    -0.00681095    0.00379769   -0.00186208
     atom   34 type  2   force =    -0.21459574    0.11546057   -0.09656844
     atom   35 type  2   force =     0.00010449   -0.01081574    0.26768166
     atom   36 type  3   force =     0.01885763   -0.00949261   -0.01496889
     The ionic contribution  to forces
     atom    1 type  1   force =    -0.20587461    1.08761034    5.73223409
     atom    2 type  2   force =    -0.30435613    0.56916222   39.19173373
     atom    3 type  2   force =    -0.06942255    0.29101986  -36.54051729
     atom    4 type  1   force =    -0.03926417    0.49009530    0.72409570
     atom    5 type  2   force =    -0.97956099    1.48819949   38.56645416
     atom    6 type  2   force =     0.23651927   -0.54120324  -37.84559495
     atom    7 type  1   force =    -2.80171725   -2.63069333    2.46198503
     atom    8 type  2   force =    -0.99003350   -0.07577567   37.55500772
     atom    9 type  2   force =     0.29750117   -0.13494704  -37.96495516
     atom   10 type  1   force =    -0.26787587   -0.55230319    2.45262739
     atom   11 type  2   force =    -0.88095854   -1.77690696   38.73560545
     atom   12 type  2   force =     0.07835715    0.40257906  -37.95093497
     atom   13 type  1   force =     0.33045545    0.83251527    2.67082923
     atom   14 type  2   force =    -0.18418430    0.07992463   38.68900398
     atom   15 type  2   force =     0.10448252    0.03367468  -36.94565679
[...]
     atom   27 type  1   force =     0.00585789    0.00739365    0.00150544
     atom   28 type  2   force =    -0.00039799   -0.01496153   -0.27047393
     atom   29 type  2   force =    -0.00015795   -0.01296014    0.26942258
     atom   30 type  1   force =     0.00010982   -0.00448547   -0.00968322
     atom   31 type  2   force =    -0.02183631    0.00519396   -0.25920030
     atom   32 type  2   force =     0.00005742   -0.01292774    0.26558823
     atom   33 type  1   force =     0.01940106    0.01216736   -0.00877419
     atom   34 type  2   force =     0.00168575    0.00565748    0.27170560
     atom   35 type  2   force =    -0.00001900   -0.01358863    0.28337579
     atom   36 type  3   force =    -0.00039671   -0.00264141   -0.06384010
     The ionic contribution  to forces
     atom    1 type  1   force =    -0.25331388    0.77733824    2.50167149
     atom    2 type  2   force =    -0.12439741    0.07279625   38.99921818
     atom    3 type  2   force =     0.19800353   -0.07436205  -37.67486603
     atom    4 type  1   force =    -0.51681005    0.30361558    1.00026530
     atom    5 type  2   force =    -0.86924245    1.29987298   38.46773881
     atom    6 type  2   force =     0.08043179   -0.21712849  -38.00583308
     atom    7 type  1   force =    -3.51989311   -1.83665858    1.14213611
     atom    8 type  2   force =    -1.42023349    0.23714835   38.49292469
     atom    9 type  2   force =     0.18643152    0.11705376  -38.27295909
     atom   10 type  1   force =     0.16325849   -0.83318137    2.51645257
     atom   11 type  2   force =    -0.63529180   -1.70595542   38.52511795
     atom   12 type  2   force =     0.14689929    0.09748706  -38.14362674
     atom   13 type  1   force =     0.23971821    0.64248792    2.69357191
     atom   14 type  2   force =     0.00217799   -0.13477632   38.64329665
     atom   15 type  2   force =    -0.01205691   -0.12052199  -37.44800046
     atom   16 type  1   force =     0.22926486    4.16594499    2.27958566
     atom   17 type  2   force =     0.90431053    1.24852294   38.61680756
     atom   18 type  2   force =    -0.09276794   -0.24878978  -38.07416346
     atom   19 type  1   force =     3.56041938   -1.50472752    1.81948287
     atom   20 type  2   force =     0.02185905    0.10445032  -38.09140934
     atom   21 type  1   force =    -0.10545931   -0.87521182    1.46906667
     atom   22 type  2   force =     0.64899166   -1.67731651   38.44360051
     atom   23 type  2   force =    -0.17733420    0.06209582  -37.97979052
     atom   24 type  1   force =     0.00179158    0.11924963    2.32458141
     atom   25 type  2   force =     0.11743033    0.06067652   38.99659011
     atom   26 type  2   force =    -0.17215145   -0.10983245  -37.67408759
     atom   27 type  1   force =     0.34483790    0.27555595    1.03147811
     atom   28 type  2   force =    -0.03956663    0.48312461   38.29831618
     atom   29 type  2   force =    -0.01109921   -0.15832976  -37.56647374
     atom   30 type  1   force =     0.03026196    0.30282788    2.23754170
     atom   31 type  2   force =     1.32824356    0.27982004   38.59857955
     atom   32 type  2   force =    -0.20244749    0.16821869  -38.24038425
     atom   33 type  1   force =    -0.05830153   -0.85428070    2.39261550
     atom   34 type  2   force =    -0.01799536   -0.55913873   35.52369023
     atom   35 type  2   force =     0.01759451    0.11368559  -36.55910095
     atom   36 type  3   force =     0.00643608   -0.02176165    8.71636554
     The local contribution  to forces
     atom    1 type  1   force =     0.26039574   -0.80555569   -2.49651055
     atom    2 type  2   force =     0.12253813   -0.05601054  -38.76393316
     atom    3 type  2   force =    -0.19438405    0.08402442   37.42882135
     atom    4 type  1   force =     0.52115380   -0.31088375   -1.00206638
     atom    5 type  2   force =     0.86442502   -1.27781268  -38.23217623
     atom    6 type  2   force =    -0.08425679    0.22158664   37.76357937
     atom    7 type  1   force =     3.55867668    1.83984505   -1.13996440
     atom    8 type  2   force =     1.39942594   -0.24135460  -38.25483711
     atom    9 type  2   force =    -0.18502113   -0.10583373   38.02781621
     atom   10 type  1   force =    -0.14226859    0.82030873   -2.50553203
     atom   11 type  2   force =     0.62443402    1.69738903  -38.29567327
     atom   12 type  2   force =    -0.14260323   -0.08529967   37.90351121
     atom   13 type  1   force =    -0.24778952   -0.67182347   -2.68955351
     atom   14 type  2   force =    -0.00217266    0.14493473  -38.39788062
     atom   15 type  2   force =     0.01178281    0.12912864   37.20577847
     atom   16 type  1   force =    -0.23060482   -4.22140467   -2.25298797
     atom   17 type  2   force =    -0.90048382   -1.22561039  -38.38128577
     atom   18 type  2   force =     0.09702039    0.25381047   37.83278497
     atom   19 type  1   force =    -3.60178306    1.50768515   -1.81325328
     atom   20 type  2   force =    -0.02246239   -0.09555325   37.84537474
     atom   21 type  1   force =     0.10494234    0.85384488   -1.46996010
     atom   22 type  2   force =    -0.63827426    1.67085215  -38.21286648
     atom   23 type  2   force =     0.17197054   -0.05019711   37.73793688
     atom   24 type  1   force =    -0.00125770   -0.13949661   -2.32407874
     atom   25 type  2   force =    -0.11572579   -0.04414413  -38.76211823
     atom   26 type  2   force =     0.16884529    0.11971790   37.42866216
     atom   27 type  1   force =    -0.35101726   -0.28274954   -1.03332736
     atom   28 type  2   force =     0.03939938   -0.46881556  -38.04902551
     atom   29 type  2   force =     0.01110837    0.17066011   37.31777494
     atom   30 type  1   force =    -0.03041689   -0.29866980   -2.22749601
     atom   31 type  2   force =    -1.30780964   -0.28473548  -38.36017379
     atom   32 type  2   force =     0.20188218   -0.15567445   37.99570994
     atom   33 type  1   force =     0.03861528    0.84210149   -2.38345611
     atom   34 type  2   force =     0.01656545    0.55300821  -35.78603093
     atom   35 type  2   force =    -0.01744561   -0.10041633   36.29582564
     atom   36 type  3   force =    -0.00625841    0.02424399   -8.65108838
     The core correction contribution to forces
     atom    1 type  1   force =     0.00000000    0.00000000    0.00000000
     atom    2 type  2   force =    -0.00018816    0.00115198    0.02021327
     atom    3 type  2   force =     0.00023568    0.00062274   -0.02098877
     atom    4 type  1   force =     0.00000000    0.00000000    0.00000000
     atom    5 type  2   force =    -0.00051677    0.00118593    0.02034287
     atom    6 type  2   force =    -0.00013045   -0.00005527   -0.02070107
     atom    7 type  1   force =     0.00000000    0.00000000    0.00000000
     atom    8 type  2   force =    -0.00149591   -0.00016536    0.02042023
     atom    9 type  2   force =     0.00021827    0.00052387   -0.02097142
     atom   10 type  1   force =     0.00000000    0.00000000    0.00000000
     atom   11 type  2   force =    -0.00080257   -0.00092600    0.02004127
     atom   12 type  2   force =     0.00035050    0.00064209   -0.02076213
     atom   13 type  1   force =     0.00000000    0.00000000    0.00000000
     atom   14 type  2   force =     0.00004510    0.00019168    0.02069531
     atom   15 type  2   force =    -0.00003888    0.00039552   -0.02068429
     atom   16 type  1   force =     0.00000000    0.00000000    0.00000000
     atom   17 type  2   force =     0.00046950    0.00118652    0.02039971
     atom   18 type  2   force =     0.00013130   -0.00016711   -0.02070989
     atom   19 type  1   force =     0.00000000    0.00000000    0.00000000
     atom   20 type  2   force =    -0.00001847    0.00038509   -0.02114044
     atom   21 type  1   force =     0.00000000    0.00000000    0.00000000
     atom   22 type  2   force =     0.00073455   -0.00075603    0.02002229
     atom   23 type  2   force =    -0.00036335    0.00055455   -0.02073940
     atom   24 type  1   force =     0.00000000    0.00000000    0.00000000
     atom   25 type  2   force =     0.00017397    0.00109492    0.02018899
     atom   26 type  2   force =    -0.00023486    0.00067456   -0.02100089
     atom   27 type  1   force =     0.00000000    0.00000000    0.00000000
     atom   28 type  2   force =     0.00001427    0.00101509    0.02087985
     atom   29 type  2   force =     0.00000936    0.00049593   -0.02086370
     atom   30 type  1   force =     0.00000000    0.00000000    0.00000000
     atom   31 type  2   force =     0.00138150   -0.00019023    0.02044814
     atom   32 type  2   force =    -0.00018405    0.00058977   -0.02095252
     atom   33 type  1   force =     0.00000000    0.00000000    0.00000000
     atom   34 type  2   force =    -0.00011656   -0.00057703   -0.01126142
     atom   35 type  2   force =    -0.00001351    0.00067621   -0.02142476
     atom   36 type  3   force =     0.00000000    0.00000000    0.00000000
     The Hubbard contrib.    to forces
     atom    1 type  1   force =     0.00000000    0.00000000    0.00000000
     atom    2 type  2   force =     0.00000000    0.00000000    0.00000000
     atom    3 type  2   force =     0.00000000    0.00000000    0.00000000
     atom    4 type  1   force =     0.00000000    0.00000000    0.00000000
     atom    5 type  2   force =     0.00000000    0.00000000    0.00000000
     atom    6 type  2   force =     0.00000000    0.00000000    0.00000000
     atom    7 type  1   force =     0.00000000    0.00000000    0.00000000
     atom    8 type  2   force =     0.00000000    0.00000000    0.00000000
     atom    9 type  2   force =     0.00000000    0.00000000    0.00000000
     atom   10 type  1   force =     0.00000000    0.00000000    0.00000000
     atom   11 type  2   force =     0.00000000    0.00000000    0.00000000
     atom   12 type  2   force =     0.00000000    0.00000000    0.00000000
     atom   13 type  1   force =     0.00000000    0.00000000    0.00000000
     atom   14 type  2   force =     0.00000000    0.00000000    0.00000000
     atom   15 type  2   force =     0.00000000    0.00000000    0.00000000
     atom   16 type  1   force =     0.00000000    0.00000000    0.00000000
     atom   17 type  2   force =     0.00000000    0.00000000    0.00000000
     atom   18 type  2   force =     0.00000000    0.00000000    0.00000000
     atom   19 type  1   force =     0.00000000    0.00000000    0.00000000
     atom   20 type  2   force =     0.00000000    0.00000000    0.00000000
     atom   21 type  1   force =     0.00000000    0.00000000    0.00000000
     atom   22 type  2   force =     0.00000000    0.00000000    0.00000000
     atom   23 type  2   force =     0.00000000    0.00000000    0.00000000
     atom   24 type  1   force =     0.00000000    0.00000000    0.00000000
     atom   25 type  2   force =     0.00000000    0.00000000    0.00000000
     atom   26 type  2   force =     0.00000000    0.00000000    0.00000000
     atom   27 type  1   force =     0.00000000    0.00000000    0.00000000
     atom   28 type  2   force =     0.00000000    0.00000000    0.00000000
     atom   29 type  2   force =     0.00000000    0.00000000    0.00000000
     atom   30 type  1   force =     0.00000000    0.00000000    0.00000000
     atom   31 type  2   force =     0.00000000    0.00000000    0.00000000
     atom   32 type  2   force =     0.00000000    0.00000000    0.00000000
     atom   33 type  1   force =     0.00000000    0.00000000    0.00000000
     atom   34 type  2   force =     0.00000000    0.00000000    0.00000000
     atom   35 type  2   force =     0.00000000    0.00000000    0.00000000
     atom   36 type  3   force =     0.00000000    0.00000000    0.00000000
     The SCF correction term to forces
     atom    1 type  1   force =     0.00000965   -0.00003637   -0.00006379
     atom    2 type  2   force =     0.00000073    0.00002019   -0.00002252
     atom    3 type  2   force =     0.00000628   -0.00002325    0.00000535
     atom    4 type  1   force =     0.00004143    0.00000729    0.00002906
     atom    5 type  2   force =    -0.00000434   -0.00000422    0.00001314
     atom    6 type  2   force =    -0.00001106   -0.00001298   -0.00001753
     atom    7 type  1   force =     0.00006105   -0.00004049    0.00000604
     atom    8 type  2   force =     0.00000599    0.00000907    0.00000196
     atom    9 type  2   force =     0.00000667    0.00000771   -0.00000161
     atom   10 type  1   force =    -0.00000264    0.00006031   -0.00007702
     atom   11 type  2   force =     0.00001149   -0.00000631    0.00001964
     atom   12 type  2   force =     0.00002776    0.00003488   -0.00002177
     atom   13 type  1   force =     0.00000581    0.00003058    0.00005375
     atom   14 type  2   force =    -0.00000112    0.00003890    0.00000432
     atom   15 type  2   force =     0.00003737    0.00001134   -0.00001249
     atom   16 type  1   force =    -0.00002596   -0.00001887    0.00004241
     atom   17 type  2   force =    -0.00000103   -0.00000143    0.00001362
     atom   18 type  2   force =     0.00001261   -0.00000579   -0.00001196
     atom   19 type  1   force =    -0.00004682   -0.00002352    0.00001313
     atom   20 type  2   force =    -0.00001808   -0.00000088   -0.00000270
     atom   21 type  1   force =    -0.00001047    0.00001224   -0.00003924
     atom   22 type  2   force =    -0.00003651   -0.00001099    0.00000853
     atom   23 type  2   force =    -0.00000627   -0.00002831   -0.00000516
     atom   24 type  1   force =    -0.00001209   -0.00002729   -0.00002720
     atom   25 type  2   force =    -0.00002105    0.00000665    0.00002145
     atom   26 type  2   force =    -0.00001947    0.00000581   -0.00002972
     atom   27 type  1   force =     0.00002201    0.00004278    0.00007308
     atom   28 type  2   force =    -0.00000461   -0.00000918    0.00001950
     atom   29 type  2   force =    -0.00001033   -0.00001696   -0.00001735
     atom   30 type  1   force =     0.00002973    0.00000616    0.00002092
     atom   31 type  2   force =     0.00000612    0.00001097    0.00000514
     atom   32 type  2   force =     0.00001466    0.00002410    0.00002248
     atom   33 type  1   force =    -0.00002733   -0.00004138    0.00004226
     atom   34 type  2   force =     0.00002910   -0.00001190    0.00001193
     atom   35 type  2   force =     0.00000703   -0.00000957    0.00000420
     atom   36 type  3   force =     0.00000408   -0.00000249   -0.00000330

     Total force =     0.005486     Total SCF correction =     0.000260
     Energy error            =      5.7E-05 Ry
     Gradient error          =      1.9E-03 Ry/Bohr

     bfgs converged in  36 scf cycles and  34 bfgs steps
     (criteria: energy <  1.0E-04 Ry, force <  1.0E-02 Ry/Bohr)

     End of BFGS Geometry Optimization

     Final energy             =   -2205.5900294931 Ry

     File ./MoS2-V-O.bfgs deleted, as requested
Begin final coordinates

ATOMIC_POSITIONS (angstrom)
Mo            6.5251332001        1.7888717311        2.7606589515
S             8.0850090419        0.8882360867        4.3751445515
S             8.0969361663        0.8722338551        1.1703851842
Mo            8.0885404581        4.5079673835        2.7206721766
S             6.4814276715        3.6856326729        4.3160654236
S             6.5238674700        3.5915549360        1.1138258311
Mo            6.5272541907        7.2122476231        2.6462904184
S             8.0300912986        6.3070923880        4.3165276983
S             8.1268059263        6.3187571115        1.0957008258
Mo            8.0563999698        9.9876143398        2.7675343449
S             6.4785792806        8.9601341093        4.3241306534
S             6.5470828104        9.0743370715        1.1128215640
Mo            3.3922900221        1.7872082711        2.7640006707
S             4.9612145233        0.8433864360        4.3449883166
S             4.9566428255        0.8665898268        1.1741894710
Mo            4.9512890093        4.5539395874        2.6663899200
S             3.4315282165        3.6811397289        4.3249682693
S             3.3946367747        3.5832326065        1.1137217827
Mo            3.3953740633        7.1944095435        2.6584789782
S             4.9596625710        6.3392570992        1.0611104820
Mo            4.9601585132        9.9275302441        2.7354059800
S             3.4344405137        8.9595718291        4.3220960851
S             3.3733717884        9.0623821579        1.1205446762
Mo            0.2307490012        1.7547026153        2.7691819433
S             1.8320326175        0.8806121086        4.3765373621
S             1.8190566842        0.8708295379        1.1688905320
Mo            1.8314804002        4.5045848615        2.7225033212
S             0.2310098350        3.6143338231        4.3215344203
S             0.2315915205        3.5713011101        1.1548621298
Mo            0.2313101801        7.1781092312        2.7457818117
S             1.8848192810        6.3006089079        4.3239891444
S             1.7974319487        6.3165400681        1.1001220907
Mo            1.8586998884        9.9837484305        2.7671887405
S             0.2290588370        9.0525720215        4.2443425697
S             0.2296563244        9.0662218661        1.2176037505
H             9.6937230773        9.1080329678        5.6081327483
End final coordinates



     Writing all to output data dir ./MoS2-V-O.save/
 
     init_run     :      2.43s CPU      2.59s WALL (       1 calls)
     electrons    :   3622.83s CPU   4020.72s WALL (      36 calls)
     update_pot   :     49.28s CPU     51.45s WALL (      35 calls)
     forces       :     48.42s CPU     54.53s WALL (      36 calls)

     Called by init_run:
     wfcinit      :      0.39s CPU      0.43s WALL (       1 calls)
     potinit      :      1.33s CPU      1.42s WALL (       1 calls)
     hinit0       :      0.18s CPU      0.19s WALL (       1 calls)

     Called by electrons:
     c_bands      :    407.60s CPU    412.58s WALL (     337 calls)
     sum_band     :    100.53s CPU    125.53s WALL (     337 calls)
     v_of_rho     :    141.51s CPU    167.93s WALL (     360 calls)
     newd         :     49.03s CPU     72.09s WALL (     360 calls)
     mix_rho      :   2938.81s CPU   3257.02s WALL (     337 calls)

     Called by c_bands:
     init_us_2    :      7.55s CPU      7.86s WALL (     675 calls)
     init_us_2:cp :      7.55s CPU      7.86s WALL (     675 calls)
     regterg      :    383.22s CPU    387.88s WALL (     337 calls)

     Called by *egterg:
     rdiaghg      :     30.91s CPU     31.14s WALL (    1842 calls)
     h_psi        :    218.75s CPU    220.69s WALL (    1891 calls)
     s_psi        :     27.71s CPU     27.80s WALL (    1891 calls)
     g_psi        :      1.64s CPU      1.65s WALL (    1553 calls)

     Called by h_psi:
     h_psi:calbec :     30.65s CPU     30.78s WALL (    1891 calls)
     vloc_psi     :    157.41s CPU    159.05s WALL (    1891 calls)
     add_vuspsi   :     27.21s CPU     27.35s WALL (    1891 calls)

     General routines
     calbec       :     43.57s CPU     43.75s WALL (    2372 calls)
     fft          :     94.03s CPU    109.10s WALL (   24060 calls)
     ffts         :   1277.64s CPU   1585.49s WALL (  712729 calls)
     fftw         :    140.06s CPU    141.28s WALL (  201625 calls)
     interpolate  :      2.60s CPU      2.97s WALL (     360 calls)
 
     Parallel routines
 
     PWSCF        :      1h 2m CPU      1h 8m WALL

 
   This run was terminated on:  11:11:41   4Nov2023            

=------------------------------------------------------------------------------=
   JOB DONE.
=------------------------------------------------------------------------------=
