
     Program PWSCF v.7.2 starts on  3Nov2023 at 21:45:19 

     This program is part of the open-source Quantum ESPRESSO suite
     for quantum simulation of materials; please cite
         "P. Giannozzi et al., J. Phys.:Condens. Matter 21 395502 (2009);
         "P. Giannozzi et al., J. Phys.:Condens. Matter 29 465901 (2017);
         "P. Giannozzi et al., J. Chem. Phys. 152 154105 (2020);
          URL http://www.quantum-espresso.org", 
     in publications or presentations arising from this work. More details at
     http://www.quantum-espresso.org/quote

     Parallel version (MPI & OpenMP), running on      48 processor cores
     Number of MPI processes:                48
     Threads/MPI process:                     1

     MPI processes distributed on     1 nodes
     111433 MiB available memory on the printing compute node when the environment starts
 
     Waiting for input...
     Reading input from standard input
Warning: card &CELL ignored
Warning: card CELL_DYNAMICS = 'BFGS', ignored
Warning: card CELL_DOFREE = '2DXY' ignored
Warning: card / ignored

     Current dimensions of program PWSCF are:
     Max number of different atomic species (ntypx) = 10
     Max number of k-points (npk) =  40000
     Max angular momentum in pseudopotentials (lmaxx) =  4

     IMPORTANT: XC functional enforced from input :
     Exchange-correlation= RVV10
                           (   1   4  13   4  26   0   0)
     Any further DFT definition will be discarded
     Please, verify this is what you really want


     gamma-point specific algorithms are used
     signal trapping enabled: kill the code with -SIGUSR1 to stop cleanly the simulation 
 
     R & G space division:  proc/nbgrp/npool/nimage =      48
     Subspace diagonalization in iterative solution of the eigenvalue problem:
     one sub-group per band group will be used
     scalapack distributed-memory algorithm (size of sub-group:  2*  2 procs)

 
     Parallelization info
     --------------------
     sticks:   dense  smooth     PW     G-vecs:    dense   smooth      PW
     Min         243     194     47                49060    35090    4376
     Max         246     196     50                49086    35128    4410
     Sum       11735    9389   2349              2355467  1685513  210763
 
     Using Slab Decomposition
 


     bravais-lattice index     =            0
     lattice parameter (alat)  =      17.8707  a.u.
     unit-cell volume          =   17436.2743 (a.u.)^3
     number of atoms/cell      =           36
     number of atomic types    =            3
     number of electrons       =       307.00
     number of Kohn-Sham states=          185
     kinetic-energy cutoff     =      80.0000  Ry
     charge density cutoff     =     400.0000  Ry
     scf convergence threshold =      1.0E-06
     mixing beta               =       0.7000
     number of iterations used =            8  local-TF  mixing
     energy convergence thresh.=      1.0E-04
     force convergence thresh. =      1.0E-02
     Exchange-correlation= RVV10
                           (   1   4  13   4  26   0   0)
     nstep                     =          200


     celldm(1)=  17.870686  celldm(2)=   0.000000  celldm(3)=   0.000000
     celldm(4)=   0.000000  celldm(5)=   0.000000  celldm(6)=   0.000000

     crystal axes: (cart. coord. in units of alat)
               a(1) = (   1.000000   0.000000   0.000000 )  
               a(2) = (   0.000000   1.155671   0.000000 )  
               a(3) = (   0.000000   0.000000   2.643601 )  

     reciprocal axes: (cart. coord. in units 2 pi/alat)
               b(1) = (  1.000000  0.000000  0.000000 )  
               b(2) = (  0.000000  0.865298  0.000000 )  
               b(3) = (  0.000000  0.000000  0.378272 )  


     PseudoPot. # 1 for Mo read from file:
     ../pseudo/Mo_ONCV_PBE-1.0.oncvpsp.upf
     MD5 check sum: 1b5d28e075c9ccadda658a603575cd1f
     Pseudo is Norm-conserving, Zval = 14.0
     Generated using ONCVPSP code by D. R. Hamann
     Using radial grid of 1526 points,  6 beta functions with: 
                l(1) =   0
                l(2) =   0
                l(3) =   1
                l(4) =   1
                l(5) =   2
                l(6) =   2

     PseudoPot. # 2 for S  read from file:
     ../pseudo/s_pbe_v1.4.uspp.F.UPF
     MD5 check sum: 88d86576ff6df21479756cfb9bdac1df
     Pseudo is Ultrasoft + core correction, Zval =  6.0
     Generated by new atomic code, or converted to UPF format
     Using radial grid of  907 points,  6 beta functions with: 
                l(1) =   0
                l(2) =   0
                l(3) =   1
                l(4) =   1
                l(5) =   2
                l(6) =   2
     Q(r) pseudized with  8 coefficients,  rinner =    1.300   1.300   1.300
                                                       1.300   1.300

     PseudoPot. # 3 for H  read from file:
     ../pseudo/H_ONCV_PBE-1.0.oncvpsp.upf
     MD5 check sum: 1790becc920ee074925cf490c71280fe
     Pseudo is Norm-conserving, Zval =  1.0
     Generated using ONCVPSP code by D. R. Hamann
     Using radial grid of 1166 points,  2 beta functions with: 
                l(1) =   0
                l(2) =   0

     atomic species   valence    mass     pseudopotential
        Mo            14.00    95.94000     Mo( 1.00)
        S              6.00    32.06500     S ( 1.00)
        H              1.00     1.00794     H ( 1.00)

     No symmetry found



   Cartesian axes

     site n.     atom                  positions (alat units)
         1           Mo  tau(   1) = (   0.6952221   0.1890506   0.2985846  )
         2           S   tau(   2) = (   0.8646417   0.0856217   0.4689279  )
         3           S   tau(   3) = (   0.8663890   0.0857843   0.1351291  )
         4           Mo  tau(   4) = (   0.8560186   0.4753274   0.2873942  )
         5           S   tau(   5) = (   0.6873294   0.3936244   0.4596353  )
         6           S   tau(   6) = (   0.6929804   0.3713468   0.1185692  )
         7           Mo  tau(   7) = (   0.6862796   0.7633098   0.2825370  )
         8           S   tau(   8) = (   0.8545980   0.6708292   0.4486168  )
         9           S   tau(   9) = (   0.8545123   0.6666874   0.1146125  )
        10           Mo  tau(  10) = (   0.8629403   1.0471007   0.3006803  )
        11           S   tau(  11) = (   0.6868280   0.9456650   0.4634891  )
        12           S   tau(  12) = (   0.6998113   0.9568511   0.1205389  )
        13           Mo  tau(  13) = (   0.3618216   0.1847309   0.2935964  )
        14           S   tau(  14) = (   0.5260962   0.0863870   0.4600448  )
        15           S   tau(  15) = (   0.5348379   0.0894875   0.1297123  )
        16           Mo  tau(  16) = (   0.5265817   0.4772436   0.2784130  )
        17           S   tau(  17) = (   0.3624753   0.3882513   0.4525556  )
        18           S   tau(  18) = (   0.3635411   0.3752055   0.1119148  )
        19           Mo  tau(  19) = (   0.3652268   0.7630864   0.2781795  )
        20           S   tau(  20) = (   0.5269494   0.6690381   0.1096838  )
        21           Mo  tau(  21) = (   0.5300192   1.0470394   0.2900995  )
        22           S   tau(  22) = (   0.3670346   0.9457522   0.4574073  )
        23           S   tau(  23) = (   0.3604225   0.9585725   0.1159032  )
        24           Mo  tau(  24) = (   0.0313099   0.1847895   0.3013130  )
        25           S   tau(  25) = (   0.1956761   0.0838230   0.4650863  )
        26           S   tau(  26) = (   0.1967693   0.0903508   0.1278874  )
        27           Mo  tau(  27) = (   0.1967578   0.4753919   0.2813011  )
        28           S   tau(  28) = (   0.0287851   0.3864324   0.4586755  )
        29           S   tau(  29) = (   0.0244514   0.3729871   0.1239344  )
        30           Mo  tau(  30) = (   0.0286728   0.7631204   0.2856894  )
        31           S   tau(  31) = (   0.2011512   0.6675435   0.4465001  )
        32           S   tau(  32) = (   0.1969214   0.6672839   0.1104564  )
        33           Mo  tau(  33) = (   0.1950294   1.0511147   0.2932237  )
        34           S   tau(  34) = (   0.0312912   0.9612169   0.4667423  )
        35           S   tau(  35) = (   0.0292670   0.9563028   0.1216485  )
        36           H   tau(  36) = (   0.6666667   0.1284079   0.5407634  )

     number of k points=     1  Gaussian smearing, width (Ry)=  0.0100
                       cart. coord. in units 2pi/alat
        k(    1) = (   0.0000000   0.0000000   0.0000000), wk =   2.0000000

     Dense  grid:  1177734 G-vectors     FFT dimensions: ( 120, 135, 320)

     Smooth grid:   842757 G-vectors     FFT dimensions: ( 108, 120, 270)

     Estimated max dynamical RAM per process >     146.59 MB

     Estimated total dynamical RAM >       6.87 GB

     Initial potential from superposition of free atoms

     starting charge     306.9873, renormalised to     307.0000

     negative rho (up, down):  1.418E-04 0.000E+00


---------------------------------------------------------------------------------
Carrying out rVV10 run using the following parameters:
Nqs =      20    Nr_points =    1024   r_max =   100.000
b_value =  6.30000    beta =  0.00901
     q_mesh =  0.00010000  0.00030000  0.00058939  0.00100810
               0.00161396  0.00249058  0.00375900  0.00559430
               0.00824984  0.01209221  0.01765183  0.02569619
               0.03733578  0.05417739  0.07854596  0.11380545
               0.16482331  0.23864234  0.34545298  0.50000000

Gradients computed in Reciprocal space

---------------------------------------------------------------------------------


     Starting wfcs are  213 randomized atomic wfcs

     total cpu time spent up to now is        3.9 secs

     Self-consistent Calculation

     iteration #  1     ecut=    80.00 Ry     beta= 0.70
     Davidson diagonalization with overlap
     ethr =  1.00E-02,  avg # of iterations =  2.0

     Threshold (ethr) on eigenvalues was too large:
     Diagonalizing with lowered threshold

     Davidson diagonalization with overlap
     ethr =  3.87E-04,  avg # of iterations =  4.0

     negative rho (up, down):  2.346E-08 0.000E+00

     total cpu time spent up to now is       20.2 secs

     total energy              =   -2205.59204893 Ry
     estimated scf accuracy    <       1.47999126 Ry

     iteration #  2     ecut=    80.00 Ry     beta= 0.70
     Davidson diagonalization with overlap
     ethr =  4.82E-04,  avg # of iterations =  1.0

     total cpu time spent up to now is       22.5 secs

     total energy              =   -2205.42328882 Ry
     estimated scf accuracy    <       0.60152238 Ry

     iteration #  3     ecut=    80.00 Ry     beta= 0.70
     Davidson diagonalization with overlap
     ethr =  1.96E-04,  avg # of iterations =  5.0

     total cpu time spent up to now is       25.0 secs

     total energy              =   -2205.51845849 Ry
     estimated scf accuracy    <       0.06259551 Ry

     iteration #  4     ecut=    80.00 Ry     beta= 0.70
     Davidson diagonalization with overlap
     ethr =  2.04E-05,  avg # of iterations = 17.0

     total cpu time spent up to now is       28.3 secs

     total energy              =   -2205.52273139 Ry
     estimated scf accuracy    <       0.03053607 Ry

     iteration #  5     ecut=    80.00 Ry     beta= 0.70
     Davidson diagonalization with overlap
     ethr =  9.95E-06,  avg # of iterations =  2.0

     total cpu time spent up to now is       30.5 secs

     total energy              =   -2205.52158205 Ry
     estimated scf accuracy    <       0.02014135 Ry

     iteration #  6     ecut=    80.00 Ry     beta= 0.70
     Davidson diagonalization with overlap
     ethr =  6.56E-06,  avg # of iterations =  2.0

     total cpu time spent up to now is       32.7 secs

     total energy              =   -2205.52136528 Ry
     estimated scf accuracy    <       0.01232555 Ry

     iteration #  7     ecut=    80.00 Ry     beta= 0.70
     Davidson diagonalization with overlap
     ethr =  4.01E-06,  avg # of iterations =  2.0

     total cpu time spent up to now is       34.9 secs

     total energy              =   -2205.51967144 Ry
     estimated scf accuracy    <       0.01138039 Ry

     iteration #  8     ecut=    80.00 Ry     beta= 0.70
     Davidson diagonalization with overlap
     ethr =  3.71E-06,  avg # of iterations =  2.0

     negative rho (up, down):  4.011E-04 0.000E+00

     total cpu time spent up to now is       39.6 secs

     total energy              =   -2205.51895282 Ry
     estimated scf accuracy    <       0.00482139 Ry

     iteration #  9     ecut=    80.00 Ry     beta= 0.70
     Davidson diagonalization with overlap
     ethr =  1.57E-06,  avg # of iterations =  2.0

     negative rho (up, down):  1.451E-02 0.000E+00

     total cpu time spent up to now is       44.7 secs

     total energy              =   -2205.51875324 Ry
     estimated scf accuracy    <       0.00287094 Ry

     iteration # 10     ecut=    80.00 Ry     beta= 0.70
     Davidson diagonalization with overlap
     ethr =  9.35E-07,  avg # of iterations =  2.0

     negative rho (up, down):  2.853E-02 0.000E+00

     total cpu time spent up to now is       49.1 secs

     total energy              =   -2205.51873832 Ry
     estimated scf accuracy    <       0.00175479 Ry

     iteration # 11     ecut=    80.00 Ry     beta= 0.70
     Davidson diagonalization with overlap
     ethr =  5.72E-07,  avg # of iterations =  2.0

     negative rho (up, down):  2.455E-02 0.000E+00

     total cpu time spent up to now is       53.9 secs

     total energy              =   -2205.51883776 Ry
     estimated scf accuracy    <       0.00062725 Ry

     iteration # 12     ecut=    80.00 Ry     beta= 0.70
     Davidson diagonalization with overlap
     ethr =  2.04E-07,  avg # of iterations =  6.0

     negative rho (up, down):  1.144E-02 0.000E+00

     total cpu time spent up to now is       59.1 secs

     total energy              =   -2205.51889210 Ry
     estimated scf accuracy    <       0.00009105 Ry

     iteration # 13     ecut=    80.00 Ry     beta= 0.70
     Davidson diagonalization with overlap
     c_bands:  1 eigenvalues not converged
     ethr =  2.97E-08,  avg # of iterations = 20.0

     negative rho (up, down):  1.882E-03 0.000E+00

     total cpu time spent up to now is       66.6 secs

     total energy              =   -2205.51893341 Ry
     estimated scf accuracy    <       0.00001789 Ry

     iteration # 14     ecut=    80.00 Ry     beta= 0.70
     Davidson diagonalization with overlap
     c_bands:  1 eigenvalues not converged
     ethr =  5.83E-09,  avg # of iterations = 20.0

     negative rho (up, down):  5.110E-04 0.000E+00

     total cpu time spent up to now is       76.4 secs

     total energy              =   -2205.51893976 Ry
     estimated scf accuracy    <       0.00000231 Ry

     iteration # 15     ecut=    80.00 Ry     beta= 0.70
     Davidson diagonalization with overlap
     ethr =  7.52E-10,  avg # of iterations =  5.0

     negative rho (up, down):  1.372E-04 0.000E+00

     total cpu time spent up to now is       78.6 secs

     End of self-consistent calculation

          k = 0.0000 0.0000 0.0000 (105382 PWs)   bands (ev):

   -62.9069 -62.8799 -62.8633 -62.8607 -62.8264 -62.8229 -62.8177 -62.8125
   -62.7415 -62.6506 -62.6217 -62.5860 -37.2233 -37.1557 -37.1493 -37.1307
   -37.1268 -37.1111 -37.1022 -37.0999 -37.0655 -37.0593 -37.0532 -37.0424
   -37.0192 -37.0101 -37.0010 -36.9984 -36.9975 -36.9960 -36.9900 -36.9832
   -36.9373 -36.9113 -36.9005 -36.8808 -36.8614 -36.8574 -36.8408 -36.8367
   -36.8106 -36.8018 -36.7909 -36.7809 -36.7582 -36.7254 -36.6120 -36.5905
   -16.1777 -15.5381 -15.1499 -15.0159 -14.9451 -14.8929 -14.5836 -14.4968
   -14.4605 -14.4315 -14.3781 -14.3673 -14.3291 -14.2663 -14.1381 -14.1141
   -14.0900 -14.0767 -14.0331 -13.8931 -13.7990 -13.7842 -13.7585  -8.8363
    -7.6592  -7.4690  -7.3178  -7.2878  -7.2268  -7.1860  -7.1367  -6.9635
    -6.8372  -6.7672  -6.7404  -6.6768  -6.6472  -6.4834  -6.4315  -6.3963
    -6.3461  -6.2804  -6.1005  -5.9628  -5.9276  -5.8639  -5.8023  -5.7907
    -5.7657  -5.7221  -5.6475  -5.6334  -5.5878  -5.5409  -5.5296  -5.4333
    -5.3975  -5.3579  -5.2088  -5.1365  -5.0561  -5.0095  -4.9580  -4.9519
    -4.9112  -4.7973  -4.7153  -4.4857  -4.3751  -4.2886  -4.2549  -4.2095
    -4.1698  -4.1100  -3.9770  -3.9674  -3.8526  -3.7651  -3.7142  -3.6549
    -3.6142  -3.5388  -3.5133  -3.4819  -3.4718  -3.4562  -3.4326  -3.4070
    -3.3689  -3.2026  -3.1713  -2.8819  -2.8544  -2.7843  -2.7582  -2.7199
    -2.7094  -2.6583  -2.6450  -2.5748  -2.5060  -2.2349  -1.9922  -1.9775
    -1.8452  -0.7252  -0.6944  -0.5604  -0.1776  -0.1104  -0.0657   0.0420
     0.0884   0.1387   0.1685   0.2115   0.2343   0.2761   0.3446   0.4223
     0.4961   0.5733   0.5814   0.6231   0.6534   0.6658   0.7002   0.7546
     0.7639   0.8130   0.8826   0.9228   0.9737   0.9954   1.0786   1.3273
     1.4222

     the Fermi energy is    -0.7774 ev

!    total energy              =   -2205.51894124 Ry
     estimated scf accuracy    <       0.00000074 Ry
     smearing contrib. (-TS)   =      -0.00920234 Ry
     internal energy E=F+TS    =   -2205.50973890 Ry

     The total energy is F=E-TS. E is the sum of the following terms:
     one-electron contribution =  -18055.15966101 Ry
     hartree contribution      =    9014.53575691 Ry
     xc contribution           =    -385.31081810 Ry
     ewald contribution        =    7220.42498331 Ry

     convergence has been achieved in  15 iterations

     negative rho (up, down):  1.372E-04 0.000E+00

     Forces acting on atoms (cartesian axes, Ry/au):

     atom    1 type  1   force =     0.02370948    0.00843547   -0.03212990
     atom    2 type  2   force =    -0.01111395    0.00931393    0.01662827
     atom    3 type  2   force =    -0.01213362    0.00815216   -0.00461506
     atom    4 type  1   force =     0.00981295   -0.00460036   -0.00008472
     atom    5 type  2   force =    -0.00068510    0.00125738   -0.00437415
     atom    6 type  2   force =     0.00449404    0.00734253    0.00117845
     atom    7 type  1   force =     0.00029522   -0.00071433   -0.00867077
     atom    8 type  2   force =     0.00170155   -0.00516070    0.01768895
     atom    9 type  2   force =     0.01325905    0.00443590    0.01028244
     atom   10 type  1   force =    -0.01288944    0.00738152   -0.02851566
     atom   11 type  2   force =     0.00369582   -0.00679989   -0.00366182
     atom   12 type  2   force =     0.00071426    0.00231383    0.00558516
     atom   13 type  1   force =    -0.00373035    0.02569013   -0.01413206
     atom   14 type  2   force =     0.02698295   -0.01160207    0.06120008
     atom   15 type  2   force =    -0.01240071    0.00126968   -0.00885430
     atom   16 type  1   force =    -0.00186055   -0.00176716   -0.00313721
     atom   17 type  2   force =     0.00177092    0.00336753    0.00418604
     atom   18 type  2   force =    -0.00362395   -0.00784955    0.01399640
     atom   19 type  1   force =     0.00575274   -0.00569064   -0.00342534
     atom   20 type  2   force =     0.00364651   -0.00468521    0.00088673
     atom   21 type  1   force =     0.00447142   -0.00369405    0.00077996
     atom   22 type  2   force =    -0.00492344   -0.00419435    0.00100755
     atom   23 type  2   force =    -0.00030091    0.00163669    0.00726062
     atom   24 type  1   force =    -0.00448195    0.00374573   -0.02226928
     atom   25 type  2   force =     0.01369724    0.01820995    0.00637366
     atom   26 type  2   force =    -0.01038215    0.00014833   -0.00374294
     atom   27 type  1   force =    -0.00435889   -0.00233640    0.01118894
     atom   28 type  2   force =     0.00238475    0.00057419   -0.00593148
     atom   29 type  2   force =     0.00201931   -0.00007103   -0.00347071
     atom   30 type  1   force =    -0.00463723    0.01254030   -0.00573688
     atom   31 type  2   force =     0.00093546    0.00022330    0.01757320
     atom   32 type  2   force =    -0.00999459    0.00485890    0.00634535
     atom   33 type  1   force =     0.01493758   -0.00225255   -0.00767553
     atom   34 type  2   force =     0.00420063   -0.04392305   -0.00958671
     atom   35 type  2   force =    -0.00757650    0.00607047    0.01415711
     atom   36 type  3   force =    -0.03338855   -0.02162659   -0.02630436
     The non-local contrib.  to forces
     atom    1 type  1   force =     0.00282644    0.02897829   -0.01555395
     atom    2 type  2   force =    -0.07067318    0.02392320   -0.21626239
     atom    3 type  2   force =    -0.01433233   -0.00165079    0.27267410
     atom    4 type  1   force =    -0.00187525    0.01305177    0.00395221
     atom    5 type  2   force =     0.00982090   -0.02732073   -0.24279548
     atom    6 type  2   force =     0.00093861    0.00429317    0.26407998
     atom    7 type  1   force =    -0.02478630   -0.01213459   -0.01645020
     atom    8 type  2   force =     0.00389640   -0.00435125   -0.25380116
     atom    9 type  2   force =     0.00895032   -0.01146486    0.27687378
     atom   10 type  1   force =     0.00579496   -0.00399000   -0.00257200
     atom   11 type  2   force =     0.01343360    0.01226682   -0.25933790
     atom   12 type  2   force =    -0.01269944   -0.01580090    0.26320771
     atom   13 type  1   force =    -0.00548754    0.02270508   -0.01136659
     atom   14 type  2   force =     0.23450211    0.07170015   -0.06277857
     atom   15 type  2   force =    -0.01421340   -0.00502710    0.26270831
     atom   16 type  1   force =     0.00157769    0.04988865   -0.01855406
     atom   17 type  2   force =     0.00097510   -0.02972060   -0.25104922
     atom   18 type  2   force =    -0.00508791   -0.01010607    0.27671321
     atom   19 type  1   force =     0.02052494   -0.00714274   -0.01233987
     atom   20 type  2   force =     0.00063839   -0.02206011    0.26423874
     atom   21 type  1   force =     0.00393575    0.01511686   -0.00225940
     atom   22 type  2   force =    -0.01181446    0.00410862   -0.25673493
     atom   23 type  2   force =     0.00633365   -0.01377739    0.26709588
     atom   24 type  1   force =     0.00661049    0.01831884   -0.01346441
     atom   25 type  2   force =     0.00722460    0.00326167   -0.25305935
     atom   26 type  2   force =    -0.00136840   -0.00897788    0.26505986
     atom   27 type  1   force =    -0.00071308    0.01703969    0.00707706
     atom   28 type  2   force =    -0.00368802   -0.02578145   -0.27330138
     atom   29 type  2   force =     0.00674077    0.00085647    0.26513501
     atom   30 type  1   force =     0.00228012    0.01557011    0.01009810
     atom   31 type  2   force =    -0.00801720    0.00074374   -0.25228243
     atom   32 type  2   force =    -0.00549916   -0.01316490    0.27098249
     atom   33 type  1   force =    -0.00764625    0.00348868    0.01022542
     atom   34 type  2   force =     0.00037891   -0.03763001   -0.27214255
     atom   35 type  2   force =    -0.00175824   -0.01061281    0.27132687
     atom   36 type  3   force =    -0.02138753   -0.00857894   -0.01960381
     The ionic contribution  to forces
     atom    1 type  1   force =     0.53543696    0.54791763    4.49372556
     atom    2 type  2   force =     0.04920414    0.24500515   39.03979972
     atom    3 type  2   force =    -0.10813474    0.00078530  -36.18246199
     atom    4 type  1   force =     0.20504498    0.79839962    0.57261611
     atom    5 type  2   force =    -0.93365494    1.92923803   38.63811215
     atom    6 type  2   force =     0.35140735   -0.44147294  -38.09568865
     atom    7 type  1   force =    -2.60850117   -2.83994848    2.54478563
     atom    8 type  2   force =    -0.95539949    0.05194999   37.39673280
     atom    9 type  2   force =     0.35320738   -0.02687739  -38.00106283
     atom   10 type  1   force =    -0.87194871   -0.61737256    5.43632187
     atom   11 type  2   force =    -0.54706072   -1.86467845   39.10149390
     atom   12 type  2   force =     0.44788275    0.64047053  -37.89347353
     atom   13 type  1   force =     0.17402263    1.05634062    2.61724121
     atom   14 type  2   force =    -1.03994659   -0.34056109   37.90484082
     atom   15 type  2   force =     0.11266795   -0.07962610  -36.92626779
     atom   16 type  1   force =    -0.11613794    4.18466051    0.36498566
     atom   17 type  2   force =     0.69481535    1.62493745   37.91450586
     atom   18 type  2   force =    -0.18785761   -0.61187051  -38.59025483
     atom   19 type  1   force =     2.66985803   -2.47909204    0.66420419
     atom   20 type  2   force =     0.21981414   -0.18816312  -38.47777035
     atom   21 type  1   force =    -0.15286689   -0.30369667    0.86591842
     atom   22 type  2   force =     0.38290228   -1.81802878   38.42822303
     atom   23 type  2   force =    -0.10733345    0.63398575  -38.30089222
     atom   24 type  1   force =    -0.33193313    1.19143876    5.69042996
     atom   25 type  2   force =     0.62300467    0.26166528   39.26181948
     atom   26 type  2   force =    -0.29686753    0.05794687  -37.35781432
     atom   27 type  1   force =     0.00664911    0.50526689   -2.25771981
     atom   28 type  2   force =     0.13549921    1.10064092   38.20101396
     atom   29 type  2   force =    -0.24254787   -0.39633290  -37.28402208
     atom   30 type  1   force =    -0.30224002   -0.93115144   -0.01399317
     atom   31 type  2   force =     1.21991215   -0.04167695   37.34219657
     atom   32 type  2   force =    -0.48305925    0.00023678  -38.62181863
     atom   33 type  1   force =     0.76494816   -0.96415603    2.03167255
     atom   34 type  2   force =     0.29773320   -1.52383176   39.35811111
     atom   35 type  2   force =    -0.28384567    0.44926751  -37.82004132
     atom   36 type  3   force =     0.32532527    0.18838360    7.95453095
     The local contribution  to forces
     atom    1 type  1   force =    -0.51463459   -0.56813763   -4.50954999
     atom    2 type  2   force =     0.00628975   -0.25821028  -38.82430576
     atom    3 type  2   force =     0.10972416    0.00910825   35.92674230
     atom    4 type  1   force =    -0.19359138   -0.81585796   -0.57576448
     atom    5 type  2   force =     0.92386467   -1.90246069  -38.41923439
     atom    6 type  2   force =    -0.34801859    0.44542024   37.85428179
     atom    7 type  1   force =     2.63374771    2.85109083   -2.53620226
     atom    8 type  2   force =     0.95336247   -0.05335576  -37.14536788
     atom    9 type  2   force =    -0.34866361    0.04201952   37.75592812
     atom   10 type  1   force =     0.85339014    0.62865507   -5.46116698
     atom   11 type  2   force =     0.53792758    1.84663252  -38.86609797
     atom   12 type  2   force =    -0.43562283   -0.62380435   37.65716695
     atom   13 type  1   force =    -0.17214462   -1.05304476   -2.61906781
     atom   14 type  2   force =     0.84719291    0.26222095  -37.78929127
     atom   15 type  2   force =    -0.11160954    0.08568005   36.67597772
     atom   16 type  1   force =     0.11286763   -4.23646885   -0.34871295
     atom   17 type  2   force =    -0.69398909   -1.59340891  -37.67934316
     atom   18 type  2   force =     0.18926331    0.61437924   38.34922247
     atom   19 type  1   force =    -2.68475014    2.48043013   -0.65445232
     atom   20 type  2   force =    -0.21685980    0.20458848   38.23601600
     atom   21 type  1   force =     0.15343255    0.28477301   -0.86176481
     atom   22 type  2   force =    -0.37643579    1.81033793  -38.19057051
     atom   23 type  2   force =     0.10120798   -0.61983352   38.06238597
     atom   24 type  1   force =     0.32075035   -1.20597292   -5.69816387
     atom   25 type  2   force =    -0.61654055   -0.24641980  -39.02246832
     atom   26 type  2   force =     0.28802961   -0.04929854   37.11048901
     atom   27 type  1   force =    -0.01024813   -0.52444942    2.26275172
     atom   28 type  2   force =    -0.12970996   -1.07610859  -37.95426993
     atom   29 type  2   force =     0.23838272    0.39600579   37.03655922
     atom   30 type  1   force =     0.29529833    0.92786868   -0.00096491
     atom   31 type  2   force =    -1.21151550    0.04104654  -37.09250008
     atom   32 type  2   force =     0.47849860    0.01694769   38.37851445
     atom   33 type  1   force =    -0.74248106    0.95825932   -2.04851447
     atom   34 type  2   force =    -0.29423984    1.51641476  -39.11634077
     atom   35 type  2   force =     0.27816848   -0.43365469   37.58447442
     atom   36 type  3   force =    -0.33732873   -0.20143229   -7.96118917
     The core correction contribution to forces
     atom    1 type  1   force =     0.00000000    0.00000000    0.00000000
     atom    2 type  2   force =     0.00418416   -0.00143310    0.01756696
     atom    3 type  2   force =     0.00063803   -0.00002455   -0.02103523
     atom    4 type  1   force =     0.00000000    0.00000000    0.00000000
     atom    5 type  2   force =    -0.00075513    0.00199018    0.01960829
     atom    6 type  2   force =     0.00008049   -0.00069419   -0.02090563
     atom    7 type  1   force =     0.00000000    0.00000000    0.00000000
     atom    8 type  2   force =    -0.00012434    0.00052993    0.02035596
     atom    9 type  2   force =    -0.00024659    0.00069896   -0.02097911
     atom   10 type  1   force =     0.00000000    0.00000000    0.00000000
     atom   11 type  2   force =    -0.00059899   -0.00109907    0.02049934
     atom   12 type  2   force =     0.00115046    0.00126432   -0.02080565
     atom   13 type  1   force =     0.00000000    0.00000000    0.00000000
     atom   14 type  2   force =    -0.01479449   -0.00498425    0.00864085
     atom   15 type  2   force =     0.00078460    0.00032683   -0.02073149
     atom   16 type  1   force =     0.00000000    0.00000000    0.00000000
     atom   17 type  2   force =     0.00003145    0.00171633    0.02020936
     atom   18 type  2   force =     0.00017407   -0.00006411   -0.02114229
     atom   19 type  1   force =     0.00000000    0.00000000    0.00000000
     atom   20 type  2   force =     0.00008309    0.00083012   -0.02111324
     atom   21 type  1   force =     0.00000000    0.00000000    0.00000000
     atom   22 type  2   force =     0.00038108   -0.00067053    0.02035042
     atom   23 type  2   force =    -0.00054416    0.00110215   -0.02084903
     atom   24 type  1   force =     0.00000000    0.00000000    0.00000000
     atom   25 type  2   force =    -0.00007944   -0.00033831    0.02029458
     atom   26 type  2   force =    -0.00023042    0.00049093   -0.02095741
     atom   27 type  1   force =     0.00000000    0.00000000    0.00000000
     atom   28 type  2   force =     0.00027701    0.00191887    0.02085854
     atom   29 type  2   force =    -0.00057425   -0.00046682   -0.02067293
     atom   30 type  1   force =     0.00000000    0.00000000    0.00000000
     atom   31 type  2   force =     0.00049815    0.00007987    0.02043987
     atom   32 type  2   force =     0.00003648    0.00079808   -0.02088308
     atom   33 type  1   force =     0.00000000    0.00000000    0.00000000
     atom   34 type  2   force =     0.00035432    0.00107215    0.02104504
     atom   35 type  2   force =    -0.00011126    0.00093040   -0.02110902
     atom   36 type  3   force =     0.00000000    0.00000000    0.00000000
     The Hubbard contrib.    to forces
     atom    1 type  1   force =     0.00000000    0.00000000    0.00000000
     atom    2 type  2   force =     0.00000000    0.00000000    0.00000000
     atom    3 type  2   force =     0.00000000    0.00000000    0.00000000
     atom    4 type  1   force =     0.00000000    0.00000000    0.00000000
     atom    5 type  2   force =     0.00000000    0.00000000    0.00000000
     atom    6 type  2   force =     0.00000000    0.00000000    0.00000000
     atom    7 type  1   force =     0.00000000    0.00000000    0.00000000
     atom    8 type  2   force =     0.00000000    0.00000000    0.00000000
     atom    9 type  2   force =     0.00000000    0.00000000    0.00000000
     atom   10 type  1   force =     0.00000000    0.00000000    0.00000000
     atom   11 type  2   force =     0.00000000    0.00000000    0.00000000
     atom   12 type  2   force =     0.00000000    0.00000000    0.00000000
     atom   13 type  1   force =     0.00000000    0.00000000    0.00000000
     atom   14 type  2   force =     0.00000000    0.00000000    0.00000000
     atom   15 type  2   force =     0.00000000    0.00000000    0.00000000
     atom   16 type  1   force =     0.00000000    0.00000000    0.00000000
     atom   17 type  2   force =     0.00000000    0.00000000    0.00000000
     atom   18 type  2   force =     0.00000000    0.00000000    0.00000000
     atom   19 type  1   force =     0.00000000    0.00000000    0.00000000
     atom   20 type  2   force =     0.00000000    0.00000000    0.00000000
     atom   21 type  1   force =     0.00000000    0.00000000    0.00000000
     atom   22 type  2   force =     0.00000000    0.00000000    0.00000000
     atom   23 type  2   force =     0.00000000    0.00000000    0.00000000
     atom   24 type  1   force =     0.00000000    0.00000000    0.00000000
     atom   25 type  2   force =     0.00000000    0.00000000    0.00000000
     atom   26 type  2   force =     0.00000000    0.00000000    0.00000000
     atom   27 type  1   force =     0.00000000    0.00000000    0.00000000
     atom   28 type  2   force =     0.00000000    0.00000000    0.00000000
     atom   29 type  2   force =     0.00000000    0.00000000    0.00000000
     atom   30 type  1   force =     0.00000000    0.00000000    0.00000000
     atom   31 type  2   force =     0.00000000    0.00000000    0.00000000
     atom   32 type  2   force =     0.00000000    0.00000000    0.00000000
     atom   33 type  1   force =     0.00000000    0.00000000    0.00000000
     atom   34 type  2   force =     0.00000000    0.00000000    0.00000000
     atom   35 type  2   force =     0.00000000    0.00000000    0.00000000
     atom   36 type  3   force =     0.00000000    0.00000000    0.00000000
     The SCF correction term to forces
     atom    1 type  1   force =     0.00008055   -0.00032777   -0.00072706
     atom    2 type  2   force =    -0.00011893    0.00002400   -0.00014581
     atom    3 type  2   force =    -0.00002887   -0.00007101   -0.00050978
     atom    4 type  1   force =     0.00023448   -0.00019875   -0.00086410
     atom    5 type  2   force =     0.00003929   -0.00019438   -0.00004026
     atom    6 type  2   force =     0.00008606   -0.00020871   -0.00056458
     atom    7 type  1   force =    -0.00016513    0.00027295   -0.00077949
     atom    8 type  2   force =    -0.00003361    0.00006141   -0.00020632
     atom    9 type  2   force =     0.00001144    0.00005470   -0.00045306
     atom   10 type  1   force =    -0.00012596    0.00008405   -0.00107410
     atom   11 type  2   force =    -0.00000575    0.00007332   -0.00019473
     atom   12 type  2   force =     0.00000321    0.00017927   -0.00048586
     atom   13 type  1   force =    -0.00012094   -0.00031576   -0.00091442
     atom   14 type  2   force =     0.00002888    0.00001721   -0.00018729
     atom   15 type  2   force =    -0.00003044   -0.00008895   -0.00051659
     atom   16 type  1   force =    -0.00016805    0.00014757   -0.00083140
     atom   17 type  2   force =    -0.00006199   -0.00016170   -0.00011233
     atom   18 type  2   force =    -0.00011594   -0.00019306   -0.00051770
     atom   19 type  1   force =     0.00011979    0.00010905   -0.00081289
     atom   20 type  2   force =    -0.00002943    0.00011446   -0.00045996
     atom   21 type  1   force =    -0.00003012    0.00010780   -0.00108980
     atom   22 type  2   force =     0.00004333    0.00005344   -0.00023600
     atom   23 type  2   force =     0.00003496    0.00015474   -0.00045552
     atom   24 type  1   force =     0.00009022   -0.00004392   -0.00104650
     atom   25 type  2   force =     0.00008784    0.00003615   -0.00018828
     atom   26 type  2   force =     0.00005447   -0.00001802   -0.00049562
     atom   27 type  1   force =    -0.00004691   -0.00019852   -0.00089558
     atom   28 type  2   force =     0.00000640   -0.00010052   -0.00020822
     atom   29 type  2   force =     0.00001782   -0.00013853   -0.00044546
     atom   30 type  1   force =     0.00002422    0.00024798   -0.00085244
     atom   31 type  2   force =     0.00005774    0.00002514   -0.00025627
     atom   32 type  2   force =     0.00002862    0.00003628   -0.00042543
     atom   33 type  1   force =     0.00011661    0.00015053   -0.00103456
     atom   34 type  2   force =    -0.00002607    0.00004684   -0.00023509
     atom   35 type  2   force =    -0.00002993    0.00013510   -0.00046938
     atom   36 type  3   force =     0.00000233   -0.00000393   -0.00001788

     Total force =     0.133208     Total SCF correction =     0.003792

     BFGS Geometry Optimization
     Energy error            =      0.0E+00 Ry
     Gradient error          =      6.1E-02 Ry/Bohr

     number of scf cycles    =   1
     number of bfgs steps    =   0

     energy             new  =   -2205.5189412392 Ry

     new trust radius        =       0.0678832573 bohr
     new conv_thr            =       0.0000010000 Ry


ATOMIC_POSITIONS (angstrom)
Mo            6.5870949252        1.7922700897        2.8066406197
S             8.1708280921        0.8146327430        4.4433376542
S             8.1868122486        0.8155556820        1.2754412401
Mo            8.1003553527        4.4926225388        2.7177735607
S             6.4995467179        3.7230768641        4.3443459494
S             6.5557279409        3.5156230560        1.1219038374
Mo            6.4901379219        7.2180592789        2.6672961107
S             8.0826281512        6.3411400661        4.2518221528
S             8.0879340319        6.3070496925        1.0893042326
Mo            8.1537982488        9.9060865476        2.8283719230
S             6.4971233408        8.9393284671        4.3811677794
S             6.6183251723        9.0499356399        1.1428628404
Mo            3.4196856482        1.7605504818        2.7689927965
S             4.9894442517        0.8108016593        4.3829187777
S             5.0512715800        0.8469339967        1.2219729653
Mo            4.9787721211        4.5122428643        2.6312244072
S             3.4287787932        3.6733817038        4.2819247378
S             3.4360028665        3.5440748948        1.0657582599
Mo            3.4569059600        7.2133131799        2.6288642517
S             4.9851638411        6.3244529817        1.0377229683
Mo            5.0146300922        9.8996452458        2.7438136957
S             3.4683527422        8.9415317131        4.3261244843
S             3.4082699324        9.0658560823        1.0999104557
Mo            0.2937187415        1.7494916841        2.8376603120
S             1.8577104807        0.8023302968        4.4015822320
S             1.8553060387        0.8545044121        1.2074201761
Mo            1.8583846852        4.4944303930        2.6661183097
S             0.2734758065        3.6547026737        4.3344452937
S             0.2322997806        3.5272116400        1.1701812647
Mo            0.2686982359        7.2232821342        2.6986606023
S             1.9027332692        6.3129170029        4.2317434572
S             1.8569493033        6.3129150298        1.0479170963
Mo            1.8522512877        9.9389471553        2.7688845377
S             0.2981357767        9.0667547490        4.4087963979
S             0.2727620913        9.0467380702        1.1578923994
H             6.2868382085        1.2028779222        5.0999497970



     Writing config-only to output data dir ./MoS2-V-O.save/
     NEW-OLD atomic charge density approx. for the potential

     negative rho (up, down):  1.454E-04 0.000E+00

     total cpu time spent up to now is       82.0 secs

     Self-consistent Calculation

     iteration #  1     ecut=    80.00 Ry     beta= 0.70
     Davidson diagonalization with overlap
     ethr =  1.00E-06,  avg # of iterations = 10.0

     negative rho (up, down):  1.329E-04 0.000E+00

     total cpu time spent up to now is       95.8 secs

     total energy              =   -2205.53346867 Ry
     estimated scf accuracy    <       0.00175875 Ry

     iteration #  2     ecut=    80.00 Ry     beta= 0.70
     Davidson diagonalization with overlap
     ethr =  5.73E-07,  avg # of iterations =  2.0

     negative rho (up, down):  1.392E-04 0.000E+00

     total cpu time spent up to now is      111.4 secs

     total energy              =   -2205.53350734 Ry
     estimated scf accuracy    <       0.00036304 Ry

     iteration #  3     ecut=    80.00 Ry     beta= 0.70
     Davidson diagonalization with overlap
     ethr =  1.18E-07,  avg # of iterations =  5.0

     negative rho (up, down):  1.394E-04 0.000E+00

     total cpu time spent up to now is      125.9 secs

     total energy              =   -2205.53354144 Ry
     estimated scf accuracy    <       0.00012518 Ry

     iteration #  4     ecut=    80.00 Ry     beta= 0.70
     Davidson diagonalization with overlap
     ethr =  4.08E-08,  avg # of iterations =  4.0

     negative rho (up, down):  1.386E-04 0.000E+00

     total cpu time spent up to now is      145.1 secs

     total energy              =   -2205.53355595 Ry
     estimated scf accuracy    <       0.00001248 Ry

     iteration #  5     ecut=    80.00 Ry     beta= 0.70
     Davidson diagonalization with overlap
     ethr =  4.07E-09,  avg # of iterations =  7.0

     negative rho (up, down):  1.342E-04 0.000E+00

     total cpu time spent up to now is      158.6 secs

     total energy              =   -2205.53356007 Ry
     estimated scf accuracy    <       0.00000415 Ry

     iteration #  6     ecut=    80.00 Ry     beta= 0.70
     Davidson diagonalization with overlap
     ethr =  1.35E-09,  avg # of iterations =  2.0

     negative rho (up, down):  1.379E-04 0.000E+00

     total cpu time spent up to now is      160.6 secs

     End of self-consistent calculation

          k = 0.0000 0.0000 0.0000 (105382 PWs)   bands (ev):

   -62.9084 -62.8822 -62.8671 -62.8594 -62.8228 -62.8214 -62.8135 -62.8111
   -62.7393 -62.6444 -62.6237 -62.5843 -37.2189 -37.1558 -37.1470 -37.1303
   -37.1274 -37.1106 -37.1044 -37.0969 -37.0625 -37.0553 -37.0528 -37.0388
   -37.0153 -37.0068 -36.9986 -36.9971 -36.9954 -36.9920 -36.9874 -36.9785
   -36.9363 -36.9102 -36.9016 -36.8789 -36.8571 -36.8530 -36.8397 -36.8354
   -36.8085 -36.7977 -36.7886 -36.7803 -36.7561 -36.7277 -36.6104 -36.5903
   -16.1842 -15.5610 -15.1563 -15.0019 -14.9398 -14.8796 -14.5826 -14.4701
   -14.4651 -14.4241 -14.3820 -14.3667 -14.3342 -14.2621 -14.1323 -14.1163
   -14.0931 -14.0807 -14.0387 -13.8791 -13.8074 -13.7787 -13.7613  -8.8679
    -7.6514  -7.4571  -7.2812  -7.2737  -7.2370  -7.1893  -7.1359  -6.9611
    -6.8333  -6.7619  -6.7369  -6.6797  -6.6362  -6.4772  -6.4263  -6.4046
    -6.3372  -6.2687  -6.0906  -5.9465  -5.9192  -5.8601  -5.7974  -5.7928
    -5.7691  -5.7212  -5.6507  -5.6331  -5.6008  -5.5479  -5.5157  -5.4262
    -5.3841  -5.3460  -5.1844  -5.1230  -5.0613  -4.9982  -4.9569  -4.9398
    -4.9172  -4.8015  -4.7110  -4.4844  -4.3586  -4.2885  -4.2579  -4.2121
    -4.1768  -4.1092  -3.9820  -3.9781  -3.8421  -3.7574  -3.7037  -3.6497
    -3.6206  -3.5275  -3.5044  -3.4791  -3.4761  -3.4499  -3.4347  -3.4034
    -3.3654  -3.2112  -3.1752  -2.8833  -2.8504  -2.7742  -2.7583  -2.7248
    -2.7009  -2.6655  -2.6477  -2.5705  -2.5070  -2.2278  -1.9861  -1.9790
    -1.8652  -0.7330  -0.6958  -0.5528  -0.1866  -0.1040  -0.0733   0.0496
     0.0973   0.1314   0.1577   0.2164   0.2498   0.2847   0.3663   0.4151
     0.5033   0.5851   0.5867   0.6358   0.6465   0.6645   0.7020   0.7545
     0.7711   0.8339   0.8812   0.9220   0.9820   1.0001   1.0815   1.3224
     1.4147

     the Fermi energy is    -0.7818 ev

!    total energy              =   -2205.53356013 Ry
     estimated scf accuracy    <       0.00000090 Ry
     smearing contrib. (-TS)   =      -0.00907310 Ry
     internal energy E=F+TS    =   -2205.52448703 Ry

     The total energy is F=E-TS. E is the sum of the following terms:
     one-electron contribution =  -18051.76506415 Ry
     hartree contribution      =    9012.85171036 Ry
     xc contribution           =    -385.30686099 Ry
     ewald contribution        =    7218.69572775 Ry

     convergence has been achieved in   6 iterations

     negative rho (up, down):  1.379E-04 0.000E+00

     Forces acting on atoms (cartesian axes, Ry/au):

     atom    1 type  1   force =     0.00923680    0.00410065   -0.01548881
     atom    2 type  2   force =    -0.00430730    0.00761799    0.00432727
     atom    3 type  2   force =    -0.00880685    0.00731520   -0.01180276
     atom    4 type  1   force =     0.00734666   -0.00021950    0.00209869
     atom    5 type  2   force =     0.00087241   -0.00056531   -0.00638804
     atom    6 type  2   force =     0.00529746    0.00850171   -0.00323601
     atom    7 type  1   force =     0.00254483   -0.00153491   -0.00205811
     atom    8 type  2   force =     0.00138500   -0.00396726    0.01075686
     atom    9 type  2   force =     0.01145495    0.00344764    0.00723471
     atom   10 type  1   force =    -0.00596895    0.00687703   -0.00892360
     atom   11 type  2   force =     0.00421720   -0.00630217   -0.00543744
     atom   12 type  2   force =    -0.00105721    0.00188230   -0.00039585
     atom   13 type  1   force =     0.00359622    0.01381539   -0.00225552
     atom   14 type  2   force =     0.01799260   -0.00609613    0.04132069
     atom   15 type  2   force =    -0.00980383    0.00186330   -0.00615084
     atom   16 type  1   force =    -0.00168055   -0.00221959   -0.00089005
     atom   17 type  2   force =     0.00195756    0.00362433    0.00443509
     atom   18 type  2   force =    -0.00448603   -0.00434392    0.00897379
     atom   19 type  1   force =     0.00280617   -0.00515310    0.00072322
     atom   20 type  2   force =     0.00307652   -0.00438011   -0.00205565
     atom   21 type  1   force =     0.00278198   -0.00210087    0.00558691
     atom   22 type  2   force =    -0.00263193   -0.00367874   -0.00052783
     atom   23 type  2   force =     0.00169688    0.00043598    0.00391761
     atom   24 type  1   force =    -0.00403851    0.00008096   -0.00759884
     atom   25 type  2   force =     0.01015482    0.01562292   -0.00170535
     atom   26 type  2   force =    -0.00660725    0.00059101   -0.00549872
     atom   27 type  1   force =    -0.00249974    0.00017560    0.00853536
     atom   28 type  2   force =     0.00142133   -0.00170658   -0.00504039
     atom   29 type  2   force =     0.00273362    0.00132049   -0.00539280
     atom   30 type  1   force =    -0.00240810    0.00318414    0.00266528
     atom   31 type  2   force =     0.00022605    0.00126232    0.01121029
     atom   32 type  2   force =    -0.00835144    0.00373524    0.00592674
     atom   33 type  1   force =     0.00831978    0.00141068    0.00171469
     atom   34 type  2   force =     0.00107391   -0.03158497   -0.01484806
     atom   35 type  2   force =    -0.00540982    0.00734435    0.00748112
     atom   36 type  3   force =    -0.03213523   -0.02035604   -0.02121364
     The non-local contrib.  to forces
     atom    1 type  1   force =     0.00677201    0.02917897   -0.01592888
     atom    2 type  2   force =    -0.05701603    0.02077768   -0.22468700
     atom    3 type  2   force =    -0.01148263   -0.00218586    0.26784234
     atom    4 type  1   force =    -0.00062598    0.01214145    0.00281812
     atom    5 type  2   force =     0.01155555   -0.02655245   -0.24319983
     atom    6 type  2   force =     0.00183155    0.00380264    0.26190793
     atom    7 type  1   force =    -0.02415376   -0.01272270   -0.01719131
     atom    8 type  2   force =     0.00327612   -0.00419614   -0.25852781
     atom    9 type  2   force =     0.00706953   -0.01161537    0.27537304
     atom   10 type  1   force =     0.00410232   -0.00484015   -0.00439835
     atom   11 type  2   force =     0.01320023    0.01264624   -0.26019572
     atom   12 type  2   force =    -0.01345181   -0.01646997    0.26053288
     atom   13 type  1   force =    -0.00824275    0.02596540   -0.01287545
     atom   14 type  2   force =     0.24111095    0.07884468   -0.07797784
     atom   15 type  2   force =    -0.01122053   -0.00424073    0.26516826
     atom   16 type  1   force =     0.00171413    0.04868402   -0.01910434
     atom   17 type  2   force =     0.00109255   -0.02716432   -0.25037606
     atom   18 type  2   force =    -0.00623483   -0.00807867    0.27377703
     atom   19 type  1   force =     0.02131840   -0.00698138   -0.01341918
     atom   20 type  2   force =     0.00012391   -0.02153718    0.26282692
     atom   21 type  1   force =     0.00477482    0.01471398   -0.00589348
     atom   22 type  2   force =    -0.01011576    0.00353159   -0.25799227
     atom   23 type  2   force =     0.00765870   -0.01511337    0.26563918
     atom   24 type  1   force =     0.00585758    0.01957957   -0.01317597
     atom   25 type  2   force =     0.00427809    0.00081374   -0.25761202
     atom   26 type  2   force =     0.00150908   -0.00770753    0.26498252
     atom   27 type  1   force =    -0.00148876    0.01560769    0.00584055
     atom   28 type  2   force =    -0.00385496   -0.02590480   -0.27268710
     atom   29 type  2   force =     0.00697504    0.00021193    0.26445969
     atom   30 type  1   force =     0.00191595    0.01701704    0.00922883
     atom   31 type  2   force =    -0.00827669    0.00057321   -0.25686711
     atom   32 type  2   force =    -0.00353748   -0.01334975    0.27107369
     atom   33 type  1   force =    -0.00630913    0.00142379    0.00803654
     atom   34 type  2   force =    -0.00206248   -0.02784022   -0.27652769
     atom   35 type  2   force =    -0.00078893   -0.00918195    0.26805888
     atom   36 type  3   force =    -0.02637690   -0.01007233   -0.02120904
     The ionic contribution  to forces
     atom    1 type  1   force =     0.05948545    0.34388340    3.97701654
     atom    2 type  2   force =     0.14698383    0.14964867   39.10815925
     atom    3 type  2   force =    -0.03941954   -0.06555636  -36.27004387
     atom    4 type  1   force =     0.10621580    0.98908100    0.70191480
     atom    5 type  2   force =    -0.96580094    1.87146883   38.61384393
     atom    6 type  2   force =     0.29730074   -0.34487053  -38.11933391
     atom    7 type  1   force =    -2.56486707   -2.90472727    2.44696727
     atom    8 type  2   force =    -0.98587710    0.06970010   37.47017900
     atom    9 type  2   force =     0.32627135   -0.05730104  -37.94050327
     atom   10 type  1   force =    -0.61903276   -0.49177689    5.14638426
     atom   11 type  2   force =    -0.49433558   -1.83885685   39.09668077
     atom   12 type  2   force =     0.36743958    0.60444838  -37.91244540
     atom   13 type  1   force =     0.46277257    0.55817740    2.59272648
     atom   14 type  2   force =    -1.18306867   -0.27885778   37.97250672
     atom   15 type  2   force =     0.05514624   -0.12924010  -36.82709367
     atom   16 type  1   force =    -0.05252152    4.19229742    0.38372048
     atom   17 type  2   force =     0.74919201    1.58668117   37.99657792
     atom   18 type  2   force =    -0.19691019   -0.51683668  -38.57602164
     atom   19 type  1   force =     2.58620839   -2.46536671    0.64034374
     atom   20 type  2   force =     0.19832930   -0.18928739  -38.49734241
     atom   21 type  1   force =    -0.30825287    0.02237364    1.10574594
     atom   22 type  2   force =     0.38238673   -1.76472945   38.42881244
     atom   23 type  2   force =    -0.08821217    0.62582683  -38.25684490
     atom   24 type  1   force =    -0.20198343    0.83959681    5.46470805
     atom   25 type  2   force =     0.56208415    0.17678836   39.20305327
     atom   26 type  2   force =    -0.23349015   -0.01658796  -37.31515504
     atom   27 type  1   force =     0.05101136    0.70713204   -1.92716513
     atom   28 type  2   force =     0.11929718    1.01327780   38.24554086
     atom   29 type  2   force =    -0.19312718   -0.31617820  -37.35763801
     atom   30 type  1   force =    -0.21940724   -1.03534101   -0.04347959
     atom   31 type  2   force =     1.21520752    0.00537613   37.39587503
     atom   32 type  2   force =    -0.44684566   -0.02292748  -38.55357316
     atom   33 type  1   force =     0.66312571   -0.71756940    2.15143239
     atom   34 type  2   force =     0.24463777   -1.28837041   39.25124713
     atom   35 type  2   force =    -0.20328049    0.47323893  -37.74112116
     atom   36 type  3   force =     0.40333688    0.21538462    7.94432488
     The local contribution  to forces
     atom    1 type  1   force =    -0.05683758   -0.36891260   -3.97741584
     atom    2 type  2   force =    -0.09756002   -0.16154409  -38.89738944
     atom    3 type  2   force =     0.04154261    0.07519521   36.01114371
     atom    4 type  1   force =    -0.09802348   -1.00099383   -0.70296339
     atom    5 type  2   force =     0.95606630   -1.84734655  -38.39694645
     atom    6 type  2   force =    -0.29375911    0.35013936   37.87479994
     atom    7 type  1   force =     2.59211690    2.91553503   -2.43210114
     atom    8 type  2   force =     0.98409609   -0.07001161  -37.22172260
     atom    9 type  2   force =    -0.32179965    0.07156814   37.69330187
     atom   10 type  1   force =     0.60903028    0.50375193   -5.15103753
     atom   11 type  2   force =     0.48609132    1.82087900  -38.86279492
     atom   12 type  2   force =    -0.35619701   -0.58740853   37.67210853
     atom   13 type  1   force =    -0.45112367   -0.57042697   -2.58255308
     atom   14 type  2   force =     0.97538181    0.19936719  -37.86253104
     atom   15 type  2   force =    -0.05435971    0.13512182   36.57650581
     atom   16 type  1   force =     0.04933131   -4.24339973   -0.36595260
     atom   17 type  2   force =    -0.74850332   -1.55760093  -37.76214561
     atom   18 type  2   force =     0.19835478    0.52058874   38.33208370
     atom   19 type  1   force =    -2.60489404    2.46672399   -0.62649013
     atom   20 type  2   force =    -0.19527328    0.20557074   38.25326037
     atom   21 type  1   force =     0.30640270   -0.03867794   -1.09487231
     atom   22 type  2   force =    -0.37532214    1.75831241  -38.19194058
     atom   23 type  2   force =     0.08287218   -0.61123569   38.01562607
     atom   24 type  1   force =     0.19219064   -0.85931081   -5.45933862
     atom   25 type  2   force =    -0.55635793   -0.16169907  -38.96796119
     atom   26 type  2   force =     0.22573159    0.02452712   37.06558679
     atom   27 type  1   force =    -0.05246598   -0.72241886    1.92961152
     atom   28 type  2   force =    -0.11425223   -0.99093070  -37.99899530
     atom   29 type  2   force =     0.18946586    0.31772383   37.10823871
     atom   30 type  1   force =     0.21474177    1.02100180    0.03690108
     atom   31 type  2   force =    -1.20741876   -0.00496264  -37.14858963
     atom   32 type  2   force =     0.44194876    0.03901560   38.30914289
     atom   33 type  1   force =    -0.64864907    0.71830922   -2.15782777
     atom   34 type  2   force =    -0.24200547    1.28405209  -39.01101276
     atom   35 type  2   force =     0.19878447   -0.45753409   37.50137663
     atom   36 type  3   force =    -0.40907477   -0.22566091   -7.94440951
     The core correction contribution to forces
     atom    1 type  1   force =     0.00000000    0.00000000    0.00000000
     atom    2 type  2   force =     0.00359560   -0.00133570    0.01789159
     atom    3 type  2   force =     0.00057267   -0.00004489   -0.02094233
     atom    4 type  1   force =     0.00000000    0.00000000    0.00000000
     atom    5 type  2   force =    -0.00085376    0.00190648    0.01960339
     atom    6 type  2   force =     0.00001411   -0.00055781   -0.02085880
     atom    7 type  1   force =     0.00000000    0.00000000    0.00000000
     atom    8 type  2   force =    -0.00010829    0.00051552    0.02048857
     atom    9 type  2   force =    -0.00016452    0.00065645   -0.02094707
     atom   10 type  1   force =     0.00000000    0.00000000    0.00000000
     atom   11 type  2   force =    -0.00051826   -0.00113338    0.02053910
     atom   12 type  2   force =     0.00111912    0.00125578   -0.02076517
     atom   13 type  1   force =     0.00000000    0.00000000    0.00000000
     atom   14 type  2   force =    -0.01560715   -0.00536226    0.00877618
     atom   15 type  2   force =     0.00061602    0.00024137   -0.02077553
     atom   16 type  1   force =     0.00000000    0.00000000    0.00000000
     atom   17 type  2   force =     0.00005910    0.00160171    0.02021449
     atom   18 type  2   force =     0.00019819   -0.00005481   -0.02111696
     atom   19 type  1   force =     0.00000000    0.00000000    0.00000000
     atom   20 type  2   force =     0.00010713    0.00079836   -0.02108227
     atom   21 type  1   force =     0.00000000    0.00000000    0.00000000
     atom   22 type  2   force =     0.00030070   -0.00066889    0.02041006
     atom   23 type  2   force =    -0.00057405    0.00114416   -0.02083456
     atom   24 type  1   force =     0.00000000    0.00000000    0.00000000
     atom   25 type  2   force =     0.00001061   -0.00024997    0.02040712
     atom   26 type  2   force =    -0.00033406    0.00039146   -0.02094985
     atom   27 type  1   force =     0.00000000    0.00000000    0.00000000
     atom   28 type  2   force =     0.00026999    0.00184317    0.02088725
     atom   29 type  2   force =    -0.00055312   -0.00036751   -0.02069092
     atom   30 type  1   force =     0.00000000    0.00000000    0.00000000
     atom   31 type  2   force =     0.00048418    0.00013490    0.02055270
     atom   32 type  2   force =    -0.00005888    0.00075313   -0.02086979
     atom   33 type  1   force =     0.00000000    0.00000000    0.00000000
     atom   34 type  2   force =     0.00039813    0.00075988    0.02118359
     atom   35 type  2   force =    -0.00010954    0.00088165   -0.02102219
     atom   36 type  3   force =     0.00000000    0.00000000    0.00000000
     The Hubbard contrib.    to forces
     atom    1 type  1   force =     0.00000000    0.00000000    0.00000000
     atom    2 type  2   force =     0.00000000    0.00000000    0.00000000
     atom    3 type  2   force =     0.00000000    0.00000000    0.00000000
     atom    4 type  1   force =     0.00000000    0.00000000    0.00000000
     atom    5 type  2   force =     0.00000000    0.00000000    0.00000000
     atom    6 type  2   force =     0.00000000    0.00000000    0.00000000
     atom    7 type  1   force =     0.00000000    0.00000000    0.00000000
     atom    8 type  2   force =     0.00000000    0.00000000    0.00000000
     atom    9 type  2   force =     0.00000000    0.00000000    0.00000000
     atom   10 type  1   force =     0.00000000    0.00000000    0.00000000
     atom   11 type  2   force =     0.00000000    0.00000000    0.00000000
     atom   12 type  2   force =     0.00000000    0.00000000    0.00000000
     atom   13 type  1   force =     0.00000000    0.00000000    0.00000000
     atom   14 type  2   force =     0.00000000    0.00000000    0.00000000
     atom   15 type  2   force =     0.00000000    0.00000000    0.00000000
     atom   16 type  1   force =     0.00000000    0.00000000    0.00000000
     atom   17 type  2   force =     0.00000000    0.00000000    0.00000000
     atom   18 type  2   force =     0.00000000    0.00000000    0.00000000
     atom   19 type  1   force =     0.00000000    0.00000000    0.00000000
     atom   20 type  2   force =     0.00000000    0.00000000    0.00000000
     atom   21 type  1   force =     0.00000000    0.00000000    0.00000000
     atom   22 type  2   force =     0.00000000    0.00000000    0.00000000
     atom   23 type  2   force =     0.00000000    0.00000000    0.00000000
     atom   24 type  1   force =     0.00000000    0.00000000    0.00000000
     atom   25 type  2   force =     0.00000000    0.00000000    0.00000000
     atom   26 type  2   force =     0.00000000    0.00000000    0.00000000
     atom   27 type  1   force =     0.00000000    0.00000000    0.00000000
     atom   28 type  2   force =     0.00000000    0.00000000    0.00000000
     atom   29 type  2   force =     0.00000000    0.00000000    0.00000000
     atom   30 type  1   force =     0.00000000    0.00000000    0.00000000
     atom   31 type  2   force =     0.00000000    0.00000000    0.00000000
     atom   32 type  2   force =     0.00000000    0.00000000    0.00000000
     atom   33 type  1   force =     0.00000000    0.00000000    0.00000000
     atom   34 type  2   force =     0.00000000    0.00000000    0.00000000
     atom   35 type  2   force =     0.00000000    0.00000000    0.00000000
     atom   36 type  3   force =     0.00000000    0.00000000    0.00000000
     The SCF correction term to forces
     atom    1 type  1   force =    -0.00018289   -0.00005310    0.00083502
     atom    2 type  2   force =    -0.00031050    0.00006745    0.00034852
     atom    3 type  2   force =    -0.00001977   -0.00009688    0.00019302
     atom    4 type  1   force =    -0.00021948   -0.00045210    0.00032481
     atom    5 type  2   force =    -0.00009453   -0.00004560    0.00030656
     atom    6 type  2   force =    -0.00008963   -0.00001593    0.00024448
     atom    7 type  1   force =    -0.00055104    0.00037604    0.00026272
     atom    8 type  2   force =    -0.00000162    0.00002088    0.00033536
     atom    9 type  2   force =     0.00007844    0.00013547    0.00000579
     atom   10 type  1   force =    -0.00006859   -0.00026184    0.00012367
     atom   11 type  2   force =    -0.00022031    0.00015884    0.00032899
     atom   12 type  2   force =     0.00003311    0.00005265    0.00016897
     atom   13 type  1   force =     0.00019026    0.00009558    0.00044217
     atom   14 type  2   force =     0.00017586   -0.00009194    0.00054232
     atom   15 type  2   force =     0.00001434   -0.00002303    0.00003994
     atom   16 type  1   force =    -0.00020427    0.00019473    0.00044205
     atom   17 type  2   force =     0.00011742    0.00010271    0.00016000
     atom   18 type  2   force =     0.00010621    0.00003352    0.00024730
     atom   19 type  1   force =     0.00017361    0.00046703    0.00028444
     atom   20 type  2   force =    -0.00021035    0.00007138    0.00027739
     atom   21 type  1   force =    -0.00014248   -0.00051453    0.00060241
     atom   22 type  2   force =     0.00011873   -0.00012839    0.00017816
     atom   23 type  2   force =    -0.00004759   -0.00018994    0.00032746
     atom   24 type  1   force =    -0.00010309    0.00021140    0.00020335
     atom   25 type  2   force =     0.00014009   -0.00003412    0.00040311
     atom   26 type  2   force =    -0.00002351   -0.00003606    0.00003251
     atom   27 type  1   force =     0.00044383   -0.00014925    0.00024407
     atom   28 type  2   force =    -0.00003845    0.00000397    0.00020955
     atom   29 type  2   force =    -0.00002678   -0.00007354    0.00023339
     atom   30 type  1   force =     0.00034161    0.00050235    0.00001060
     atom   31 type  2   force =     0.00022999    0.00013674    0.00023495
     atom   32 type  2   force =     0.00014202    0.00023976    0.00014875
     atom   33 type  1   force =     0.00015247   -0.00075691    0.00006918
     atom   34 type  2   force =     0.00010616   -0.00019028    0.00025731
     atom   35 type  2   force =    -0.00001513   -0.00006418    0.00018459
     atom   36 type  3   force =    -0.00002023   -0.00001140    0.00007568

     Total force =     0.092140     Total SCF correction =     0.002607
     Energy error            =      1.5E-02 Ry
     Gradient error          =      4.1E-02 Ry/Bohr

     number of scf cycles    =   2
     number of bfgs steps    =   1

     energy             old  =   -2205.5189412392 Ry
     energy             new  =   -2205.5335601294 Ry

     CASE: energy            _new < energy            _old

     new trust radius        =       0.0746715830 bohr
     new conv_thr            =       0.0000000413 Ry


ATOMIC_POSITIONS (angstrom)
Mo            6.5963447470        1.7961187941        2.7920704302
S             8.1665075975        0.8209988701        4.4483517274
S             8.1792841813        0.8215711795        1.2667882233
Mo            8.1065971675        4.4919049816        2.7192005601
S             6.5000597814        3.7228447010        4.3394313056
S             6.5599104024        3.5223513945        1.1198327178
Mo            6.4919173366        7.2169199063        2.6648173755
S             8.0837865687        6.3377864906        4.2613707878
S             8.0974146061        6.3099579953        1.0955272547
Mo            8.1481207382        9.9117069106        2.8187440252
S             6.5004674867        8.9341735501        4.3769920544
S             6.6176891312        9.0515101599        1.1432803479
Mo            3.4216888410        1.7731804996        2.7657054846
S             5.0050947411        0.8051957719        4.4187661196
S             5.0430277250        0.8483667648        1.2166683983
Mo            4.9773916737        4.5105047304        2.6302279771
S             3.4303379245        3.6762793007        4.2854785627
S             3.4324834521        3.5401318097        1.0736303458
Mo            3.4595372686        7.2090820584        2.6289372641
S             4.9877206247        6.3208752663        1.0364243339
Mo            5.0170868507        9.8977508414        2.7477364695
S             3.4659430229        8.9384949013        4.3258871906
S             3.4093950670        9.0663564921        1.1034889348
Mo            0.2904000603        1.7500089735        2.8297099376
S             1.8663545907        0.8152760461        4.4012000565
S             1.8495004861        0.8549274981        1.2031924773
Mo            1.8561351108        4.4942625922        2.6733439472
S             0.2747433419        3.6536045918        4.3302616767
S             0.2344210755        3.5281073193        1.1660596820
Mo            0.2664771098        7.2270092188        2.6997787717
S             1.9030034336        6.3138091264        4.2415883820
S             1.8499968952        6.3160724757        1.0527588270
Mo            1.8597914698        9.9396356263        2.7691125956
S             0.2993892498        9.0397058502        4.3974445907
S             0.2681226130        9.0525168642        1.1647619300
H             6.2607113065        1.1862690796        5.0821768111



     Writing config-only to output data dir ./MoS2-V-O.save/
     NEW-OLD atomic charge density approx. for the potential

     negative rho (up, down):  1.486E-04 0.000E+00

     total cpu time spent up to now is      164.1 secs

     Self-consistent Calculation

     iteration #  1     ecut=    80.00 Ry     beta= 0.70
     Davidson diagonalization with overlap
     c_bands:  2 eigenvalues not converged
     ethr =  1.00E-06,  avg # of iterations = 20.0

     negative rho (up, down):  1.240E-04 0.000E+00

     total cpu time spent up to now is      177.2 secs

     total energy              =   -2205.54431903 Ry
     estimated scf accuracy    <       0.00172021 Ry

     iteration #  2     ecut=    80.00 Ry     beta= 0.70
     Davidson diagonalization with overlap
     ethr =  5.60E-07,  avg # of iterations =  2.0

     negative rho (up, down):  1.204E-04 0.000E+00

     total cpu time spent up to now is      188.1 secs

     total energy              =   -2205.54437352 Ry
     estimated scf accuracy    <       0.00032477 Ry

     iteration #  3     ecut=    80.00 Ry     beta= 0.70
     Davidson diagonalization with overlap
     ethr =  1.06E-07,  avg # of iterations =  5.0

     negative rho (up, down):  1.117E-04 0.000E+00

     total cpu time spent up to now is      201.2 secs

     total energy              =   -2205.54440276 Ry
     estimated scf accuracy    <       0.00013460 Ry

     iteration #  4     ecut=    80.00 Ry     beta= 0.70
     Davidson diagonalization with overlap
     ethr =  4.38E-08,  avg # of iterations =  2.0

     negative rho (up, down):  1.077E-04 0.000E+00

     total cpu time spent up to now is      214.2 secs

     total energy              =   -2205.54441526 Ry
     estimated scf accuracy    <       0.00000688 Ry

     iteration #  5     ecut=    80.00 Ry     beta= 0.70
     Davidson diagonalization with overlap
     ethr =  2.24E-09,  avg # of iterations = 12.0

     negative rho (up, down):  1.065E-04 0.000E+00

     total cpu time spent up to now is      232.3 secs

     total energy              =   -2205.54441890 Ry
     estimated scf accuracy    <       0.00000238 Ry

     iteration #  6     ecut=    80.00 Ry     beta= 0.70
     Davidson diagonalization with overlap
     ethr =  7.77E-10,  avg # of iterations =  2.0

     negative rho (up, down):  1.073E-04 0.000E+00

     total cpu time spent up to now is      244.2 secs

     total energy              =   -2205.54441902 Ry
     estimated scf accuracy    <       0.00000046 Ry

     iteration #  7     ecut=    80.00 Ry     beta= 0.70
     Davidson diagonalization with overlap
     ethr =  1.51E-10,  avg # of iterations =  5.0

     negative rho (up, down):  1.093E-04 0.000E+00

     total cpu time spent up to now is      256.2 secs

     total energy              =   -2205.54441907 Ry
     estimated scf accuracy    <       0.00000011 Ry

     iteration #  8     ecut=    80.00 Ry     beta= 0.70
     Davidson diagonalization with overlap
     ethr =  3.74E-11,  avg # of iterations =  2.0

     negative rho (up, down):  1.386E-04 0.000E+00

     total cpu time spent up to now is      258.1 secs

     End of self-consistent calculation

          k = 0.0000 0.0000 0.0000 (105382 PWs)   bands (ev):

   -62.9108 -62.8864 -62.8696 -62.8590 -62.8214 -62.8190 -62.8100 -62.8092
   -62.7356 -62.6399 -62.6233 -62.5836 -37.2168 -37.1583 -37.1452 -37.1302
   -37.1286 -37.1110 -37.1075 -37.0941 -37.0609 -37.0544 -37.0514 -37.0357
   -37.0115 -37.0037 -36.9988 -36.9944 -36.9929 -36.9889 -36.9843 -36.9744
   -36.9351 -36.9096 -36.9026 -36.8774 -36.8537 -36.8492 -36.8393 -36.8332
   -36.8071 -36.7940 -36.7865 -36.7771 -36.7544 -36.7301 -36.6084 -36.5893
   -16.2156 -15.6055 -15.1623 -14.9940 -14.9346 -14.8650 -14.5853 -14.4682
   -14.4431 -14.4170 -14.3870 -14.3703 -14.3334 -14.2576 -14.1288 -14.1156
   -14.0934 -14.0870 -14.0397 -13.8742 -13.8103 -13.7809 -13.7541  -8.9265
    -7.6451  -7.4491  -7.2654  -7.2553  -7.2413  -7.1869  -7.1310  -6.9598
    -6.8325  -6.7602  -6.7294  -6.6785  -6.6255  -6.4746  -6.4222  -6.4133
    -6.3284  -6.2580  -6.0867  -5.9318  -5.9124  -5.8602  -5.7955  -5.7925
    -5.7724  -5.7201  -5.6480  -5.6308  -5.6002  -5.5547  -5.5066  -5.4215
    -5.3733  -5.3419  -5.1650  -5.1103  -5.0635  -4.9978  -4.9511  -4.9337
    -4.9214  -4.8036  -4.7071  -4.4849  -4.3516  -4.2884  -4.2606  -4.2148
    -4.1815  -4.1061  -3.9934  -3.9807  -3.8289  -3.7492  -3.6924  -3.6436
    -3.6291  -3.5209  -3.4931  -3.4827  -3.4803  -3.4444  -3.4342  -3.3954
    -3.3593  -3.2207  -3.1744  -2.8847  -2.8502  -2.7664  -2.7548  -2.7285
    -2.6969  -2.6700  -2.6522  -2.5629  -2.5083  -2.2229  -1.9852  -1.9756
    -1.8776  -0.7371  -0.6955  -0.5482  -0.2028  -0.1017  -0.0733   0.0587
     0.1028   0.1192   0.1485   0.2089   0.2648   0.2890   0.3808   0.4098
     0.5091   0.5901   0.5939   0.6325   0.6458   0.6702   0.7104   0.7471
     0.7787   0.8615   0.8823   0.9221   0.9794   1.0028   1.0847   1.3013
     1.4109

     the Fermi energy is    -0.7839 ev

!    total energy              =   -2205.54441893 Ry
     estimated scf accuracy    <       0.00000002 Ry
     smearing contrib. (-TS)   =      -0.00899662 Ry
     internal energy E=F+TS    =   -2205.53542230 Ry

     The total energy is F=E-TS. E is the sum of the following terms:
     one-electron contribution =  -18048.06831712 Ry
     hartree contribution      =    9011.01789715 Ry
     xc contribution           =    -385.31045793 Ry
     ewald contribution        =    7216.82545560 Ry

     convergence has been achieved in   8 iterations

     negative rho (up, down):  1.386E-04 0.000E+00

     Forces acting on atoms (cartesian axes, Ry/au):

     atom    1 type  1   force =    -0.00114984    0.00085581   -0.00454023
     atom    2 type  2   force =     0.00192244    0.00601975   -0.00543694
     atom    3 type  2   force =    -0.00527125    0.00561843   -0.01399940
     atom    4 type  1   force =     0.00465685    0.00247126    0.00140230
     atom    5 type  2   force =     0.00202800   -0.00199454   -0.00662145
     atom    6 type  2   force =     0.00556468    0.00862522   -0.00511074
     atom    7 type  1   force =     0.00378888   -0.00210618    0.00064166
     atom    8 type  2   force =     0.00088299   -0.00311022    0.00616001
     atom    9 type  2   force =     0.00887043    0.00249397    0.00461650
     atom   10 type  1   force =    -0.00163498    0.00628180    0.00131216
     atom   11 type  2   force =     0.00461075   -0.00533091   -0.00460631
     atom   12 type  2   force =    -0.00230478    0.00150020   -0.00278013
     atom   13 type  1   force =     0.00605243    0.00422802    0.00345551
     atom   14 type  2   force =     0.00112724   -0.00559284    0.02172650
     atom   15 type  2   force =    -0.00653295    0.00174102   -0.00206814
     atom   16 type  1   force =    -0.00107214   -0.00204857   -0.00052204
     atom   17 type  2   force =     0.00221726    0.00395529    0.00515103
     atom   18 type  2   force =    -0.00483009   -0.00097151    0.00473429
     atom   19 type  1   force =     0.00081819   -0.00398237    0.00216184
     atom   20 type  2   force =     0.00231136   -0.00353920   -0.00261937
     atom   21 type  1   force =     0.00163821   -0.00037860    0.00610953
     atom   22 type  2   force =    -0.00055158   -0.00309261   -0.00024931
     atom   23 type  2   force =     0.00292245   -0.00050772    0.00290155
     atom   24 type  1   force =    -0.00321996   -0.00162684   -0.00062446
     atom   25 type  2   force =     0.00677107    0.01215901   -0.00560185
     atom   26 type  2   force =    -0.00196115    0.00113498   -0.00365333
     atom   27 type  1   force =    -0.00057903    0.00165487    0.00465303
     atom   28 type  2   force =     0.00046254   -0.00329322   -0.00260010
     atom   29 type  2   force =     0.00314097    0.00209965   -0.00462518
     atom   30 type  1   force =    -0.00038980   -0.00324340    0.00523056
     atom   31 type  2   force =     0.00009929    0.00119562    0.00684467
     atom   32 type  2   force =    -0.00593665    0.00258452    0.00574896
     atom   33 type  1   force =     0.00295775    0.00319896    0.00432512
     atom   34 type  2   force =    -0.00092101   -0.01811694   -0.01395933
     atom   35 type  2   force =    -0.00276429    0.00702210    0.00381259
     atom   36 type  3   force =    -0.02372427   -0.01590481   -0.01136949
     The non-local contrib.  to forces
     atom    1 type  1   force =     0.01031536    0.02956059   -0.01593421
     atom    2 type  2   force =    -0.04074521    0.01594020   -0.23255844
     atom    3 type  2   force =    -0.00833708   -0.00314551    0.26523356
     atom    4 type  1   force =     0.00086571    0.01174119    0.00232477
     atom    5 type  2   force =     0.01295925   -0.02599032   -0.24284012
     atom    6 type  2   force =     0.00228982    0.00272429    0.26109783
     atom    7 type  1   force =    -0.02310681   -0.01314257   -0.01713028
     atom    8 type  2   force =     0.00289591   -0.00404551   -0.26151620
     atom    9 type  2   force =     0.00418467   -0.01200114    0.27371995
     atom   10 type  1   force =     0.00276427   -0.00539203   -0.00466321
     atom   11 type  2   force =     0.01321044    0.01334350   -0.25926274
     atom   12 type  2   force =    -0.01382096   -0.01728447    0.25982488
     atom   13 type  1   force =    -0.01040441    0.02836303   -0.01355596
     atom   14 type  2   force =     0.24117502    0.08116599   -0.09522280
     atom   15 type  2   force =    -0.00736616   -0.00420084    0.26808354
     atom   16 type  1   force =     0.00167578    0.04774290   -0.01879662
     atom   17 type  2   force =     0.00110043   -0.02489146   -0.24916038
     atom   18 type  2   force =    -0.00694615   -0.00562836    0.27076600
     atom   19 type  1   force =     0.02176456   -0.00690322   -0.01385774
     atom   20 type  2   force =    -0.00053421   -0.02074903    0.26271505
     atom   21 type  1   force =     0.00537018    0.01420956   -0.00861465
     atom   22 type  2   force =    -0.00853188    0.00319903   -0.25812604
     atom   23 type  2   force =     0.00842993   -0.01637631    0.26551354
     atom   24 type  1   force =     0.00492820    0.01999853   -0.01200350
     atom   25 type  2   force =     0.00125255   -0.00251142   -0.25986773
     atom   26 type  2   force =     0.00522762   -0.00623475    0.26694079
     atom   27 type  1   force =    -0.00215361    0.01455535    0.00516753
     atom   28 type  2   force =    -0.00392016   -0.02573856   -0.27124734
     atom   29 type  2   force =     0.00697778   -0.00072088    0.26515788
     atom   30 type  1   force =     0.00144555    0.01823128    0.00917254
     atom   31 type  2   force =    -0.00835193   -0.00007445   -0.26003328
     atom   32 type  2   force =    -0.00064243   -0.01374686    0.27110437
     atom   33 type  1   force =    -0.00526748   -0.00027118    0.00706985
     atom   34 type  2   force =    -0.00372368   -0.01647585   -0.27719723
     atom   35 type  2   force =     0.00089755   -0.00920259    0.26682850
     atom   36 type  3   force =    -0.03366429   -0.01205676   -0.02355890
     The ionic contribution  to forces
     atom    1 type  1   force =    -0.32332625    0.16160243    3.44070815
     atom    2 type  2   force =     0.21834343    0.07153712   39.15376666
     atom    3 type  2   force =     0.02749356   -0.13969400  -36.41463192
     atom    4 type  1   force =    -0.01657000    1.08983949    0.81412649
     atom    5 type  2   force =    -0.98861746    1.82093630   38.55505442
     atom    6 type  2   force =     0.25205132   -0.26566732  -38.15759580
     atom    7 type  1   force =    -2.58456365   -2.93204637    2.32109219
     atom    8 type  2   force =    -1.03701015    0.08295365   37.56565274
     atom    9 type  2   force =     0.28737904   -0.06496331  -37.89462056
     atom   10 type  1   force =    -0.42143487   -0.37893284    4.94351930
     atom   11 type  2   force =    -0.45288624   -1.81579394   39.06563210
     atom   12 type  2   force =     0.29778284    0.57310624  -37.93196046
     atom   13 type  1   force =     0.64650782    0.08747466    2.64341539
     atom   14 type  2   force =    -1.35139902   -0.25436953   38.08068108
     atom   15 type  2   force =     0.00469877   -0.20087841  -36.76047623
     atom   16 type  1   force =     0.02598147    4.22481881    0.34121398
     atom   17 type  2   force =     0.79182773    1.55910753   38.08136807
     atom   18 type  2   force =    -0.21501142   -0.43775243  -38.55757568
     atom   19 type  1   force =     2.55612627   -2.40869824    0.59638907
     atom   20 type  2   force =     0.17713167   -0.16687637  -38.52557513
[...]
     atom   27 type  1   force =    -0.00105756    0.01402606    0.00270109
     atom   28 type  2   force =    -0.00057870   -0.01564213   -0.27206425
     atom   29 type  2   force =     0.00045200   -0.00923434    0.26940837
     atom   30 type  1   force =     0.00032212    0.02041333    0.00822102
     atom   31 type  2   force =    -0.00884260   -0.00048221   -0.26456706
     atom   32 type  2   force =     0.00545886   -0.01444358    0.26576445
     atom   33 type  1   force =    -0.00358795   -0.00158670    0.00530373
     atom   34 type  2   force =     0.00076101   -0.00651502   -0.27273436
     atom   35 type  2   force =    -0.00047518   -0.01052089    0.26832081
     atom   36 type  3   force =    -0.04885429   -0.01431223   -0.02485547
     The ionic contribution  to forces
     atom    1 type  1   force =    -0.81194685   -0.31039112    2.52114863
     atom    2 type  2   force =     0.08508410    0.02742460   38.50132232
     atom    3 type  2   force =     0.07300223   -0.23960559  -37.33424876
     atom    4 type  1   force =    -0.45864701    0.75496408    0.44984144
     atom    5 type  2   force =    -0.84266793    1.58835018   38.19100363
     atom    6 type  2   force =     0.17055865   -0.21716533  -38.36349238
     atom    7 type  1   force =    -2.96112330   -2.53983854    1.60922885
     atom    8 type  2   force =    -1.25434472    0.08573138   38.02040255
     atom    9 type  2   force =     0.23752322    0.07129271  -38.01956401
     atom   10 type  1   force =    -0.26662971   -0.31514338    2.91655687
     atom   11 type  2   force =    -0.29354179   -1.67700192   38.75813752
     atom   12 type  2   force =     0.11331751    0.48558841  -37.98734236
     atom   13 type  1   force =     0.78268965   -0.41187789    3.54945658
     atom   14 type  2   force =    -0.94069979   -0.07212257   38.76506432
     atom   15 type  2   force =    -0.13069608   -0.50000386  -36.47809221
     atom   16 type  1   force =     0.52040110    4.23203604   -0.10032143
     atom   17 type  2   force =     0.93052456    1.48251550   38.62030803
     atom   18 type  2   force =    -0.22543415   -0.38542905  -38.54545836
     atom   19 type  1   force =     3.04538995   -1.85097295    1.75814449
     atom   20 type  2   force =     0.09178239    0.08959980  -38.45510513
     atom   21 type  1   force =    -0.21142943    0.47123525    2.76565413
     atom   22 type  2   force =     0.33144071   -1.66106538   38.53006203
     atom   23 type  2   force =    -0.14329043    0.50061343  -37.73276895
     atom   24 type  1   force =    -0.06108716    0.00737418    2.25351069
     atom   25 type  2   force =     0.05300334   -0.05640485   38.70059883
     atom   26 type  2   force =     0.00468097   -0.29658179  -37.26787516
     atom   27 type  1   force =     0.05568575    0.63147727    0.23863315
     atom   28 type  2   force =    -0.06982596    0.60919333   38.20414893
     atom   29 type  2   force =    -0.02057927   -0.18954216  -37.73932134
     atom   30 type  1   force =    -0.04890831   -0.35697969    1.37283761
     atom   31 type  2   force =     1.12882640    0.18233737   38.18095876
     atom   32 type  2   force =    -0.30534299    0.15393640  -38.17155934
     atom   33 type  1   force =     0.48356038   -0.35642813    3.12669925
     atom   34 type  2   force =     0.02288319   -0.54715466   38.69129513
     atom   35 type  2   force =     0.05854797    0.32550892  -37.31711473
     atom   36 type  3   force =     0.85729282    0.28453005    7.78725040
     The local contribution  to forces
     atom    1 type  1   force =     0.79473260    0.28649812   -2.50540197
     atom    2 type  2   force =    -0.06264300   -0.02826450  -38.28420466
     atom    3 type  2   force =    -0.07027979    0.24187463   37.08335713
     atom    4 type  1   force =     0.45571871   -0.76625252   -0.45277621
     atom    5 type  2   force =     0.83324078   -1.56835469  -37.96938244
     atom    6 type  2   force =    -0.17200390    0.22495314   38.11758816
     atom    7 type  1   force =     2.98179983    2.54961958   -1.59817544
     atom    8 type  2   force =     1.24813018   -0.08569403  -37.77665915
     atom    9 type  2   force =    -0.23207664   -0.05902497   37.77211247
     atom   10 type  1   force =     0.26505124    0.31901367   -2.91747224
     atom   11 type  2   force =     0.28761235    1.66369541  -38.52403699
     atom   12 type  2   force =    -0.10783894   -0.46640634   37.74529825
     atom   13 type  1   force =    -0.76893659    0.37960385   -3.53501273
     atom   14 type  2   force =     0.68663839   -0.02449360  -38.61915218
     atom   15 type  2   force =     0.13127941    0.50868972   36.23170607
     atom   16 type  1   force =    -0.52458614   -4.28263306    0.11826118
     atom   17 type  2   force =    -0.92847107   -1.45830158  -38.38868993
     atom   18 type  2   force =     0.23043707    0.39023905   38.30315465
     atom   19 type  1   force =    -3.06870175    1.85438627   -1.74082232
     atom   20 type  2   force =    -0.09147608   -0.07146988   38.21164479
     atom   21 type  1   force =     0.20649255   -0.48237495   -2.75224392
     atom   22 type  2   force =    -0.32190204    1.65615541  -38.29178783
     atom   23 type  2   force =     0.13790238   -0.48290011   37.48742938
     atom   24 type  1   force =     0.05867627   -0.02711996   -2.25344486
     atom   25 type  2   force =    -0.05448235    0.07148457  -38.46169332
     atom   26 type  2   force =    -0.00693811    0.29972719   37.01778526
     atom   27 type  1   force =    -0.05457577   -0.64527105   -0.24139682
     atom   28 type  2   force =     0.07034308   -0.59474533  -37.95334714
     atom   29 type  2   force =     0.02000800    0.19793246   37.49101997
     atom   30 type  1   force =     0.04893734    0.33551930   -1.38113797
     atom   31 type  2   force =    -1.12057833   -0.18235229  -37.93701656
     atom   32 type  2   force =     0.30052563   -0.13961936   37.92693400
     atom   33 type  1   force =    -0.48023357    0.35829995   -3.13198567
     atom   34 type  2   force =    -0.02340747    0.55259670  -38.44113846
     atom   35 type  2   force =    -0.05825762   -0.31443100   37.06971299
     atom   36 type  3   force =    -0.80822462   -0.26881582   -7.76253065
     The core correction contribution to forces
     atom    1 type  1   force =     0.00000000    0.00000000    0.00000000
     atom    2 type  2   force =     0.00183307   -0.00011379    0.01890099
     atom    3 type  2   force =     0.00016777    0.00005564   -0.02107427
     atom    4 type  1   force =     0.00000000    0.00000000    0.00000000
     atom    5 type  2   force =    -0.00071051    0.00167235    0.01961201
     atom    6 type  2   force =     0.00007487    0.00017483   -0.02097339
     atom    7 type  1   force =     0.00000000    0.00000000    0.00000000
     atom    8 type  2   force =    -0.00042958    0.00024765    0.02075451
     atom    9 type  2   force =     0.00048848    0.00063042   -0.02088131
     atom   10 type  1   force =     0.00000000    0.00000000    0.00000000
     atom   11 type  2   force =     0.00008472   -0.00134967    0.02032049
     atom   12 type  2   force =     0.00050150    0.00127944   -0.02081961
     atom   13 type  1   force =     0.00000000    0.00000000    0.00000000
     atom   14 type  2   force =    -0.01802618   -0.00637610    0.01158832
     atom   15 type  2   force =    -0.00012859    0.00000363   -0.02084755
     atom   16 type  1   force =     0.00000000    0.00000000    0.00000000
     atom   17 type  2   force =     0.00037495    0.00168026    0.02025730
     atom   18 type  2   force =    -0.00006775   -0.00009245   -0.02096057
     atom   19 type  1   force =     0.00000000    0.00000000    0.00000000
     atom   20 type  2   force =     0.00008799    0.00090660   -0.02113052
     atom   21 type  1   force =     0.00000000    0.00000000    0.00000000
     atom   22 type  2   force =     0.00017101   -0.00086742    0.02044114
     atom   23 type  2   force =    -0.00048314    0.00122755   -0.02087465
     atom   24 type  1   force =     0.00000000    0.00000000    0.00000000
     atom   25 type  2   force =    -0.00022212    0.00066557    0.02047492
     atom   26 type  2   force =     0.00000117    0.00008274   -0.02106240
     atom   27 type  1   force =     0.00000000    0.00000000    0.00000000
     atom   28 type  2   force =     0.00004654    0.00111861    0.02103082
     atom   29 type  2   force =    -0.00003673    0.00030287   -0.02090309
     atom   30 type  1   force =     0.00000000    0.00000000    0.00000000
     atom   31 type  2   force =     0.00045634    0.00028781    0.02081823
     atom   32 type  2   force =    -0.00057957    0.00073463   -0.02080533
     atom   33 type  1   force =     0.00000000    0.00000000    0.00000000
     atom   34 type  2   force =    -0.00002738    0.00013359    0.02105884
     atom   35 type  2   force =     0.00005998    0.00066557   -0.02095771
     atom   36 type  3   force =     0.00000000    0.00000000    0.00000000
     The Hubbard contrib.    to forces
     atom    1 type  1   force =     0.00000000    0.00000000    0.00000000
     atom    2 type  2   force =     0.00000000    0.00000000    0.00000000
     atom    3 type  2   force =     0.00000000    0.00000000    0.00000000
     atom    4 type  1   force =     0.00000000    0.00000000    0.00000000
     atom    5 type  2   force =     0.00000000    0.00000000    0.00000000
     atom    6 type  2   force =     0.00000000    0.00000000    0.00000000
     atom    7 type  1   force =     0.00000000    0.00000000    0.00000000
     atom    8 type  2   force =     0.00000000    0.00000000    0.00000000
     atom    9 type  2   force =     0.00000000    0.00000000    0.00000000
     atom   10 type  1   force =     0.00000000    0.00000000    0.00000000
     atom   11 type  2   force =     0.00000000    0.00000000    0.00000000
     atom   12 type  2   force =     0.00000000    0.00000000    0.00000000
     atom   13 type  1   force =     0.00000000    0.00000000    0.00000000
     atom   14 type  2   force =     0.00000000    0.00000000    0.00000000
     atom   15 type  2   force =     0.00000000    0.00000000    0.00000000
     atom   16 type  1   force =     0.00000000    0.00000000    0.00000000
     atom   17 type  2   force =     0.00000000    0.00000000    0.00000000
     atom   18 type  2   force =     0.00000000    0.00000000    0.00000000
     atom   19 type  1   force =     0.00000000    0.00000000    0.00000000
     atom   20 type  2   force =     0.00000000    0.00000000    0.00000000
     atom   21 type  1   force =     0.00000000    0.00000000    0.00000000
     atom   22 type  2   force =     0.00000000    0.00000000    0.00000000
     atom   23 type  2   force =     0.00000000    0.00000000    0.00000000
     atom   24 type  1   force =     0.00000000    0.00000000    0.00000000
     atom   25 type  2   force =     0.00000000    0.00000000    0.00000000
     atom   26 type  2   force =     0.00000000    0.00000000    0.00000000
     atom   27 type  1   force =     0.00000000    0.00000000    0.00000000
     atom   28 type  2   force =     0.00000000    0.00000000    0.00000000
     atom   29 type  2   force =     0.00000000    0.00000000    0.00000000
     atom   30 type  1   force =     0.00000000    0.00000000    0.00000000
     atom   31 type  2   force =     0.00000000    0.00000000    0.00000000
     atom   32 type  2   force =     0.00000000    0.00000000    0.00000000
     atom   33 type  1   force =     0.00000000    0.00000000    0.00000000
     atom   34 type  2   force =     0.00000000    0.00000000    0.00000000
     atom   35 type  2   force =     0.00000000    0.00000000    0.00000000
     atom   36 type  3   force =     0.00000000    0.00000000    0.00000000
     The SCF correction term to forces
     atom    1 type  1   force =    -0.00002755    0.00005664    0.00000332
     atom    2 type  2   force =     0.00000556    0.00001047   -0.00001333
     atom    3 type  2   force =     0.00001362    0.00001258    0.00000435
     atom    4 type  1   force =    -0.00000286    0.00003244    0.00000782
     atom    5 type  2   force =    -0.00002177    0.00004158   -0.00002176
     atom    6 type  2   force =    -0.00001240    0.00001595    0.00001235
     atom    7 type  1   force =    -0.00002321   -0.00004503    0.00002223
     atom    8 type  2   force =    -0.00000765    0.00001305   -0.00001027
     atom    9 type  2   force =     0.00000956   -0.00000834    0.00000988
     atom   10 type  1   force =    -0.00002038   -0.00002892    0.00002381
     atom   11 type  2   force =    -0.00000641   -0.00004337   -0.00001549
     atom   12 type  2   force =    -0.00001222   -0.00003847    0.00001419
     atom   13 type  1   force =     0.00005297    0.00003470    0.00003011
     atom   14 type  2   force =    -0.00003842    0.00001167   -0.00002342
     atom   15 type  2   force =    -0.00002435    0.00000505   -0.00000108
     atom   16 type  1   force =     0.00000417   -0.00001970    0.00002852
     atom   17 type  2   force =     0.00001629    0.00000422   -0.00000081
     atom   18 type  2   force =     0.00000141    0.00000535   -0.00001035
     atom   19 type  1   force =     0.00001218   -0.00000091    0.00002906
     atom   20 type  2   force =     0.00002305   -0.00000499    0.00001768
     atom   21 type  1   force =    -0.00002233    0.00000485    0.00001696
     atom   22 type  2   force =     0.00000469   -0.00002203   -0.00001072
     atom   23 type  2   force =     0.00000881   -0.00000888    0.00001311
     atom   24 type  1   force =     0.00004313    0.00003827   -0.00000909
     atom   25 type  2   force =     0.00001823    0.00001254   -0.00001090
     atom   26 type  2   force =     0.00000343    0.00001244    0.00000624
     atom   27 type  1   force =    -0.00001135   -0.00000175   -0.00001581
     atom   28 type  2   force =     0.00000174    0.00001889   -0.00000623
     atom   29 type  2   force =     0.00000706    0.00002100   -0.00000667
     atom   30 type  1   force =    -0.00002161   -0.00006523    0.00001022
     atom   31 type  2   force =    -0.00000396    0.00000792   -0.00000737
     atom   32 type  2   force =    -0.00001957   -0.00002142    0.00000725
     atom   33 type  1   force =     0.00001198   -0.00001801    0.00001882
     atom   34 type  2   force =     0.00001021   -0.00003322   -0.00000831
     atom   35 type  2   force =     0.00001535   -0.00002118    0.00001300
     atom   36 type  3   force =    -0.00000396    0.00000099   -0.00000142

     Total force =     0.005744     Total SCF correction =     0.000214
     Energy error            =      8.8E-05 Ry
     Gradient error          =      1.6E-03 Ry/Bohr

     bfgs converged in  14 scf cycles and  13 bfgs steps
     (criteria: energy <  1.0E-04 Ry, force <  1.0E-02 Ry/Bohr)

     End of BFGS Geometry Optimization

     Final energy             =   -2205.5619605269 Ry

     File ./MoS2-V-O.bfgs deleted, as requested
Begin final coordinates

ATOMIC_POSITIONS (angstrom)
Mo            6.5692886845        1.7946486451        2.7604849002
S             8.1563469725        0.8639661853        4.3740923730
S             8.1411208938        0.8575161165        1.1895060643
Mo            8.1335395988        4.4997077524        2.7108893825
S             6.5174606025        3.6944293143        4.3067841228
S             6.5880632625        3.5509870814        1.0942936558
Mo            6.5374677908        7.2057351940        2.6570806213
S             8.0972090957        6.3146721122        4.2917546852
S             8.1536658424        6.3254746135        1.1021962986
Mo            8.1433606690        9.9506851813        2.7789935635
S             6.5544759948        8.9251071837        4.3553563417
S             6.6033847090        9.0580215223        1.1325406381
Mo            3.4354634282        1.8133039597        2.7833490407
S             4.8786965400        0.7133398381        4.5182541421
S             5.0007336546        0.8389321775        1.2278084853
Mo            4.9869055494        4.5082617550        2.6268784415
S             3.4657731474        3.7115206964        4.3262648935
S             3.4206490501        3.5560763405        1.0907653957
Mo            3.4659256952        7.1756597567        2.6603434301
S             5.0059675588        6.3182183801        1.0417231448
Mo            5.0182657524        9.8727903511        2.7760744031
S             3.4606215889        8.9062355086        4.3458915266
S             3.4239850660        9.0459842682        1.1396183482
Mo            0.2790440644        1.7573256083        2.7758934931
S             1.8595651131        0.8757688319        4.3738002438
S             1.8821330499        0.8613240264        1.1925389818
Mo            1.8690497890        4.5047524088        2.7098501098
S             0.2740400218        3.6248857537        4.3172623095
S             0.2726542319        3.5620928118        1.1442215191
Mo            0.2740299506        7.2284326993        2.7304796059
S             1.9008387109        6.3127911154        4.2989134551
S             1.8462624423        6.3272025502        1.0970291691
Mo            1.8789344215        9.9532596740        2.7842435883
S             0.2817366786        9.0383664054        4.3644513623
S             0.2854823680        9.0733010332        1.1837648892
H             6.1147116896        1.0744917803        5.0273549511
End final coordinates



     Writing all to output data dir ./MoS2-V-O.save/
 
     init_run     :      2.49s CPU      3.13s WALL (       1 calls)
     electrons    :   1156.88s CPU   1269.37s WALL (      14 calls)
     update_pot   :     18.40s CPU     19.19s WALL (      13 calls)
     forces       :     19.45s CPU     20.83s WALL (      14 calls)

     Called by init_run:
     wfcinit      :      0.42s CPU      0.53s WALL (       1 calls)
     potinit      :      1.37s CPU      1.45s WALL (       1 calls)
     hinit0       :      0.17s CPU      0.56s WALL (       1 calls)

     Called by electrons:
     c_bands      :    149.34s CPU    151.14s WALL (     119 calls)
     sum_band     :     39.41s CPU     42.75s WALL (     119 calls)
     v_of_rho     :     50.25s CPU     57.79s WALL (     124 calls)
     newd         :     20.66s CPU     23.26s WALL (     124 calls)
     mix_rho      :    903.63s CPU   1000.11s WALL (     119 calls)

     Called by c_bands:
     init_us_2    :      2.62s CPU      2.71s WALL (     239 calls)
     init_us_2:cp :      2.62s CPU      2.71s WALL (     239 calls)
     regterg      :    140.57s CPU    142.26s WALL (     119 calls)

     Called by *egterg:
     rdiaghg      :     12.07s CPU     12.24s WALL (     676 calls)
     h_psi        :     79.65s CPU     80.37s WALL (     699 calls)
     s_psi        :     10.65s CPU     10.68s WALL (     699 calls)
     g_psi        :      0.53s CPU      0.54s WALL (     579 calls)

     Called by h_psi:
     h_psi:calbec :     11.68s CPU     11.75s WALL (     699 calls)
     vloc_psi     :     56.05s CPU     56.65s WALL (     699 calls)
     add_vuspsi   :     10.64s CPU     10.69s WALL (     699 calls)

     General routines
     calbec       :     16.89s CPU     16.98s WALL (     874 calls)
     fft          :     34.98s CPU     40.89s WALL (    8384 calls)
     ffts         :    399.46s CPU    492.86s WALL (  221589 calls)
     fftw         :     47.81s CPU     48.26s WALL (   72207 calls)
     interpolate  :      0.91s CPU      1.03s WALL (     124 calls)
 
     Parallel routines
 
     PWSCF        :  20m 0.11s CPU  21m57.50s WALL

 
   This run was terminated on:  22: 7:17   3Nov2023            

=------------------------------------------------------------------------------=
   JOB DONE.
=------------------------------------------------------------------------------=
