
     Program PWSCF v.7.2 starts on  4Nov2023 at  9: 0:42 

     This program is part of the open-source Quantum ESPRESSO suite
     for quantum simulation of materials; please cite
         "P. Giannozzi et al., J. Phys.:Condens. Matter 21 395502 (2009);
         "P. Giannozzi et al., J. Phys.:Condens. Matter 29 465901 (2017);
         "P. Giannozzi et al., J. Chem. Phys. 152 154105 (2020);
          URL http://www.quantum-espresso.org", 
     in publications or presentations arising from this work. More details at
     http://www.quantum-espresso.org/quote

     Parallel version (MPI & OpenMP), running on      48 processor cores
     Number of MPI processes:                48
     Threads/MPI process:                     1

     MPI processes distributed on     1 nodes
     17192 MiB available memory on the printing compute node when the environment starts
 
     Waiting for input...
     Reading input from standard input
Warning: card &CELL ignored
Warning: card CELL_DYNAMICS = 'BFGS', ignored
Warning: card CELL_DOFREE = '2DXY' ignored
Warning: card / ignored

     Current dimensions of program PWSCF are:
     Max number of different atomic species (ntypx) = 10
     Max number of k-points (npk) =  40000
     Max angular momentum in pseudopotentials (lmaxx) =  4

     IMPORTANT: XC functional enforced from input :
     Exchange-correlation= RVV10
                           (   1   4  13   4  26   0   0)
     Any further DFT definition will be discarded
     Please, verify this is what you really want


     gamma-point specific algorithms are used
     signal trapping enabled: kill the code with -SIGUSR1 to stop cleanly the simulation 
 
     R & G space division:  proc/nbgrp/npool/nimage =      48
     Subspace diagonalization in iterative solution of the eigenvalue problem:
     one sub-group per band group will be used
     scalapack distributed-memory algorithm (size of sub-group:  2*  2 procs)

 
     Parallelization info
     --------------------
     sticks:   dense  smooth     PW     G-vecs:    dense   smooth      PW
     Min         243     194     47                49060    35090    4376
     Max         246     196     50                49086    35128    4410
     Sum       11735    9389   2349              2355467  1685513  210763
 
     Using Slab Decomposition
 


     bravais-lattice index     =            0
     lattice parameter (alat)  =      17.8707  a.u.
     unit-cell volume          =   17436.2743 (a.u.)^3
     number of atoms/cell      =           36
     number of atomic types    =            3
     number of electrons       =       307.00
     number of Kohn-Sham states=          185
     kinetic-energy cutoff     =      80.0000  Ry
     charge density cutoff     =     400.0000  Ry
     scf convergence threshold =      1.0E-06
     mixing beta               =       0.7000
     number of iterations used =            8  local-TF  mixing
     energy convergence thresh.=      1.0E-04
     force convergence thresh. =      1.0E-02
     Exchange-correlation= RVV10
                           (   1   4  13   4  26   0   0)
     nstep                     =          200


     celldm(1)=  17.870686  celldm(2)=   0.000000  celldm(3)=   0.000000
     celldm(4)=   0.000000  celldm(5)=   0.000000  celldm(6)=   0.000000

     crystal axes: (cart. coord. in units of alat)
               a(1) = (   1.000000   0.000000   0.000000 )  
               a(2) = (   0.000000   1.155671   0.000000 )  
               a(3) = (   0.000000   0.000000   2.643601 )  

     reciprocal axes: (cart. coord. in units 2 pi/alat)
               b(1) = (  1.000000  0.000000  0.000000 )  
               b(2) = (  0.000000  0.865298  0.000000 )  
               b(3) = (  0.000000  0.000000  0.378272 )  


     PseudoPot. # 1 for Mo read from file:
     ../pseudo/Mo_ONCV_PBE-1.0.oncvpsp.upf
     MD5 check sum: 1b5d28e075c9ccadda658a603575cd1f
     Pseudo is Norm-conserving, Zval = 14.0
     Generated using ONCVPSP code by D. R. Hamann
     Using radial grid of 1526 points,  6 beta functions with: 
                l(1) =   0
                l(2) =   0
                l(3) =   1
                l(4) =   1
                l(5) =   2
                l(6) =   2

     PseudoPot. # 2 for S  read from file:
     ../pseudo/s_pbe_v1.4.uspp.F.UPF
     MD5 check sum: 88d86576ff6df21479756cfb9bdac1df
     Pseudo is Ultrasoft + core correction, Zval =  6.0
     Generated by new atomic code, or converted to UPF format
     Using radial grid of  907 points,  6 beta functions with: 
                l(1) =   0
                l(2) =   0
                l(3) =   1
                l(4) =   1
                l(5) =   2
                l(6) =   2
     Q(r) pseudized with  8 coefficients,  rinner =    1.300   1.300   1.300
                                                       1.300   1.300

     PseudoPot. # 3 for H  read from file:
     ../pseudo/H_ONCV_PBE-1.0.oncvpsp.upf
     MD5 check sum: 1790becc920ee074925cf490c71280fe
     Pseudo is Norm-conserving, Zval =  1.0
     Generated using ONCVPSP code by D. R. Hamann
     Using radial grid of 1166 points,  2 beta functions with: 
                l(1) =   0
                l(2) =   0

     atomic species   valence    mass     pseudopotential
        Mo            14.00    95.94000     Mo( 1.00)
        S              6.00    32.06500     S ( 1.00)
        H              1.00     1.00794     H ( 1.00)

     No symmetry found



   Cartesian axes

     site n.     atom                  positions (alat units)
         1           Mo  tau(   1) = (   0.6952221   0.1890506   0.2985846  )
         2           S   tau(   2) = (   0.8646417   0.0856217   0.4689279  )
         3           S   tau(   3) = (   0.8663890   0.0857843   0.1351291  )
         4           Mo  tau(   4) = (   0.8560186   0.4753274   0.2873942  )
         5           S   tau(   5) = (   0.6873294   0.3936244   0.4596353  )
         6           S   tau(   6) = (   0.6929804   0.3713468   0.1185692  )
         7           Mo  tau(   7) = (   0.6862796   0.7633098   0.2825370  )
         8           S   tau(   8) = (   0.8545980   0.6708292   0.4486168  )
         9           S   tau(   9) = (   0.8545123   0.6666874   0.1146125  )
        10           Mo  tau(  10) = (   0.8629403   1.0471007   0.3006803  )
        11           S   tau(  11) = (   0.6868280   0.9456650   0.4634891  )
        12           S   tau(  12) = (   0.6998113   0.9568511   0.1205389  )
        13           Mo  tau(  13) = (   0.3618216   0.1847309   0.2935964  )
        14           S   tau(  14) = (   0.5260962   0.0863870   0.4600448  )
        15           S   tau(  15) = (   0.5348379   0.0894875   0.1297123  )
        16           Mo  tau(  16) = (   0.5265817   0.4772436   0.2784130  )
        17           S   tau(  17) = (   0.3624753   0.3882513   0.4525556  )
        18           S   tau(  18) = (   0.3635411   0.3752055   0.1119148  )
        19           Mo  tau(  19) = (   0.3652268   0.7630864   0.2781795  )
        20           S   tau(  20) = (   0.5269494   0.6690381   0.1096838  )
        21           Mo  tau(  21) = (   0.5300192   1.0470394   0.2900995  )
        22           S   tau(  22) = (   0.3670346   0.9457522   0.4574073  )
        23           S   tau(  23) = (   0.3604225   0.9585725   0.1159032  )
        24           Mo  tau(  24) = (   0.0313099   0.1847895   0.3013130  )
        25           S   tau(  25) = (   0.1956761   0.0838230   0.4650863  )
        26           S   tau(  26) = (   0.1967693   0.0903508   0.1278874  )
        27           Mo  tau(  27) = (   0.1967578   0.4753919   0.2813011  )
        28           S   tau(  28) = (   0.0287851   0.3864324   0.4586755  )
        29           S   tau(  29) = (   0.0244514   0.3729871   0.1239344  )
        30           Mo  tau(  30) = (   0.0286728   0.7631204   0.2856894  )
        31           S   tau(  31) = (   0.2011512   0.6675435   0.4465001  )
        32           S   tau(  32) = (   0.1969214   0.6672839   0.1104564  )
        33           Mo  tau(  33) = (   0.1950294   1.0511147   0.2932237  )
        34           S   tau(  34) = (   0.0312912   0.9612169   0.4667423  )
        35           S   tau(  35) = (   0.0292670   0.9563028   0.1216485  )
        36           H   tau(  36) = (   0.2222222   1.0272628   0.5792558  )

     number of k points=     1  Gaussian smearing, width (Ry)=  0.0100
                       cart. coord. in units 2pi/alat
        k(    1) = (   0.0000000   0.0000000   0.0000000), wk =   2.0000000

     Dense  grid:  1177734 G-vectors     FFT dimensions: ( 120, 135, 320)

     Smooth grid:   842757 G-vectors     FFT dimensions: ( 108, 120, 270)

     Estimated max dynamical RAM per process >     146.59 MB

     Estimated total dynamical RAM >       6.87 GB

     Initial potential from superposition of free atoms

     starting charge     306.9873, renormalised to     307.0000

     negative rho (up, down):  1.406E-04 0.000E+00


---------------------------------------------------------------------------------
Carrying out rVV10 run using the following parameters:
Nqs =      20    Nr_points =    1024   r_max =   100.000
b_value =  6.30000    beta =  0.00901
     q_mesh =  0.00010000  0.00030000  0.00058939  0.00100810
               0.00161396  0.00249058  0.00375900  0.00559430
               0.00824984  0.01209221  0.01765183  0.02569619
               0.03733578  0.05417739  0.07854596  0.11380545
               0.16482331  0.23864234  0.34545298  0.50000000

Gradients computed in Reciprocal space

---------------------------------------------------------------------------------


     Starting wfcs are  213 randomized atomic wfcs

     total cpu time spent up to now is        2.7 secs

     Self-consistent Calculation

     iteration #  1     ecut=    80.00 Ry     beta= 0.70
     Davidson diagonalization with overlap
     ethr =  1.00E-02,  avg # of iterations =  2.0

     Threshold (ethr) on eigenvalues was too large:
     Diagonalizing with lowered threshold

     Davidson diagonalization with overlap
     ethr =  3.66E-04,  avg # of iterations =  4.0

     negative rho (up, down):  2.445E-08 0.000E+00

     total cpu time spent up to now is       25.9 secs

     total energy              =   -2205.55364930 Ry
     estimated scf accuracy    <       1.42144917 Ry

     iteration #  2     ecut=    80.00 Ry     beta= 0.70
     Davidson diagonalization with overlap
     ethr =  4.63E-04,  avg # of iterations =  2.0

     total cpu time spent up to now is       28.3 secs

     total energy              =   -2205.41681875 Ry
     estimated scf accuracy    <       0.54774616 Ry

     iteration #  3     ecut=    80.00 Ry     beta= 0.70
     Davidson diagonalization with overlap
     ethr =  1.78E-04,  avg # of iterations =  2.0

     total cpu time spent up to now is       30.7 secs

     total energy              =   -2205.48730591 Ry
     estimated scf accuracy    <       0.06768646 Ry

     iteration #  4     ecut=    80.00 Ry     beta= 0.70
     Davidson diagonalization with overlap
     ethr =  2.20E-05,  avg # of iterations = 17.0

     total cpu time spent up to now is       34.1 secs

     total energy              =   -2205.49305152 Ry
     estimated scf accuracy    <       0.02529444 Ry

     iteration #  5     ecut=    80.00 Ry     beta= 0.70
     Davidson diagonalization with overlap
     ethr =  8.24E-06,  avg # of iterations =  2.0

     total cpu time spent up to now is       36.3 secs

     total energy              =   -2205.49324894 Ry
     estimated scf accuracy    <       0.01724407 Ry

     iteration #  6     ecut=    80.00 Ry     beta= 0.70
     Davidson diagonalization with overlap
     ethr =  5.62E-06,  avg # of iterations =  2.0

     total cpu time spent up to now is       38.5 secs

     total energy              =   -2205.49208587 Ry
     estimated scf accuracy    <       0.01153402 Ry

     iteration #  7     ecut=    80.00 Ry     beta= 0.70
     Davidson diagonalization with overlap
     ethr =  3.76E-06,  avg # of iterations =  7.0

     negative rho (up, down):  5.407E-06 0.000E+00

     total cpu time spent up to now is       42.3 secs

     total energy              =   -2205.49055971 Ry
     estimated scf accuracy    <       0.00674862 Ry

     iteration #  8     ecut=    80.00 Ry     beta= 0.70
     Davidson diagonalization with overlap
     ethr =  2.20E-06,  avg # of iterations =  2.0

     negative rho (up, down):  1.123E-02 0.000E+00

     total cpu time spent up to now is       46.5 secs

     total energy              =   -2205.49021894 Ry
     estimated scf accuracy    <       0.00323795 Ry

     iteration #  9     ecut=    80.00 Ry     beta= 0.70
     Davidson diagonalization with overlap
     ethr =  1.05E-06,  avg # of iterations =  2.0

     negative rho (up, down):  2.805E-02 0.000E+00

     total cpu time spent up to now is       51.3 secs

     total energy              =   -2205.49018142 Ry
     estimated scf accuracy    <       0.00186900 Ry

     iteration # 10     ecut=    80.00 Ry     beta= 0.70
     Davidson diagonalization with overlap
     ethr =  6.09E-07,  avg # of iterations =  2.0

     negative rho (up, down):  2.930E-02 0.000E+00

     total cpu time spent up to now is       56.9 secs

     total energy              =   -2205.49036120 Ry
     estimated scf accuracy    <       0.00061080 Ry

     iteration # 11     ecut=    80.00 Ry     beta= 0.70
     Davidson diagonalization with overlap
     ethr =  1.99E-07,  avg # of iterations =  2.0

     negative rho (up, down):  7.361E-03 0.000E+00

     total cpu time spent up to now is       63.1 secs

     total energy              =   -2205.49036068 Ry
     estimated scf accuracy    <       0.00014112 Ry

     iteration # 12     ecut=    80.00 Ry     beta= 0.70
     Davidson diagonalization with overlap
     ethr =  4.60E-08,  avg # of iterations =  7.0

     negative rho (up, down):  3.558E-03 0.000E+00

     total cpu time spent up to now is       68.9 secs

     total energy              =   -2205.49041777 Ry
     estimated scf accuracy    <       0.00003060 Ry

     iteration # 13     ecut=    80.00 Ry     beta= 0.70
     Davidson diagonalization with overlap
     ethr =  9.97E-09,  avg # of iterations =  5.0

     negative rho (up, down):  4.440E-04 0.000E+00

     total cpu time spent up to now is       78.9 secs

     total energy              =   -2205.49042527 Ry
     estimated scf accuracy    <       0.00000253 Ry

     iteration # 14     ecut=    80.00 Ry     beta= 0.70
     Davidson diagonalization with overlap
     ethr =  8.24E-10,  avg # of iterations =  5.0

     negative rho (up, down):  1.371E-04 0.000E+00

     total cpu time spent up to now is       81.4 secs

     End of self-consistent calculation

          k = 0.0000 0.0000 0.0000 (105382 PWs)   bands (ev):

   -62.9131 -62.9012 -62.8873 -62.8694 -62.8595 -62.8464 -62.8345 -62.8210
   -62.8071 -62.7901 -62.7867 -62.7759 -37.2525 -37.1883 -37.1679 -37.1650
   -37.1532 -37.1314 -37.1160 -37.0942 -37.0930 -37.0871 -37.0819 -37.0626
   -37.0598 -37.0561 -37.0443 -37.0316 -37.0270 -37.0215 -37.0078 -37.0011
   -36.9798 -36.9738 -36.9629 -36.9534 -36.9499 -36.9454 -36.9392 -36.9286
   -36.9214 -36.9049 -36.8882 -36.8666 -36.8637 -36.8231 -36.7728 -36.7335
   -16.0260 -15.2789 -15.1477 -15.0358 -14.9477 -14.8501 -14.5912 -14.5319
   -14.4836 -14.4471 -14.4088 -14.3761 -14.3442 -14.3190 -14.1868 -14.1597
   -14.1379 -14.1200 -14.0493 -13.9364 -13.8644 -13.8499 -13.8178  -7.8569
    -7.6825  -7.4270  -7.3256  -7.3107  -7.2612  -7.2129  -7.1376  -7.0229
    -6.8503  -6.8393  -6.7874  -6.7207  -6.5763  -6.5287  -6.5007  -6.4377
    -6.2880  -6.2797  -6.0684  -5.9702  -5.9325  -5.8927  -5.8449  -5.8119
    -5.8014  -5.7358  -5.7201  -5.6770  -5.6296  -5.5556  -5.5447  -5.4882
    -5.4508  -5.4043  -5.2197  -5.1828  -5.1134  -5.0386  -5.0088  -4.9561
    -4.9238  -4.8518  -4.6784  -4.5406  -4.3813  -4.3295  -4.2994  -4.2709
    -4.2311  -4.0810  -4.0389  -3.8581  -3.8301  -3.8170  -3.7488  -3.7222
    -3.6874  -3.5826  -3.5739  -3.5170  -3.5063  -3.4854  -3.4622  -3.3982
    -3.3809  -3.2188  -3.1463  -2.9453  -2.9058  -2.8204  -2.7884  -2.7516
    -2.7343  -2.6878  -2.6625  -2.6523  -2.5927  -2.3126  -2.0588  -2.0057
    -1.9607  -1.1543  -0.8384  -0.6560  -0.1975  -0.1472  -0.1123  -0.0613
     0.0439   0.1220   0.1338   0.2091   0.2373   0.2846   0.3344   0.3959
     0.4634   0.4969   0.5255   0.5452   0.5858   0.6491   0.6940   0.7259
     0.7404   0.7773   0.8237   0.8559   0.9311   0.9734   1.0331   1.1437
     1.3526

     the Fermi energy is    -1.1544 ev

!    total energy              =   -2205.49042850 Ry
     estimated scf accuracy    <       0.00000043 Ry
     smearing contrib. (-TS)   =      -0.00566750 Ry
     internal energy E=F+TS    =   -2205.48476100 Ry

     The total energy is F=E-TS. E is the sum of the following terms:
     one-electron contribution =  -18043.54629685 Ry
     hartree contribution      =    9008.32492495 Ry
     xc contribution           =    -385.19388260 Ry
     ewald contribution        =    7214.93049350 Ry

     convergence has been achieved in  14 iterations

     negative rho (up, down):  1.371E-04 0.000E+00

     Forces acting on atoms (cartesian axes, Ry/au):

     atom    1 type  1   force =     0.01320832   -0.01773405    0.00540387
     atom    2 type  2   force =    -0.01731748    0.01780250    0.00123944
     atom    3 type  2   force =    -0.01097026    0.00791750   -0.00294769
     atom    4 type  1   force =     0.00375748    0.00480401   -0.00088509
     atom    5 type  2   force =    -0.00091519   -0.00598441   -0.00528276
     atom    6 type  2   force =     0.00100608    0.01029384   -0.00080848
     atom    7 type  1   force =     0.00896875   -0.01774119   -0.00932443
     atom    8 type  2   force =     0.00077961   -0.00393125    0.01743552
     atom    9 type  2   force =     0.01280663    0.00675375    0.01176950
     atom   10 type  1   force =    -0.01328916    0.01055871   -0.02777267
     atom   11 type  2   force =     0.00453336   -0.00201469   -0.00688533
     atom   12 type  2   force =     0.00036660    0.00225088    0.00668701
     atom   13 type  1   force =     0.00325156    0.00443870   -0.00612405
     atom   14 type  2   force =     0.01104353    0.00112615    0.01224679
     atom   15 type  2   force =    -0.01277624    0.00265516   -0.00849695
     atom   16 type  1   force =     0.00276036    0.01060738    0.00582395
     atom   17 type  2   force =     0.00555052    0.00008291    0.00058534
     atom   18 type  2   force =    -0.00437736   -0.00568475    0.01291376
     atom   19 type  1   force =     0.00079951   -0.01518557   -0.00427947
     atom   20 type  2   force =     0.00099941   -0.00461116    0.00154757
     atom   21 type  1   force =    -0.00139770    0.00564951   -0.00210778
     atom   22 type  2   force =    -0.02847623    0.01491219    0.02651292
     atom   23 type  2   force =    -0.00161813    0.00263049    0.00950589
     atom   24 type  1   force =    -0.00969597   -0.00237610   -0.02399831
     atom   25 type  2   force =     0.01816899    0.01300845    0.01265776
     atom   26 type  2   force =    -0.01093662   -0.00101635   -0.00364251
     atom   27 type  1   force =    -0.00013747   -0.00222107    0.00563567
     atom   28 type  2   force =     0.00080936   -0.00074991   -0.00478164
     atom   29 type  2   force =     0.00252583   -0.00101210   -0.00193189
     atom   30 type  1   force =    -0.00564454    0.01246544   -0.00683139
     atom   31 type  2   force =     0.00090579   -0.00296937    0.01509598
     atom   32 type  2   force =    -0.00791624    0.00785129    0.00872554
     atom   33 type  1   force =     0.00672384    0.00086641   -0.04320545
     atom   34 type  2   force =     0.01065248   -0.04238615   -0.00326598
     atom   35 type  2   force =    -0.00749328    0.00668987    0.01439099
     atom   36 type  3   force =     0.02334389   -0.01774703   -0.00560563
     The non-local contrib.  to forces
     atom    1 type  1   force =    -0.00116554    0.03207179   -0.00794673
     atom    2 type  2   force =    -0.01324634    0.00455159   -0.26850900
     atom    3 type  2   force =    -0.01100244   -0.00345690    0.27008678
     atom    4 type  1   force =     0.00047874    0.00359566    0.00549624
     atom    5 type  2   force =     0.00617721   -0.03091536   -0.25152570
     atom    6 type  2   force =    -0.00212768    0.01190309    0.26160639
     atom    7 type  1   force =    -0.01977506    0.00340899   -0.01818596
     atom    8 type  2   force =     0.00268014   -0.00341373   -0.25346034
     atom    9 type  2   force =     0.00755060   -0.00704899    0.27775796
     atom   10 type  1   force =     0.00765540   -0.00176633   -0.00375221
     atom   11 type  2   force =     0.01679854   -0.00083801   -0.25645349
     atom   12 type  2   force =    -0.01246567   -0.01488315    0.26483334
     atom   13 type  1   force =    -0.00310153    0.01993638   -0.00912318
     atom   14 type  2   force =     0.01224462   -0.01077059   -0.26163705
     atom   15 type  2   force =    -0.01643237   -0.00762146    0.25897458
     atom   16 type  1   force =     0.00020745    0.03100593   -0.03062631
     atom   17 type  2   force =     0.00320621   -0.02896254   -0.24944980
     atom   18 type  2   force =    -0.00515316   -0.00377627    0.27365282
     atom   19 type  1   force =     0.01334376    0.00714577   -0.01500958
     atom   20 type  2   force =    -0.00146711   -0.02253343    0.26609523
     atom   21 type  1   force =    -0.00563298    0.02467558    0.00052887
     atom   22 type  2   force =    -0.11812585    0.06293980   -0.11501325
     atom   23 type  2   force =     0.00622030   -0.01540378    0.27066395
     atom   24 type  1   force =     0.00785718    0.01422770   -0.01356269
     atom   25 type  2   force =     0.01940061   -0.00705239   -0.22017421
     atom   26 type  2   force =    -0.00283109   -0.01363929    0.26527966
     atom   27 type  1   force =    -0.00347453    0.00749782    0.00888045
     atom   28 type  2   force =    -0.00406372   -0.02254880   -0.27521369
     atom   29 type  2   force =     0.00673962    0.00183872    0.26360498
     atom   30 type  1   force =     0.00225216    0.01980289    0.00749458
     atom   31 type  2   force =    -0.00757190   -0.00328447   -0.25292359
     atom   32 type  2   force =    -0.00039730   -0.00354071    0.27211397
     atom   33 type  1   force =    -0.00480830    0.00991195    0.01310813
     atom   34 type  2   force =     0.02315906   -0.01726158   -0.21621156
     atom   35 type  2   force =    -0.00244766   -0.01085568    0.27259646
     atom   36 type  3   force =     0.00434216   -0.00347027   -0.00763197
     The ionic contribution  to forces
     atom    1 type  1   force =     0.40426817    0.32350637    5.66946588
     atom    2 type  2   force =    -0.76572628    0.49676319   39.24918152
     atom    3 type  2   force =    -0.18548415    0.04215922  -36.10623115
     atom    4 type  1   force =     0.05869895    0.56819681    0.67562533
     atom    5 type  2   force =    -0.96057193    1.51243217   38.75083631
     atom    6 type  2   force =     0.34746986   -0.49201832  -38.01458327
     atom    7 type  1   force =    -2.59015613   -2.87119832    2.52270573
     atom    8 type  2   force =    -1.02908602   -0.03820867   37.37717448
     atom    9 type  2   force =     0.33022439   -0.05710268  -38.00458126
     atom   10 type  1   force =    -1.28893289   -0.29679333    5.49796007
     atom   11 type  2   force =    -0.52652345   -1.63748236   39.11129391
     atom   12 type  2   force =     0.44696261    0.68461442  -37.87366056
     atom   13 type  1   force =     0.58293435    1.22224663    2.68512370
     atom   14 type  2   force =     0.19901806    0.11498531   38.46615420
     atom   15 type  2   force =     0.18292703   -0.03518613  -36.83058358
     atom   16 type  1   force =     0.01933790    3.93299808    0.48150494
     atom   17 type  2   force =     0.83754861    1.53895510   37.92290191
     atom   18 type  2   force =    -0.15238500   -0.63309378  -38.56675877
     atom   19 type  1   force =     2.84293053   -2.68623514    0.42952244
     atom   20 type  2   force =     0.24394909   -0.22063706  -38.48364653
     atom   21 type  1   force =     0.28071646    0.07346125    0.93591726
     atom   22 type  2   force =     1.05481820   -2.05741727   37.93604980
     atom   23 type  2   force =    -0.05672906    0.64896588  -38.37217313
     atom   24 type  1   force =    -0.67260986    1.35204072    5.69931403
     atom   25 type  2   force =     0.59087127    0.81801989   38.99514644
     atom   26 type  2   force =    -0.29389630    0.11243606  -37.40046832
     atom   27 type  1   force =     0.01669210    0.38115531   -2.28630586
     atom   28 type  2   force =     0.01995701    1.04235897   38.19991298
     atom   29 type  2   force =    -0.27659040   -0.41495478  -37.26524889
     atom   30 type  1   force =    -0.48671764   -1.11772643   -0.22125470
     atom   31 type  2   force =     1.21442085   -0.24678998   37.26603817
     atom   32 type  2   force =    -0.48356603   -0.04134338  -38.65932960
     atom   33 type  1   force =     0.70243285   -0.77057181    1.15116364
     atom   34 type  2   force =    -0.30730453   -1.63566281   39.03836666
     atom   35 type  2   force =    -0.33689944    0.46197514  -37.88577146
     atom   36 type  3   force =     0.03700082   -0.07484826    7.90923771
     The local contribution  to forces
     atom    1 type  1   force =    -0.39008311   -0.37318490   -5.65633790
     atom    2 type  2   force =     0.76127420   -0.48327678  -39.00043033
     atom    3 type  2   force =     0.18500192   -0.03082860   35.85432538
     atom    4 type  1   force =    -0.05549753   -0.56697452   -0.68224837
     atom    5 type  2   force =     0.95410610   -1.48923653  -38.52532695
     atom    6 type  2   force =    -0.34472488    0.49165776   37.77324222
     atom    7 type  1   force =     2.61903537    2.85018728   -2.51427817
     atom    8 type  2   force =     1.02730952    0.03718315  -37.12701613
     atom    9 type  2   force =    -0.32484495    0.07041446   37.75983284
     atom   10 type  1   force =     1.26798052    0.30909186   -5.52212097
     atom   11 type  2   force =     0.51500806    1.63657795  -38.88261822
     atom   12 type  2   force =    -0.43533518   -0.66884085   37.63667280
     atom   13 type  1   force =    -0.57636253   -1.23762729   -2.68235146
     atom   14 type  2   force =    -0.19961107   -0.10318153  -38.21324886
     atom   15 type  2   force =    -0.18017070    0.04504348   36.58385403
     atom   16 type  1   force =    -0.01684248   -3.95380064   -0.44546834
     atom   17 type  2   force =    -0.83510556   -1.51146028  -37.69357410
     atom   18 type  2   force =     0.15314332    0.63174308   38.32732692
     atom   19 type  1   force =    -2.85566911    2.66397459   -0.41923326
     atom   20 type  2   force =    -0.24171547    0.23768273   38.24043737
     atom   21 type  1   force =    -0.27649349   -0.09244240   -0.93876800
     atom   22 type  2   force =    -0.97122596    2.01299875  -37.80802900
     atom   23 type  2   force =     0.04946130   -0.63230766   38.13228998
     atom   24 type  1   force =     0.65501193   -1.36860046   -5.70985433
     atom   25 type  2   force =    -0.59152908   -0.79826774  -38.78136414
     atom   26 type  2   force =     0.28600031   -0.10050820   37.15273801
     atom   27 type  1   force =    -0.01325647   -0.39082039    2.28275090
     atom   28 type  2   force =    -0.01538327   -1.02226151  -37.95082822
     atom   29 type  2   force =     0.27292652    0.41277830   37.02053591
     atom   30 type  1   force =     0.47888336    1.11029909    0.20669759
     atom   31 type  2   force =    -1.20641284    0.24694102  -37.01895008
     atom   32 type  2   force =     0.47633797    0.05243235   38.41708492
     atom   33 type  1   force =    -0.69085741    0.76142629   -1.20773813
     atom   34 type  2   force =     0.29575566    1.61043177  -38.84403546
     atom   35 type  2   force =     0.33191576   -0.44552265   37.64896441
     atom   36 type  3   force =    -0.01800818    0.06057365   -7.90723095
     The core correction contribution to forces
     atom    1 type  1   force =     0.00000000    0.00000000    0.00000000
     atom    2 type  2   force =     0.00039089   -0.00022923    0.02065359
     atom    3 type  2   force =     0.00048692    0.00007266   -0.02087528
     atom    4 type  1   force =     0.00000000    0.00000000    0.00000000
     atom    5 type  2   force =    -0.00060932    0.00172599    0.02028712
     atom    6 type  2   force =     0.00030634   -0.00114986   -0.02080839
     atom    7 type  1   force =     0.00000000    0.00000000    0.00000000
     atom    8 type  2   force =    -0.00007576    0.00046451    0.02035355
     atom    9 type  2   force =    -0.00015046    0.00044548   -0.02104148
     atom   10 type  1   force =     0.00000000    0.00000000    0.00000000
     atom   11 type  2   force =    -0.00074157   -0.00022956    0.02047688
     atom   12 type  2   force =     0.00114953    0.00127920   -0.02092293
     atom   13 type  1   force =     0.00000000    0.00000000    0.00000000
     atom   14 type  2   force =    -0.00060405    0.00010440    0.02058879
     atom   15 type  2   force =     0.00088367    0.00045321   -0.02045979
     atom   16 type  1   force =     0.00000000    0.00000000    0.00000000
     atom   17 type  2   force =    -0.00005210    0.00151767    0.02023659
     atom   18 type  2   force =     0.00012391   -0.00046089   -0.02103429
     atom   19 type  1   force =     0.00000000    0.00000000    0.00000000
     atom   20 type  2   force =     0.00019544    0.00083355   -0.02121968
     atom   21 type  1   force =     0.00000000    0.00000000    0.00000000
     atom   22 type  2   force =     0.00608837   -0.00359699    0.01306959
     atom   23 type  2   force =    -0.00054989    0.00128421   -0.02102584
     atom   24 type  1   force =     0.00000000    0.00000000    0.00000000
     atom   25 type  2   force =    -0.00059217    0.00034390    0.01865942
     atom   26 type  2   force =    -0.00015327    0.00070055   -0.02093866
     atom   27 type  1   force =     0.00000000    0.00000000    0.00000000
     atom   28 type  2   force =     0.00025332    0.00168951    0.02097976
     atom   29 type  2   force =    -0.00056911   -0.00058861   -0.02059516
     atom   30 type  1   force =     0.00000000    0.00000000    0.00000000
     atom   31 type  2   force =     0.00040571    0.00019193    0.02049494
     atom   32 type  2   force =    -0.00024410    0.00029063   -0.02094469
     atom   33 type  1   force =     0.00000000    0.00000000    0.00000000
     atom   34 type  2   force =    -0.00099809    0.00011647    0.01824974
     atom   35 type  2   force =    -0.00004041    0.00100783   -0.02116200
     atom   36 type  3   force =     0.00000000    0.00000000    0.00000000
     The Hubbard contrib.    to forces
     atom    1 type  1   force =     0.00000000    0.00000000    0.00000000
     atom    2 type  2   force =     0.00000000    0.00000000    0.00000000
     atom    3 type  2   force =     0.00000000    0.00000000    0.00000000
     atom    4 type  1   force =     0.00000000    0.00000000    0.00000000
     atom    5 type  2   force =     0.00000000    0.00000000    0.00000000
     atom    6 type  2   force =     0.00000000    0.00000000    0.00000000
     atom    7 type  1   force =     0.00000000    0.00000000    0.00000000
     atom    8 type  2   force =     0.00000000    0.00000000    0.00000000
     atom    9 type  2   force =     0.00000000    0.00000000    0.00000000
     atom   10 type  1   force =     0.00000000    0.00000000    0.00000000
     atom   11 type  2   force =     0.00000000    0.00000000    0.00000000
     atom   12 type  2   force =     0.00000000    0.00000000    0.00000000
     atom   13 type  1   force =     0.00000000    0.00000000    0.00000000
     atom   14 type  2   force =     0.00000000    0.00000000    0.00000000
     atom   15 type  2   force =     0.00000000    0.00000000    0.00000000
     atom   16 type  1   force =     0.00000000    0.00000000    0.00000000
     atom   17 type  2   force =     0.00000000    0.00000000    0.00000000
     atom   18 type  2   force =     0.00000000    0.00000000    0.00000000
     atom   19 type  1   force =     0.00000000    0.00000000    0.00000000
     atom   20 type  2   force =     0.00000000    0.00000000    0.00000000
     atom   21 type  1   force =     0.00000000    0.00000000    0.00000000
     atom   22 type  2   force =     0.00000000    0.00000000    0.00000000
     atom   23 type  2   force =     0.00000000    0.00000000    0.00000000
     atom   24 type  1   force =     0.00000000    0.00000000    0.00000000
     atom   25 type  2   force =     0.00000000    0.00000000    0.00000000
     atom   26 type  2   force =     0.00000000    0.00000000    0.00000000
     atom   27 type  1   force =     0.00000000    0.00000000    0.00000000
     atom   28 type  2   force =     0.00000000    0.00000000    0.00000000
     atom   29 type  2   force =     0.00000000    0.00000000    0.00000000
     atom   30 type  1   force =     0.00000000    0.00000000    0.00000000
     atom   31 type  2   force =     0.00000000    0.00000000    0.00000000
     atom   32 type  2   force =     0.00000000    0.00000000    0.00000000
     atom   33 type  1   force =     0.00000000    0.00000000    0.00000000
     atom   34 type  2   force =     0.00000000    0.00000000    0.00000000
     atom   35 type  2   force =     0.00000000    0.00000000    0.00000000
     atom   36 type  3   force =     0.00000000    0.00000000    0.00000000
     The SCF correction term to forces
     atom    1 type  1   force =     0.00018856   -0.00013069    0.00021976
     atom    2 type  2   force =    -0.00001019   -0.00000964    0.00034079
     atom    3 type  2   force =     0.00002725   -0.00003226   -0.00025629
     atom    4 type  1   force =     0.00007709   -0.00001733    0.00023885
     atom    5 type  2   force =    -0.00001747    0.00000594    0.00044359
     atom    6 type  2   force =     0.00008219   -0.00010222   -0.00026829
     atom    7 type  1   force =    -0.00013567   -0.00014253    0.00043110
     atom    8 type  2   force =    -0.00004850    0.00004011    0.00038108
     atom    9 type  2   force =     0.00002682    0.00004209   -0.00020143
     atom   10 type  1   force =     0.00000758    0.00002313    0.00013756
     atom   11 type  2   force =    -0.00000846   -0.00004610    0.00041273
     atom   12 type  2   force =     0.00005508    0.00007788   -0.00023850
     atom   13 type  1   force =    -0.00021896   -0.00012039    0.00022403
     atom   14 type  2   force =    -0.00000427   -0.00001483    0.00038683
     atom   15 type  2   force =     0.00001589   -0.00003732   -0.00028506
     atom   16 type  1   force =     0.00005726    0.00040063    0.00041080
     atom   17 type  2   force =    -0.00004688    0.00002958    0.00046787
     atom   18 type  2   force =    -0.00010666   -0.00010026   -0.00027578
     atom   19 type  1   force =     0.00019409   -0.00007417    0.00043807
     atom   20 type  2   force =     0.00003723    0.00003967   -0.00012170
     atom   21 type  1   force =     0.00001207   -0.00004830    0.00021122
     atom   22 type  2   force =    -0.00003122   -0.00001548    0.00043291
     atom   23 type  2   force =    -0.00002101    0.00008847   -0.00025194
     atom   24 type  1   force =     0.00004454   -0.00004745    0.00010182
     atom   25 type  2   force =     0.00001812   -0.00003859    0.00038739
     atom   26 type  2   force =    -0.00005651   -0.00000885   -0.00025606
     atom   27 type  1   force =    -0.00009881   -0.00005718    0.00030732
     atom   28 type  2   force =     0.00004580    0.00000854    0.00036468
     atom   29 type  2   force =     0.00001895   -0.00008910   -0.00023160
     atom   30 type  1   force =    -0.00006265    0.00008651    0.00022827
     atom   31 type  2   force =     0.00006375   -0.00003125    0.00043367
     atom   32 type  2   force =    -0.00004702    0.00000902   -0.00020192
     atom   33 type  1   force =    -0.00004354    0.00009661    0.00025804
     atom   34 type  2   force =     0.00004014   -0.00001338    0.00036177
     atom   35 type  2   force =    -0.00002177    0.00008186   -0.00023928
     atom   36 type  3   force =     0.00000885   -0.00000552    0.00001672

     Total force =     0.119378     Total SCF correction =     0.001995

     BFGS Geometry Optimization
     Energy error            =      0.0E+00 Ry
     Gradient error          =      4.3E-02 Ry/Bohr

     number of scf cycles    =   1
     number of bfgs steps    =   0

     energy             new  =   -2205.4904284966 Ry

     new trust radius        =       0.0438261078 bohr
     new conv_thr            =       0.0000010000 Ry


ATOMIC_POSITIONS (angstrom)
Mo            6.5815379491        1.7784217750        2.8265026385
S             8.1675453232        0.8191247037        4.4351942381
S             8.1874278753        0.8154315044        1.2763235747
Mo            8.0971509366        4.4975991172        2.7173500252
S             6.4994249610        3.7192446727        4.3438651322
S             6.5538821905        3.5171848192        1.1208523982
Mo            6.4947277553        7.2090490503        2.6669502074
S             8.0821402809        6.3417906631        4.2516880416
S             8.0876946252        6.3082762467        1.0900911500
Mo            8.1535867298        9.9077678431        2.8287650988
S             6.4975665446        8.9418606877        4.3794619739
S             6.6181411983        9.0499023257        1.1434459158
Mo            3.4233803127        1.7493047098        2.7732304552
S             4.9810094739        0.8175371401        4.3570138142
S             5.0510728601        0.8476671605        1.2221620662
Mo            4.9812174003        4.5187911893        2.6359664511
S             3.4307788711        3.6716435592        4.2800193290
S             3.4356041814        3.5452204572        1.0651853487
Mo            3.4542848204        7.2082886806        2.6284122635
S             4.9837630559        6.3244921641        1.0380726685
Mo            5.0115242877        9.9045896452        2.7422855705
S             3.4558891454        8.9516424612        4.3396213435
S             3.4075728907        9.0663819790        1.1010985994
Mo            0.2909596021        1.7462521535        2.8367453476
S             1.8600768261        0.7995777834        4.4049076359
S             1.8550126216        0.8538880881        1.2074733203
Mo            1.8606185635        4.4944914227        2.6631796496
S             0.2726421464        3.6540019933        4.3350537664
S             0.2325678167        3.5267136487        1.1709955729
Mo            0.2681651870        7.2232425195        2.6980814113
S             1.9027175711        6.3112275111        4.2304325701
S             1.8580491197        6.3144985353        1.0491766422
Mo            1.8479047640        9.9405976406        2.7500829109
S             0.3015499468        9.0675680419        4.4121411827
S             0.2728061249        9.0470658405        1.1580161663
H             2.1138552750        9.7051864547        5.4749170565



     Writing config-only to output data dir ./MoS2-V-O.save/
     NEW-OLD atomic charge density approx. for the potential

     negative rho (up, down):  1.427E-04 0.000E+00

     total cpu time spent up to now is       84.7 secs

     Self-consistent Calculation

     iteration #  1     ecut=    80.00 Ry     beta= 0.70
     Davidson diagonalization with overlap
     ethr =  1.00E-06,  avg # of iterations = 12.0

     negative rho (up, down):  1.182E-04 0.000E+00

     total cpu time spent up to now is      101.5 secs

     total energy              =   -2205.50186922 Ry
     estimated scf accuracy    <       0.00110061 Ry

     iteration #  2     ecut=    80.00 Ry     beta= 0.70
     Davidson diagonalization with overlap
     ethr =  3.59E-07,  avg # of iterations =  2.0

     negative rho (up, down):  1.139E-04 0.000E+00

     total cpu time spent up to now is      119.6 secs

     total energy              =   -2205.50189172 Ry
     estimated scf accuracy    <       0.00022381 Ry

     iteration #  3     ecut=    80.00 Ry     beta= 0.70
     Davidson diagonalization with overlap
     ethr =  7.29E-08,  avg # of iterations =  5.0

     negative rho (up, down):  1.133E-04 0.000E+00

     total cpu time spent up to now is      138.2 secs

     total energy              =   -2205.50192673 Ry
     estimated scf accuracy    <       0.00002052 Ry

     iteration #  4     ecut=    80.00 Ry     beta= 0.70
     Davidson diagonalization with overlap
     ethr =  6.69E-09,  avg # of iterations =  5.0

     negative rho (up, down):  1.113E-04 0.000E+00

     total cpu time spent up to now is      158.8 secs

     total energy              =   -2205.50193498 Ry
     estimated scf accuracy    <       0.00000426 Ry

     iteration #  5     ecut=    80.00 Ry     beta= 0.70
     Davidson diagonalization with overlap
     ethr =  1.39E-09,  avg # of iterations =  2.0

     negative rho (up, down):  1.373E-04 0.000E+00

     total cpu time spent up to now is      160.8 secs

     End of self-consistent calculation

          k = 0.0000 0.0000 0.0000 (105382 PWs)   bands (ev):

   -62.9115 -62.8993 -62.8852 -62.8645 -62.8529 -62.8449 -62.8331 -62.8141
   -62.8020 -62.7854 -62.7830 -62.7722 -37.2476 -37.1828 -37.1634 -37.1612
   -37.1470 -37.1262 -37.1121 -37.0911 -37.0871 -37.0846 -37.0774 -37.0589
   -37.0535 -37.0527 -37.0389 -37.0290 -37.0239 -37.0174 -37.0068 -36.9980
   -36.9764 -36.9699 -36.9575 -36.9481 -36.9439 -36.9403 -36.9352 -36.9240
   -36.9197 -36.9018 -36.8830 -36.8624 -36.8612 -36.8211 -36.7680 -36.7312
   -16.0200 -15.2740 -15.1440 -15.0368 -14.9280 -14.8520 -14.5890 -14.5120
   -14.4692 -14.4408 -14.4101 -14.3758 -14.3516 -14.3183 -14.1806 -14.1536
   -14.1362 -14.1246 -14.0488 -13.9167 -13.8689 -13.8482 -13.8256  -7.8572
    -7.6766  -7.4236  -7.3103  -7.3022  -7.2611  -7.2078  -7.1493  -7.0266
    -6.8432  -6.8284  -6.7811  -6.7165  -6.5743  -6.5294  -6.5033  -6.4250
    -6.2817  -6.2781  -6.0652  -5.9604  -5.9270  -5.8817  -5.8416  -5.8101
    -5.7952  -5.7358  -5.7175  -5.6794  -5.6355  -5.5615  -5.5401  -5.4826
    -5.4328  -5.3811  -5.2039  -5.1714  -5.1107  -5.0240  -5.0094  -4.9554
    -4.9300  -4.8535  -4.6730  -4.5365  -4.3621  -4.3351  -4.2869  -4.2704
    -4.2383  -4.0929  -4.0492  -3.8540  -3.8349  -3.8038  -3.7427  -3.7094
    -3.6906  -3.5759  -3.5677  -3.5234  -3.5071  -3.4853  -3.4561  -3.3960
    -3.3777  -3.2203  -3.1474  -2.9291  -2.9049  -2.8081  -2.7941  -2.7554
    -2.7335  -2.6856  -2.6635  -2.6549  -2.5847  -2.3011  -2.0558  -2.0092
    -1.9776  -1.1541  -0.8159  -0.6646  -0.1909  -0.1472  -0.1111  -0.0539
     0.0601   0.1262   0.1322   0.2291   0.2388   0.2963   0.3383   0.3995
     0.4754   0.5095   0.5268   0.5585   0.5966   0.6458   0.6947   0.7291
     0.7360   0.7757   0.8412   0.8533   0.9493   0.9849   1.0265   1.1440
     1.3496

     the Fermi energy is    -1.1541 ev

!    total energy              =   -2205.50193519 Ry
     estimated scf accuracy    <       0.00000089 Ry
     smearing contrib. (-TS)   =      -0.00565358 Ry
     internal energy E=F+TS    =   -2205.49628161 Ry

     The total energy is F=E-TS. E is the sum of the following terms:
     one-electron contribution =  -18042.79681012 Ry
     hartree contribution      =    9007.97628206 Ry
     xc contribution           =    -385.18810310 Ry
     ewald contribution        =    7214.51234955 Ry

     convergence has been achieved in   5 iterations

     negative rho (up, down):  1.373E-04 0.000E+00

     Forces acting on atoms (cartesian axes, Ry/au):

     atom    1 type  1   force =     0.00357245   -0.00858222   -0.00020675
     atom    2 type  2   force =    -0.01066659    0.01152746   -0.00144055
     atom    3 type  2   force =    -0.01061937    0.00717337   -0.00927211
     atom    4 type  1   force =     0.00432702    0.00316961    0.00104798
     atom    5 type  2   force =     0.00074135   -0.00553153   -0.00467527
     atom    6 type  2   force =     0.00079682    0.00750486    0.00148704
     atom    7 type  1   force =     0.00626329   -0.01097496   -0.00209226
     atom    8 type  2   force =     0.00134849   -0.00342040    0.01269870
     atom    9 type  2   force =     0.01188496    0.00540682    0.00621387
     atom   10 type  1   force =    -0.00479820    0.00755613   -0.00763879
     atom   11 type  2   force =     0.00363611   -0.00240921   -0.00986541
     atom   12 type  2   force =    -0.00211020    0.00083906    0.00174387
     atom   13 type  1   force =     0.00350613    0.00230734   -0.00114107
     atom   14 type  2   force =     0.00840029    0.00102813    0.00778710
     atom   15 type  2   force =    -0.00866009    0.00238658   -0.00670142
     atom   16 type  1   force =     0.00225545    0.00715285    0.00407764
     atom   17 type  2   force =     0.00503144    0.00001414    0.00108615
     atom   18 type  2   force =    -0.00270043   -0.00317498    0.01061739
     atom   19 type  1   force =    -0.00014920   -0.00784789    0.00396888
     atom   20 type  2   force =     0.00080124   -0.00462011   -0.00168867
     atom   21 type  1   force =    -0.00405627    0.00253744    0.00412440
     atom   22 type  2   force =    -0.02647334    0.01431515    0.01909640
     atom   23 type  2   force =     0.00163587   -0.00028451    0.00411803
     atom   24 type  1   force =    -0.00562510   -0.00225663   -0.00911996
     atom   25 type  2   force =     0.01108855    0.00854458    0.00104022
     atom   26 type  2   force =    -0.00742534    0.00189448   -0.00826305
     atom   27 type  1   force =    -0.00100924   -0.00099526    0.00553457
     atom   28 type  2   force =     0.00016126   -0.00231039   -0.00563616
     atom   29 type  2   force =     0.00198991    0.00105991   -0.00347139
     atom   30 type  1   force =    -0.00269657    0.00334326    0.00301515
     atom   31 type  2   force =    -0.00029803   -0.00255484    0.00963210
     atom   32 type  2   force =    -0.00687277    0.00586169    0.00631728
     atom   33 type  1   force =     0.00185177    0.00229070   -0.01404337
     atom   34 type  2   force =     0.00599050   -0.02800506   -0.01341715
     atom   35 type  2   force =    -0.00825810    0.00680139    0.00387348
     atom   36 type  3   force =     0.02713595   -0.01974696   -0.00880688
     The non-local contrib.  to forces
     atom    1 type  1   force =     0.00054588    0.02930325   -0.00864002
     atom    2 type  2   force =    -0.00902264    0.00063442   -0.26830790
     atom    3 type  2   force =    -0.00949994   -0.00497318    0.26514065
     atom    4 type  1   force =     0.00070729    0.00511163    0.00477492
     atom    5 type  2   force =     0.00746726   -0.03071367   -0.25198222
     atom    6 type  2   force =    -0.00213933    0.00935898    0.26388592
     atom    7 type  1   force =    -0.01969803    0.00230690   -0.01995199
     atom    8 type  2   force =     0.00372915   -0.00311591   -0.25580893
     atom    9 type  2   force =     0.00639960   -0.00794581    0.27430194
     atom   10 type  1   force =     0.00565045   -0.00097490   -0.00456521
     atom   11 type  2   force =     0.01539616   -0.00197272   -0.25890615
     atom   12 type  2   force =    -0.01379841   -0.01620555    0.26311457
     atom   13 type  1   force =    -0.00262380    0.02090164   -0.00966815
     atom   14 type  2   force =     0.01015321   -0.01024629   -0.26411313
     atom   15 type  2   force =    -0.01307467   -0.00849947    0.26010744
     atom   16 type  1   force =    -0.00024687    0.03266966   -0.03170119
     atom   17 type  2   force =     0.00293251   -0.02806675   -0.24964779
     atom   18 type  2   force =    -0.00367695   -0.00181808    0.27241500
     atom   19 type  1   force =     0.01485536    0.00764812   -0.01709003
     atom   20 type  2   force =    -0.00142920   -0.02156180    0.26398123
     atom   21 type  1   force =    -0.00580655    0.02509707   -0.00166275
     atom   22 type  2   force =    -0.12628913    0.06720748   -0.11183844
     atom   23 type  2   force =     0.00758639   -0.01719788    0.26833458
     atom   24 type  1   force =     0.00585932    0.01472056   -0.01327167
     atom   25 type  2   force =     0.01484372   -0.00842515   -0.22753195
     atom   26 type  2   force =    -0.00054557   -0.01191003    0.26305496
     atom   27 type  1   force =    -0.00337045    0.00714929    0.00768902
     atom   28 type  2   force =    -0.00438527   -0.02260733   -0.27614489
     atom   29 type  2   force =     0.00591252    0.00193398    0.26365372
     atom   30 type  1   force =     0.00194166    0.02125930    0.00595824
     atom   31 type  2   force =    -0.00871149   -0.00322907   -0.25669134
     atom   32 type  2   force =     0.00100129   -0.00451106    0.27118879
     atom   33 type  1   force =    -0.00381250    0.00918387    0.01226353
     atom   34 type  2   force =     0.01761230   -0.00962548   -0.22466107
     atom   35 type  2   force =    -0.00285649   -0.00996678    0.26676702
     atom   36 type  3   force =     0.00548544   -0.00409711   -0.00826253
     The ionic contribution  to forces
     atom    1 type  1   force =     0.12611233    0.57745167    5.77368154
     atom    2 type  2   force =    -0.55542228    0.35480266   39.33469828
     atom    3 type  2   force =    -0.19906295    0.07511929  -36.21714202
     atom    4 type  1   force =     0.05727435    0.48765992    0.73708146
     atom    5 type  2   force =    -0.95434329    1.49133920   38.70254562
     atom    6 type  2   force =     0.29654485   -0.53791476  -37.94824927
     atom    7 type  1   force =    -2.72947022   -2.59644664    2.44376395
     atom    8 type  2   force =    -1.01602137   -0.00409939   37.51615014
     atom    9 type  2   force =     0.33457087   -0.09869387  -38.00304685
     atom   10 type  1   force =    -1.04629277   -0.35998917    5.26667435
     atom   11 type  2   force =    -0.52808931   -1.66290072   39.04110193
     atom   12 type  2   force =     0.33536508    0.60567489  -37.83191144
     atom   13 type  1   force =     0.57191693    1.14421106    2.69847423
     atom   14 type  2   force =     0.11257226    0.10428308   38.52924314
     atom   15 type  2   force =     0.20433744    0.01246982  -36.85363582
     atom   16 type  1   force =     0.01708082    3.75018186    0.68231656
     atom   17 type  2   force =     0.82912411    1.50052074   37.93899055
     atom   18 type  2   force =    -0.11597249   -0.58435726  -38.48909241
     atom   19 type  1   force =     2.89059261   -2.40859539    0.54144881
     atom   20 type  2   force =     0.21814864   -0.19340393  -38.52330079
     atom   21 type  1   force =     0.14483381   -0.14563981    1.13433920
     atom   22 type  2   force =     1.09862653   -2.06143499   37.94566844
     atom   23 type  2   force =     0.05629648    0.54663561  -38.30646111
     atom   24 type  1   force =    -0.45111828    1.22432042    5.43802347
     atom   25 type  2   force =     0.45919536    0.70704732   38.96979528
     atom   26 type  2   force =    -0.23048964    0.19838354  -37.40272598
     atom   27 type  1   force =     0.00058168    0.42280591   -2.06912512
     atom   28 type  2   force =     0.03011978    0.95754382   38.18542252
     atom   29 type  2   force =    -0.25819014   -0.34178781  -37.28109737
     atom   30 type  1   force =    -0.37303037   -1.21451928   -0.19708873
     atom   31 type  2   force =     1.19462202   -0.20236442   37.32380684
     atom   32 type  2   force =    -0.46924115   -0.08686622  -38.60304998
     atom   33 type  1   force =     0.61724428   -0.64184885    0.52497555
     atom   34 type  2   force =    -0.32045806   -1.39095000   38.94354234
     atom   35 type  2   force =    -0.34971210    0.42447922  -37.84645108
     atom   36 type  3   force =     0.00175422   -0.05311755    7.90063377
     The local contribution  to forces
     atom    1 type  1   force =    -0.12249061   -0.61553482   -5.76557351
     atom    2 type  2   force =     0.55358543   -0.34371529  -39.08885653
     atom    3 type  2   force =     0.19751803   -0.06306543   35.96331077
     atom    4 type  1   force =    -0.05339278   -0.48961640   -0.74132575
     atom    5 type  2   force =     0.94842784   -1.46801381  -38.47587733
     atom    6 type  2   force =    -0.29375829    0.53701845   37.70651422
     atom    7 type  1   force =     2.75594868    2.58324414   -2.42654390
     atom    8 type  2   force =     1.01381636    0.00336362  -37.26838228
     atom    9 type  2   force =    -0.32894034    0.11161221   37.75581198
     atom   10 type  1   force =     1.03569129    0.36865174   -5.27046769
     atom   11 type  2   force =     0.51712854    1.66265214  -38.81310771
     atom   12 type  2   force =    -0.32477057   -0.58991441   37.59128422
     atom   13 type  1   force =    -0.56567752   -1.16288504   -2.69054909
     atom   14 type  2   force =    -0.11375125   -0.09300412  -38.27839638
     atom   15 type  2   force =    -0.20064341   -0.00209555   36.60711529
     atom   16 type  1   force =    -0.01419461   -3.77597913   -0.64698377
     atom   17 type  2   force =    -0.82698623   -1.47407260  -37.70876670
     atom   18 type  2   force =     0.11683594    0.58336848   38.24810402
     atom   19 type  1   force =    -2.90549049    2.39324286   -0.52113173
     atom   20 type  2   force =    -0.21590485    0.20960586   38.27849277
     atom   21 type  1   force =    -0.14297494    0.12320393   -1.12926829
     atom   22 type  2   force =    -1.00544727    2.01259162  -37.82776754
     atom   23 type  2   force =    -0.06166750   -0.53082322   38.06305763
     atom   24 type  1   force =     0.43924922   -1.24134584   -5.43449072
     atom   25 type  2   force =    -0.46266641   -0.69040142  -38.76049259
     atom   26 type  2   force =     0.22376741   -0.18524063   37.15212778
     atom   27 type  1   force =     0.00117502   -0.43133652    2.06648114
     atom   28 type  2   force =    -0.02593349   -0.93897083  -37.93631094
     atom   29 type  2   force =     0.25473907    0.34143523   37.03441954
     atom   30 type  1   force =     0.36786209    1.19676992    0.19351312
     atom   31 type  2   force =    -1.18690132    0.20277549  -37.07830737
     atom   32 type  2   force =     0.46142577    0.09688507   38.35887060
     atom   33 type  1   force =    -0.61167466    0.63510455   -0.55206848
     atom   34 type  2   force =     0.30948542    1.37277896  -38.75126287
     atom   35 type  2   force =     0.34427521   -0.40863542   37.60442600
     atom   36 type  3   force =     0.01987424    0.03748392   -7.90129281
     The core correction contribution to forces
     atom    1 type  1   force =     0.00000000    0.00000000    0.00000000
     atom    2 type  2   force =     0.00032717   -0.00015855    0.02068555
     atom    3 type  2   force =     0.00040198    0.00016415   -0.02078345
     atom    4 type  1   force =     0.00000000    0.00000000    0.00000000
     atom    5 type  2   force =    -0.00066303    0.00169526    0.02027147
     atom    6 type  2   force =     0.00027566   -0.00106278   -0.02084002
     atom    7 type  1   force =     0.00000000    0.00000000    0.00000000
     atom    8 type  2   force =    -0.00009687    0.00046175    0.02043737
     atom    9 type  2   force =    -0.00006270    0.00043815   -0.02099133
     atom   10 type  1   force =     0.00000000    0.00000000    0.00000000
     atom   11 type  2   force =    -0.00063751   -0.00021211    0.02054060
     atom   12 type  2   force =     0.00113085    0.00127318   -0.02086783
     atom   13 type  1   force =     0.00000000    0.00000000    0.00000000
     atom   14 type  2   force =    -0.00056401    0.00009405    0.02067799
     atom   15 type  2   force =     0.00076496    0.00053161   -0.02050174
     atom   16 type  1   force =     0.00000000    0.00000000    0.00000000
     atom   17 type  2   force =    -0.00003237    0.00145253    0.02024390
     atom   18 type  2   force =     0.00007954   -0.00050549   -0.02100548
     atom   19 type  1   force =     0.00000000    0.00000000    0.00000000
     atom   20 type  2   force =     0.00018790    0.00080299   -0.02118323
     atom   21 type  1   force =     0.00000000    0.00000000    0.00000000
     atom   22 type  2   force =     0.00658913   -0.00386040    0.01258202
     atom   23 type  2   force =    -0.00050399    0.00127509   -0.02098754
     atom   24 type  1   force =     0.00000000    0.00000000    0.00000000
     atom   25 type  2   force =    -0.00045194    0.00033756    0.01884233
     atom   26 type  2   force =    -0.00021292    0.00071563   -0.02087701
     atom   27 type  1   force =     0.00000000    0.00000000    0.00000000
     atom   28 type  2   force =     0.00026142    0.00161407    0.02102307
     atom   29 type  2   force =    -0.00051848   -0.00053333   -0.02061458
     atom   30 type  1   force =     0.00000000    0.00000000    0.00000000
     atom   31 type  2   force =     0.00040652    0.00023753    0.02058883
     atom   32 type  2   force =    -0.00033748    0.00028446   -0.02091566
     atom   33 type  1   force =     0.00000000    0.00000000    0.00000000
     atom   34 type  2   force =    -0.00075793   -0.00007781    0.01851275
     atom   35 type  2   force =    -0.00006923    0.00092921   -0.02100623
     atom   36 type  3   force =     0.00000000    0.00000000    0.00000000
     The Hubbard contrib.    to forces
     atom    1 type  1   force =     0.00000000    0.00000000    0.00000000
     atom    2 type  2   force =     0.00000000    0.00000000    0.00000000
     atom    3 type  2   force =     0.00000000    0.00000000    0.00000000
     atom    4 type  1   force =     0.00000000    0.00000000    0.00000000
     atom    5 type  2   force =     0.00000000    0.00000000    0.00000000
     atom    6 type  2   force =     0.00000000    0.00000000    0.00000000
     atom    7 type  1   force =     0.00000000    0.00000000    0.00000000
     atom    8 type  2   force =     0.00000000    0.00000000    0.00000000
     atom    9 type  2   force =     0.00000000    0.00000000    0.00000000
     atom   10 type  1   force =     0.00000000    0.00000000    0.00000000
     atom   11 type  2   force =     0.00000000    0.00000000    0.00000000
     atom   12 type  2   force =     0.00000000    0.00000000    0.00000000
     atom   13 type  1   force =     0.00000000    0.00000000    0.00000000
     atom   14 type  2   force =     0.00000000    0.00000000    0.00000000
     atom   15 type  2   force =     0.00000000    0.00000000    0.00000000
     atom   16 type  1   force =     0.00000000    0.00000000    0.00000000
     atom   17 type  2   force =     0.00000000    0.00000000    0.00000000
     atom   18 type  2   force =     0.00000000    0.00000000    0.00000000
     atom   19 type  1   force =     0.00000000    0.00000000    0.00000000
     atom   20 type  2   force =     0.00000000    0.00000000    0.00000000
     atom   21 type  1   force =     0.00000000    0.00000000    0.00000000
     atom   22 type  2   force =     0.00000000    0.00000000    0.00000000
     atom   23 type  2   force =     0.00000000    0.00000000    0.00000000
     atom   24 type  1   force =     0.00000000    0.00000000    0.00000000
     atom   25 type  2   force =     0.00000000    0.00000000    0.00000000
     atom   26 type  2   force =     0.00000000    0.00000000    0.00000000
     atom   27 type  1   force =     0.00000000    0.00000000    0.00000000
     atom   28 type  2   force =     0.00000000    0.00000000    0.00000000
     atom   29 type  2   force =     0.00000000    0.00000000    0.00000000
     atom   30 type  1   force =     0.00000000    0.00000000    0.00000000
     atom   31 type  2   force =     0.00000000    0.00000000    0.00000000
     atom   32 type  2   force =     0.00000000    0.00000000    0.00000000
     atom   33 type  1   force =     0.00000000    0.00000000    0.00000000
     atom   34 type  2   force =     0.00000000    0.00000000    0.00000000
     atom   35 type  2   force =     0.00000000    0.00000000    0.00000000
     atom   36 type  3   force =     0.00000000    0.00000000    0.00000000
     The SCF correction term to forces
     atom    1 type  1   force =    -0.00059354    0.00019706    0.00030895
     atom    2 type  2   force =    -0.00013265   -0.00003641    0.00032376
     atom    3 type  2   force =     0.00002512   -0.00007209    0.00018564
     atom    4 type  1   force =    -0.00026023    0.00001383    0.00050106
     atom    5 type  2   force =    -0.00014581    0.00016086    0.00035090
     atom    6 type  2   force =    -0.00012445    0.00010434    0.00015990
     atom    7 type  1   force =    -0.00051553   -0.00007999    0.00062338
     atom    8 type  2   force =    -0.00007718   -0.00003111    0.00028612
     atom    9 type  2   force =    -0.00008087   -0.00000449    0.00012185
     atom   10 type  1   force =     0.00015443   -0.00013217    0.00070347
     atom   11 type  2   force =    -0.00016016    0.00002358    0.00048963
     atom   12 type  2   force =    -0.00003554    0.00001033    0.00010806
     atom   13 type  1   force =    -0.00010786    0.00007906    0.00058565
     atom   14 type  2   force =    -0.00000831   -0.00009921    0.00035917
     atom   15 type  2   force =    -0.00004280   -0.00002047    0.00019711
     atom   16 type  1   force =    -0.00038229    0.00027982    0.00042973
     atom   17 type  2   force =    -0.00000497    0.00017960    0.00024991
     atom   18 type  2   force =     0.00003513    0.00013675    0.00017997
     atom   19 type  1   force =    -0.00010507   -0.00014411    0.00072553
     atom   20 type  2   force =    -0.00019966   -0.00006386    0.00030506
     atom   21 type  1   force =    -0.00010698   -0.00012437    0.00069995
     atom   22 type  2   force =     0.00004901   -0.00018918    0.00043564
     atom   23 type  2   force =    -0.00007390   -0.00017473    0.00015817
     atom   24 type  1   force =     0.00038626    0.00004762    0.00060267
     atom   25 type  2   force =     0.00016943   -0.00001435    0.00041086
     atom   26 type  2   force =     0.00005700   -0.00005465    0.00014090
     atom   27 type  1   force =     0.00060613    0.00038544    0.00047323
     atom   28 type  2   force =     0.00010042    0.00010925    0.00035778
     atom   29 type  2   force =     0.00004855    0.00001122    0.00015101
     atom   30 type  1   force =     0.00053165   -0.00016730    0.00061622
     atom   31 type  2   force =     0.00028785    0.00002500    0.00021886
     atom   32 type  2   force =     0.00028041    0.00006881    0.00020723
     atom   33 type  1   force =     0.00009626   -0.00014950    0.00076974
     atom   34 type  2   force =     0.00011038   -0.00013134    0.00043542
     atom   35 type  2   force =     0.00010611   -0.00000547    0.00012147
     atom   36 type  3   force =     0.00002366   -0.00001685    0.00009841

     Total force =     0.082435     Total SCF correction =     0.002976
     Energy error            =      1.2E-02 Ry
     Gradient error          =      2.8E-02 Ry/Bohr

     number of scf cycles    =   2
     number of bfgs steps    =   1

     energy             old  =   -2205.4904284966 Ry
     energy             new  =   -2205.5019351880 Ry

     CASE: energy            _new < energy            _old

     new trust radius        =       0.0482087186 bohr
     new conv_thr            =       0.0000000280 Ry


ATOMIC_POSITIONS (angstrom)
Mo            6.5853797521        1.7711781539        2.8271553723
S             8.1592125644        0.8280005074        4.4345765088
S             8.1800215862        0.8205063799        1.2707975999
Mo            8.1000676545        4.5000267129        2.7178017703
S             6.4997035213        3.7153484867        4.3405401851
S             6.5544638710        3.5227794327        1.1215568765
Mo            6.4994504262        7.2004863046        2.6644748037
S             8.0829937338        6.3393487252        4.2611569917
S             8.0960586171        6.3122128766        1.0951839332
Mo            8.1490582179        9.9134282758        2.8206170418
S             6.5002127309        8.9402476919        4.3730505426
S             6.6170307461        9.0506838711        1.1453552402
Mo            3.4257730508        1.7512054756        2.7717330672
S             4.9872037141        0.8182632748        4.3630409624
S             5.0444896907        0.8493585504        1.2172649714
Mo            4.9828514791        4.5242363666        2.6390389536
S             3.4343380100        3.6716631130        4.2807007069
S             3.4334955707        3.5426649525        1.0728662654
Mo            3.4543160508        7.2018111289        2.6299915141
S             4.9843462223        6.3212928763        1.0373619652
Mo            5.0090914906        9.9067889425        2.7442585859
S             3.4372657493        8.9616438991        4.3539024217
S             3.4082444947        9.0665984272        1.1047156989
Mo            0.2864853278        1.7446719401        2.8283168034
S             1.8687628353        0.8061302668        4.4072763836
S             1.8493706280        0.8547875304        1.2024046415
Mo            1.8600430945        4.4936280597        2.6670280314
S             0.2728458009        3.6526228627        4.3312705762
S             0.2340223420        3.5271539484        1.1688091933
Mo            0.2658789317        7.2268526795        2.6987732400
S             1.9026818951        6.3093988501        4.2378802949
S             1.8531400154        6.3188414469        1.0538945567
Mo            1.8498787531        9.9419824536        2.7362173192
S             0.3063612120        9.0461274996        4.4042866421
S             0.2671938744        9.0517616410        1.1621915809
H             2.1321155794        9.6917905839        5.4692702950



     Writing config-only to output data dir ./MoS2-V-O.save/
     NEW-OLD atomic charge density approx. for the potential

     negative rho (up, down):  1.434E-04 0.000E+00

     total cpu time spent up to now is      164.1 secs

     Self-consistent Calculation

     iteration #  1     ecut=    80.00 Ry     beta= 0.70
     Davidson diagonalization with overlap
     ethr =  1.00E-06,  avg # of iterations = 11.0

     negative rho (up, down):  9.711E-05 0.000E+00

     total cpu time spent up to now is      186.9 secs

     total energy              =   -2205.51008000 Ry
     estimated scf accuracy    <       0.00085573 Ry

     iteration #  2     ecut=    80.00 Ry     beta= 0.70
     Davidson diagonalization with overlap
     ethr =  2.79E-07,  avg # of iterations =  2.0

     negative rho (up, down):  7.896E-05 0.000E+00

     total cpu time spent up to now is      204.6 secs

     total energy              =   -2205.51012157 Ry
     estimated scf accuracy    <       0.00014315 Ry

     iteration #  3     ecut=    80.00 Ry     beta= 0.70
     Davidson diagonalization with overlap
     ethr =  4.66E-08,  avg # of iterations =  6.0

     negative rho (up, down):  7.187E-05 0.000E+00

     total cpu time spent up to now is      220.9 secs

     total energy              =   -2205.51014379 Ry
     estimated scf accuracy    <       0.00001738 Ry

     iteration #  4     ecut=    80.00 Ry     beta= 0.70
     Davidson diagonalization with overlap
     ethr =  5.66E-09,  avg # of iterations =  5.0

     negative rho (up, down):  7.195E-05 0.000E+00

     total cpu time spent up to now is      239.3 secs

     total energy              =   -2205.51014981 Ry
     estimated scf accuracy    <       0.00000209 Ry

     iteration #  5     ecut=    80.00 Ry     beta= 0.70
     Davidson diagonalization with overlap
     ethr =  6.82E-10,  avg # of iterations =  5.0

     negative rho (up, down):  7.562E-05 0.000E+00

     total cpu time spent up to now is      253.3 secs

     total energy              =   -2205.51015008 Ry
     estimated scf accuracy    <       0.00000068 Ry

     iteration #  6     ecut=    80.00 Ry     beta= 0.70
     Davidson diagonalization with overlap
     ethr =  2.23E-10,  avg # of iterations =  6.0

     negative rho (up, down):  8.058E-05 0.000E+00

     total cpu time spent up to now is      265.4 secs

     total energy              =   -2205.51015016 Ry
     estimated scf accuracy    <       0.00000020 Ry

     iteration #  7     ecut=    80.00 Ry     beta= 0.70
     Davidson diagonalization with overlap
     ethr =  6.43E-11,  avg # of iterations =  4.0

     negative rho (up, down):  9.265E-05 0.000E+00

     total cpu time spent up to now is      277.1 secs

     total energy              =   -2205.51015011 Ry
     estimated scf accuracy    <       0.00000009 Ry

     iteration #  8     ecut=    80.00 Ry     beta= 0.70
     Davidson diagonalization with overlap
     ethr =  3.05E-11,  avg # of iterations =  5.0

     negative rho (up, down):  1.129E-04 0.000E+00

     total cpu time spent up to now is      291.0 secs

     total energy              =   -2205.51015002 Ry
     estimated scf accuracy    <       0.00000003 Ry

     iteration #  9     ecut=    80.00 Ry     beta= 0.70
     Davidson diagonalization with overlap
     ethr =  1.00E-11,  avg # of iterations =  6.0

     negative rho (up, down):  1.377E-04 0.000E+00

     total cpu time spent up to now is      293.2 secs

     End of self-consistent calculation

          k = 0.0000 0.0000 0.0000 (105382 PWs)   bands (ev):

   -62.9084 -62.8941 -62.8798 -62.8592 -62.8470 -62.8408 -62.8280 -62.8053
   -62.7934 -62.7772 -62.7746 -62.7677 -37.2402 -37.1748 -37.1568 -37.1557
   -37.1401 -37.1196 -37.1066 -37.0863 -37.0818 -37.0787 -37.0709 -37.0536
   -37.0470 -37.0456 -37.0324 -37.0240 -37.0183 -37.0119 -37.0026 -36.9924
   -36.9702 -36.9627 -36.9495 -36.9413 -36.9351 -36.9332 -36.9270 -36.9173
   -36.9142 -36.8957 -36.8763 -36.8577 -36.8565 -36.8167 -36.7585 -36.7236
   -16.0148 -15.2762 -15.1382 -15.0387 -14.9110 -14.8492 -14.5894 -14.4977
   -14.4544 -14.4350 -14.4085 -14.3736 -14.3478 -14.3135 -14.1743 -14.1475
   -14.1309 -14.1232 -14.0438 -13.9057 -13.8658 -13.8468 -13.8205  -7.8840
    -7.6713  -7.4209  -7.3066  -7.2925  -7.2506  -7.1990  -7.1505  -7.0284
    -6.8374  -6.8164  -6.7755  -6.7081  -6.5698  -6.5242  -6.5018  -6.4130
    -6.2772  -6.2730  -6.0668  -5.9504  -5.9226  -5.8760  -5.8385  -5.8047
    -5.7853  -5.7308  -5.7067  -5.6719  -5.6394  -5.5641  -5.5328  -5.4752
    -5.4167  -5.3637  -5.1914  -5.1563  -5.1067  -5.0152  -5.0011  -4.9515
    -4.9346  -4.8505  -4.6637  -4.5278  -4.3598  -4.3355  -4.2800  -4.2646
    -4.2354  -4.0960  -4.0510  -3.8513  -3.8364  -3.7900  -3.7308  -3.7047
    -3.6858  -3.5736  -3.5543  -3.5253  -3.5042  -3.4829  -3.4506  -3.3899
    -3.3685  -3.2212  -3.1454  -2.9169  -2.9007  -2.7951  -2.7937  -2.7595
    -2.7288  -2.6801  -2.6621  -2.6495  -2.5726  -2.2907  -2.0507  -2.0064
    -1.9846  -1.1449  -0.7926  -0.6610  -0.1863  -0.1456  -0.1058  -0.0448
     0.0715   0.1294   0.1320   0.2362   0.2518   0.3037   0.3412   0.4039
     0.4852   0.5209   0.5297   0.5709   0.6079   0.6492   0.6974   0.7256
     0.7448   0.7833   0.8535   0.8564   0.9569   0.9947   1.0265   1.1570
     1.3512

     the Fermi energy is    -1.1449 ev

!    total energy              =   -2205.51014996 Ry
     estimated scf accuracy    <          5.6E-09 Ry
     smearing contrib. (-TS)   =      -0.00564884 Ry
     internal energy E=F+TS    =   -2205.50450112 Ry

     The total energy is F=E-TS. E is the sum of the following terms:
     one-electron contribution =  -18042.19716586 Ry
     hartree contribution      =    9007.72366358 Ry
     xc contribution           =    -385.18669768 Ry
     ewald contribution        =    7214.15569884 Ry

     convergence has been achieved in   9 iterations

     negative rho (up, down):  1.377E-04 0.000E+00

     Forces acting on atoms (cartesian axes, Ry/au):

     atom    1 type  1   force =    -0.00308253   -0.00136011   -0.00470763
     atom    2 type  2   force =    -0.00535836    0.00650429   -0.00210219
     atom    3 type  2   force =    -0.00905227    0.00561437   -0.01129598
     atom    4 type  1   force =     0.00417606    0.00174584    0.00134925
     atom    5 type  2   force =     0.00196910   -0.00468354   -0.00352017
     atom    6 type  2   force =     0.00068751    0.00549510    0.00272763
     atom    7 type  1   force =     0.00397602   -0.00589466    0.00110646
     atom    8 type  2   force =     0.00133531   -0.00337265    0.00942561
     atom    9 type  2   force =     0.01010564    0.00396886    0.00261688
     atom   10 type  1   force =    -0.00040226    0.00550927    0.00203459
     atom   11 type  2   force =     0.00259019   -0.00263523   -0.00961326
     atom   12 type  2   force =    -0.00385212    0.00006309    0.00011100
     atom   13 type  1   force =     0.00264555    0.00044085    0.00087084
     atom   14 type  2   force =     0.00589747    0.00096152    0.00465857
     atom   15 type  2   force =    -0.00562383    0.00107560   -0.00432494
     atom   16 type  1   force =     0.00187564    0.00417069    0.00266401
     atom   17 type  2   force =     0.00438265    0.00010946    0.00189351
     atom   18 type  2   force =    -0.00132422   -0.00079509    0.00841634
     atom   19 type  1   force =    -0.00077263   -0.00218706    0.00755178
     atom   20 type  2   force =     0.00013936   -0.00364389   -0.00222376
     atom   21 type  1   force =    -0.00532504    0.00072887    0.00567292
     atom   22 type  2   force =    -0.02451211    0.01372283    0.01620684
     atom   23 type  2   force =     0.00330822   -0.00234806    0.00201734
     atom   24 type  1   force =    -0.00319312   -0.00146402   -0.00194745
     atom   25 type  2   force =     0.00520228    0.00599611   -0.00543070
     atom   26 type  2   force =    -0.00402007    0.00336067   -0.00885457
     atom   27 type  1   force =    -0.00123664   -0.00023598    0.00430614
     atom   28 type  2   force =    -0.00028047   -0.00329596   -0.00472646
     atom   29 type  2   force =     0.00162850    0.00226581   -0.00346709
     atom   30 type  1   force =    -0.00049612   -0.00192837    0.00641276
     atom   31 type  2   force =    -0.00078740   -0.00274366    0.00653078
     atom   32 type  2   force =    -0.00500848    0.00416694    0.00534154
     atom   33 type  1   force =    -0.00176672    0.00334840    0.00076185
     atom   34 type  2   force =     0.00123342   -0.01592915   -0.01678676
     atom   35 type  2   force =    -0.00767745    0.00568454   -0.00161285
     atom   36 type  3   force =     0.03261892   -0.02241570   -0.01206286
     The non-local contrib.  to forces
     atom    1 type  1   force =     0.00144246    0.02724314   -0.00882867
     atom    2 type  2   force =    -0.00509388   -0.00312426   -0.26717149
     atom    3 type  2   force =    -0.00741713   -0.00643428    0.26250530
     atom    4 type  1   force =     0.00102328    0.00629345    0.00436679
     atom    5 type  2   force =     0.00838375   -0.03015568   -0.25227082
     atom    6 type  2   force =    -0.00214188    0.00729406    0.26546115
     atom    7 type  1   force =    -0.01965797    0.00155859   -0.02107605
     atom    8 type  2   force =     0.00488925   -0.00293474   -0.25707722
     atom    9 type  2   force =     0.00454128   -0.00903009    0.27152233
     atom   10 type  1   force =     0.00423152   -0.00010864   -0.00439385
     atom   11 type  2   force =     0.01420231   -0.00270963   -0.25928288
     atom   12 type  2   force =    -0.01458681   -0.01725816    0.26330955
     atom   13 type  1   force =    -0.00186811    0.02180754   -0.00970072
     atom   14 type  2   force =     0.00768070   -0.00996806   -0.26556611
     atom   15 type  2   force =    -0.01032048   -0.00980046    0.26134346
     atom   16 type  1   force =    -0.00061978    0.03446907   -0.03230352
     atom   17 type  2   force =     0.00261015   -0.02726537   -0.24959862
     atom   18 type  2   force =    -0.00241537    0.00005142    0.27119001
     atom   19 type  1   force =     0.01643246    0.00882810   -0.01833535
     atom   20 type  2   force =    -0.00166490   -0.01982109    0.26315111
     atom   21 type  1   force =    -0.00657811    0.02504311   -0.00336394
     atom   22 type  2   force =    -0.13835444    0.07354133   -0.10108725
     atom   23 type  2   force =     0.00783199   -0.01847350    0.26762488
     atom   24 type  1   force =     0.00413440    0.01524715   -0.01238512
     atom   25 type  2   force =     0.01057565   -0.00818952   -0.23236573
     atom   26 type  2   force =     0.00174061   -0.01070970    0.26277152
     atom   27 type  1   force =    -0.00339436    0.00679073    0.00696857
     atom   28 type  2   force =    -0.00446244   -0.02265936   -0.27601450
     atom   29 type  2   force =     0.00528282    0.00160635    0.26438793
     atom   30 type  1   force =     0.00160054    0.02218059    0.00548430
     atom   31 type  2   force =    -0.00952919   -0.00336756   -0.25855551
     atom   32 type  2   force =     0.00303411   -0.00553792    0.27105722
     atom   33 type  1   force =    -0.00315523    0.00879648    0.01215555
     atom   34 type  2   force =     0.01071048   -0.00359253   -0.22935502
     atom   35 type  2   force =    -0.00230268   -0.01036136    0.26389274
     atom   36 type  3   force =     0.00717845   -0.00497944   -0.00922411
     The ionic contribution  to forces
     atom    1 type  1   force =    -0.06845029    0.75003886    5.72845916
     atom    2 type  2   force =    -0.40055952    0.25186263   39.39456188
     atom    3 type  2   force =    -0.19509568    0.07915417  -36.34526503
     atom    4 type  1   force =     0.02618724    0.40784975    0.77195893
     atom    5 type  2   force =    -0.94754962    1.47060160   38.64668285
     atom    6 type  2   force =     0.25965350   -0.56259321  -37.89443138
     atom    7 type  1   force =    -2.87240434   -2.34485603    2.36286956
     atom    8 type  2   force =    -1.02967034    0.02013212   37.65477985
     atom    9 type  2   force =     0.32489014   -0.11726465  -38.01073192
     atom   10 type  1   force =    -0.91351285   -0.40369576    5.14237400
     atom   11 type  2   force =    -0.54071973   -1.68141247   38.94455013
     atom   12 type  2   force =     0.24687816    0.54601023  -37.77974569
     atom   13 type  1   force =     0.53965211    1.07265061    2.69856055
     atom   14 type  2   force =     0.05489084    0.09567355   38.58855076
     atom   15 type  2   force =     0.21563309    0.01734990  -36.89511550
     atom   16 type  1   force =     0.00257727    3.62477816    0.83492808
     atom   17 type  2   force =     0.82260620    1.47182153   37.94882067
     atom   18 type  2   force =    -0.09136922   -0.53621583  -38.40835507
     atom   19 type  1   force =     2.97434441   -2.16718927    0.71459064
     atom   20 type  2   force =     0.18525818   -0.14374214  -38.56421042
     atom   21 type  1   force =     0.06167321   -0.35072660    1.36652568
     atom   22 type  2   force =     1.18534355   -2.08107293   37.96257367
     atom   23 type  2   force =     0.12939801    0.46024318  -38.24444064
     atom   24 type  1   force =    -0.28895603    1.11579600    5.22046962
     atom   25 type  2   force =     0.35076584    0.63706768   38.93423990
     atom   26 type  2   force =    -0.17618504    0.24602842  -37.43313604
[...]
     atom   27 type  1   force =    -0.00388788    0.00485769    0.00092654
     atom   28 type  2   force =     0.00235015   -0.01644591   -0.27082952
     atom   29 type  2   force =    -0.00042171   -0.00857896    0.26532879
     atom   30 type  1   force =    -0.00440796    0.01634040    0.00910401
     atom   31 type  2   force =    -0.00066303    0.00012301   -0.25721057
     atom   32 type  2   force =     0.00871814   -0.01078872    0.27197623
     atom   33 type  1   force =    -0.01369977    0.00737795   -0.00415705
     atom   34 type  2   force =     0.00753559   -0.00316051   -0.26365790
     atom   35 type  2   force =     0.00014267   -0.01107318    0.26501472
     atom   36 type  3   force =     0.00016139   -0.00657947   -0.06051880
     The ionic contribution  to forces
     atom    1 type  1   force =    -0.15880225    0.49108873    3.08067540
     atom    2 type  2   force =    -0.19867226   -0.01661167   39.03940118
     atom    3 type  2   force =     0.06319955   -0.18762669  -37.34407836
     atom    4 type  1   force =     0.07932332    0.51443126    0.32101404
     atom    5 type  2   force =    -0.90948464    1.22547217   38.68854033
     atom    6 type  2   force =     0.18346687   -0.40644290  -38.28922285
     atom    7 type  1   force =    -3.15538836   -0.88147332    2.87728862
     atom    8 type  2   force =    -1.05186030    0.26480919   38.31697655
     atom    9 type  2   force =     0.32923579    0.17662362  -38.04414749
     atom   10 type  1   force =    -0.76895718   -0.65393611    3.22366358
     atom   11 type  2   force =    -0.53823234   -1.62437878   38.28162564
     atom   12 type  2   force =     0.13336930    0.10922452  -37.55911059
     atom   13 type  1   force =     0.06262885    0.79140153    2.71173900
     atom   14 type  2   force =    -0.00753353    0.00011556   38.78257776
     atom   15 type  2   force =    -0.03137194   -0.13694634  -37.59538885
     atom   16 type  1   force =    -1.08776805    3.65416056    1.57307617
     atom   17 type  2   force =     0.82012247    1.46516121   38.12090157
     atom   18 type  2   force =    -0.13873391   -0.22629463  -37.81414818
     atom   19 type  1   force =     2.93050025   -2.21619378    0.40605900
     atom   20 type  2   force =    -0.09617752    0.14704719  -38.62842518
     atom   21 type  1   force =     0.26156453   -0.90825498    1.05868213
     atom   22 type  2   force =     0.57859915   -1.81515505   35.93165249
     atom   23 type  2   force =    -0.11623366    0.32129836  -37.67283412
     atom   24 type  1   force =     0.04391535    0.33397182    2.97989592
     atom   25 type  2   force =     0.23140369    0.20354082   39.06186829
     atom   26 type  2   force =    -0.00622864   -0.05771682  -37.42923850
     atom   27 type  1   force =     0.77080317    0.68190655    0.70976619
     atom   28 type  2   force =     0.10915234    0.61900077   38.39440412
     atom   29 type  2   force =     0.06575136   -0.16866803  -37.73249899
     atom   30 type  1   force =     0.03928866   -0.61427116    1.37754064
     atom   31 type  2   force =     1.32964988    0.07061583   37.91366747
     atom   32 type  2   force =    -0.27972132   -0.00418247  -38.08286398
     atom   33 type  1   force =     0.46626895   -0.60068321    3.29297450
     atom   34 type  2   force =    -0.04265010   -0.65952091   38.91810647
     atom   35 type  2   force =     0.01336258    0.16276767  -37.50532108
     atom   36 type  3   force =     0.07620994   -0.05428052    8.63518111
     The local contribution  to forces
     atom    1 type  1   force =     0.16008179   -0.51938148   -3.07914975
     atom    2 type  2   force =     0.19878565    0.02740976  -38.79610163
     atom    3 type  2   force =    -0.06104966    0.19804167   37.09658293
     atom    4 type  1   force =    -0.07970023   -0.52658176   -0.32379375
     atom    5 type  2   force =     0.90680109   -1.19963222  -38.45321403
     atom    6 type  2   force =    -0.18728068    0.41060681   38.04913960
     atom    7 type  1   force =     3.19388611    0.88585863   -2.85346783
     atom    8 type  2   force =     1.04000899   -0.26820427  -38.07346572
     atom    9 type  2   force =    -0.32787001   -0.16287462   37.79865562
     atom   10 type  1   force =     0.76920983    0.64809377   -3.22411760
     atom   11 type  2   force =     0.53945044    1.62303016  -38.04688050
     atom   12 type  2   force =    -0.12357124   -0.09845018   37.31241519
     atom   13 type  1   force =    -0.06542714   -0.81902596   -2.70376174
     atom   14 type  2   force =     0.00910432    0.01510561  -38.54585025
     atom   15 type  2   force =     0.03176071    0.14616397   37.35407248
     atom   16 type  1   force =     1.09707887   -3.70327417   -1.54843209
     atom   17 type  2   force =    -0.81393697   -1.44285038  -37.88830159
     atom   18 type  2   force =     0.13822696    0.23132383   37.56831807
     atom   19 type  1   force =    -2.96454007    2.22712421   -0.39937835
     atom   20 type  2   force =     0.09828650   -0.13630571   38.38718481
     atom   21 type  1   force =    -0.27075117    0.88741728   -1.05158402
     atom   22 type  2   force =    -0.57137612    1.75319052  -36.18435785
     atom   23 type  2   force =     0.11181788   -0.30541687   37.41805240
     atom   24 type  1   force =    -0.04026921   -0.35755052   -2.97881830
     atom   25 type  2   force =    -0.23293216   -0.18608540  -38.82455892
     atom   26 type  2   force =     0.00337859    0.06871622   37.18189442
     atom   27 type  1   force =    -0.76685761   -0.68691779   -0.71070207
     atom   28 type  2   force =    -0.11178158   -0.60362499  -38.14496249
     atom   29 type  2   force =    -0.06569820    0.17689508   37.48753680
     atom   30 type  1   force =    -0.03436321    0.59642843   -1.38594711
     atom   31 type  2   force =    -1.32963582   -0.07175734  -37.67642143
     atom   32 type  2   force =     0.27148067    0.01391360   37.83250097
     atom   33 type  1   force =    -0.45233314    0.59320579   -3.28834247
     atom   34 type  2   force =     0.03560842    0.66325503  -38.67582948
     atom   35 type  2   force =    -0.01416777   -0.15216943   37.26045376
     atom   36 type  3   force =    -0.07554785    0.06340484   -8.57501967
     The core correction contribution to forces
     atom    1 type  1   force =     0.00000000    0.00000000    0.00000000
     atom    2 type  2   force =    -0.00002918    0.00052436    0.02062558
     atom    3 type  2   force =     0.00008204    0.00054080   -0.02091789
     atom    4 type  1   force =     0.00000000    0.00000000    0.00000000
     atom    5 type  2   force =    -0.00036861    0.00143191    0.02038521
     atom    6 type  2   force =     0.00004234   -0.00032865   -0.02072690
     atom    7 type  1   force =     0.00000000    0.00000000    0.00000000
     atom    8 type  2   force =    -0.00057622    0.00008373    0.02067048
     atom    9 type  2   force =     0.00036071    0.00069415   -0.02085660
     atom   10 type  1   force =     0.00000000    0.00000000    0.00000000
     atom   11 type  2   force =     0.00037644   -0.00049579    0.02004327
     atom   12 type  2   force =     0.00078357    0.00049433   -0.02081489
     atom   13 type  1   force =     0.00000000    0.00000000    0.00000000
     atom   14 type  2   force =     0.00017394    0.00081754    0.02034788
     atom   15 type  2   force =     0.00004018    0.00064966   -0.02078065
     atom   16 type  1   force =     0.00000000    0.00000000    0.00000000
     atom   17 type  2   force =     0.00059745    0.00129833    0.02011834
     atom   18 type  2   force =    -0.00001461   -0.00007833   -0.02076603
     atom   19 type  1   force =     0.00000000    0.00000000    0.00000000
     atom   20 type  2   force =     0.00008667    0.00042353   -0.02114918
     atom   21 type  1   force =     0.00000000    0.00000000    0.00000000
     atom   22 type  2   force =     0.00029378   -0.00409551   -0.01051002
     atom   23 type  2   force =    -0.00044746    0.00115143   -0.02123354
     atom   24 type  1   force =     0.00000000    0.00000000    0.00000000
     atom   25 type  2   force =    -0.00007293    0.00116093    0.02030712
     atom   26 type  2   force =    -0.00012827    0.00064711   -0.02102948
     atom   27 type  1   force =     0.00000000    0.00000000    0.00000000
     atom   28 type  2   force =    -0.00015558    0.00111829    0.02099874
     atom   29 type  2   force =     0.00004621    0.00017358   -0.02075743
     atom   30 type  1   force =     0.00000000    0.00000000    0.00000000
     atom   31 type  2   force =     0.00008398   -0.00001207    0.02030177
     atom   32 type  2   force =    -0.00070977    0.00045333   -0.02101328
     atom   33 type  1   force =     0.00000000    0.00000000    0.00000000
     atom   34 type  2   force =    -0.00053612   -0.00006065    0.02066111
     atom   35 type  2   force =     0.00004025    0.00061408   -0.02095579
     atom   36 type  3   force =     0.00000000    0.00000000    0.00000000
     The Hubbard contrib.    to forces
     atom    1 type  1   force =     0.00000000    0.00000000    0.00000000
     atom    2 type  2   force =     0.00000000    0.00000000    0.00000000
     atom    3 type  2   force =     0.00000000    0.00000000    0.00000000
     atom    4 type  1   force =     0.00000000    0.00000000    0.00000000
     atom    5 type  2   force =     0.00000000    0.00000000    0.00000000
     atom    6 type  2   force =     0.00000000    0.00000000    0.00000000
     atom    7 type  1   force =     0.00000000    0.00000000    0.00000000
     atom    8 type  2   force =     0.00000000    0.00000000    0.00000000
     atom    9 type  2   force =     0.00000000    0.00000000    0.00000000
     atom   10 type  1   force =     0.00000000    0.00000000    0.00000000
     atom   11 type  2   force =     0.00000000    0.00000000    0.00000000
     atom   12 type  2   force =     0.00000000    0.00000000    0.00000000
     atom   13 type  1   force =     0.00000000    0.00000000    0.00000000
     atom   14 type  2   force =     0.00000000    0.00000000    0.00000000
     atom   15 type  2   force =     0.00000000    0.00000000    0.00000000
     atom   16 type  1   force =     0.00000000    0.00000000    0.00000000
     atom   17 type  2   force =     0.00000000    0.00000000    0.00000000
     atom   18 type  2   force =     0.00000000    0.00000000    0.00000000
     atom   19 type  1   force =     0.00000000    0.00000000    0.00000000
     atom   20 type  2   force =     0.00000000    0.00000000    0.00000000
     atom   21 type  1   force =     0.00000000    0.00000000    0.00000000
     atom   22 type  2   force =     0.00000000    0.00000000    0.00000000
     atom   23 type  2   force =     0.00000000    0.00000000    0.00000000
     atom   24 type  1   force =     0.00000000    0.00000000    0.00000000
     atom   25 type  2   force =     0.00000000    0.00000000    0.00000000
     atom   26 type  2   force =     0.00000000    0.00000000    0.00000000
     atom   27 type  1   force =     0.00000000    0.00000000    0.00000000
     atom   28 type  2   force =     0.00000000    0.00000000    0.00000000
     atom   29 type  2   force =     0.00000000    0.00000000    0.00000000
     atom   30 type  1   force =     0.00000000    0.00000000    0.00000000
     atom   31 type  2   force =     0.00000000    0.00000000    0.00000000
     atom   32 type  2   force =     0.00000000    0.00000000    0.00000000
     atom   33 type  1   force =     0.00000000    0.00000000    0.00000000
     atom   34 type  2   force =     0.00000000    0.00000000    0.00000000
     atom   35 type  2   force =     0.00000000    0.00000000    0.00000000
     atom   36 type  3   force =     0.00000000    0.00000000    0.00000000
     The SCF correction term to forces
     atom    1 type  1   force =     0.00001040   -0.00000197   -0.00004412
     atom    2 type  2   force =     0.00000407    0.00000147   -0.00004524
     atom    3 type  2   force =     0.00000212   -0.00000703   -0.00000051
     atom    4 type  1   force =     0.00000922    0.00001419   -0.00004648
     atom    5 type  2   force =     0.00000040    0.00000892   -0.00002415
     atom    6 type  2   force =     0.00000461    0.00000588   -0.00000481
     atom    7 type  1   force =     0.00000271   -0.00001071   -0.00005456
     atom    8 type  2   force =    -0.00001112   -0.00000675   -0.00003788
     atom    9 type  2   force =    -0.00000753    0.00000610    0.00000347
     atom   10 type  1   force =    -0.00000988   -0.00001409   -0.00006595
     atom   11 type  2   force =     0.00001432   -0.00000795   -0.00004657
     atom   12 type  2   force =     0.00000560   -0.00000430    0.00000169
     atom   13 type  1   force =    -0.00002650    0.00000591   -0.00004342
     atom   14 type  2   force =     0.00000685    0.00000707   -0.00003170
     atom   15 type  2   force =     0.00000261   -0.00000408   -0.00000769
     atom   16 type  1   force =     0.00000301    0.00001249   -0.00003577
     atom   17 type  2   force =     0.00000329    0.00000683   -0.00002862
     atom   18 type  2   force =    -0.00000146    0.00000514   -0.00000066
     atom   19 type  1   force =     0.00001215   -0.00002350   -0.00006593
     atom   20 type  2   force =     0.00000342    0.00000875    0.00000312
     atom   21 type  1   force =     0.00002863   -0.00001032   -0.00008214
     atom   22 type  2   force =    -0.00000384   -0.00001950   -0.00002714
     atom   23 type  2   force =    -0.00000383   -0.00000281   -0.00000759
     atom   24 type  1   force =    -0.00002012   -0.00000490   -0.00004842
     atom   25 type  2   force =     0.00000350    0.00001035   -0.00003534
     atom   26 type  2   force =    -0.00000550   -0.00000174   -0.00000759
     atom   27 type  1   force =    -0.00000013    0.00001005   -0.00004729
     atom   28 type  2   force =    -0.00000297    0.00000393   -0.00002989
     atom   29 type  2   force =    -0.00000348    0.00000178   -0.00000331
     atom   30 type  1   force =    -0.00001710   -0.00000692   -0.00005839
     atom   31 type  2   force =     0.00000081   -0.00001339   -0.00003458
     atom   32 type  2   force =     0.00000355    0.00000391   -0.00000365
     atom   33 type  1   force =    -0.00002722   -0.00000366   -0.00008059
     atom   34 type  2   force =    -0.00000555   -0.00000036   -0.00003900
     atom   35 type  2   force =    -0.00000749    0.00000803   -0.00001100
     atom   36 type  3   force =     0.00000027   -0.00000147   -0.00000550

     Total force =     0.006973     Total SCF correction =     0.000247
     Energy error            =      8.0E-05 Ry
     Gradient error          =      2.5E-03 Ry/Bohr

     bfgs converged in  35 scf cycles and  33 bfgs steps
     (criteria: energy <  1.0E-04 Ry, force <  1.0E-02 Ry/Bohr)

     End of BFGS Geometry Optimization

     Final energy             =   -2205.5966390966 Ry

     File ./MoS2-V-O.bfgs deleted, as requested
Begin final coordinates

ATOMIC_POSITIONS (angstrom)
Mo            6.5301500297        1.7835072063        2.7740400462
S             8.0929638905        0.8659544458        4.3861291849
S             8.1016067069        0.8598263589        1.1929934170
Mo            8.0994182382        4.5062449482        2.7121259253
S             6.5088313544        3.6905695534        4.3282061659
S             6.5348805270        3.5691860516        1.1053931066
Mo            6.4753300930        7.1536240605        2.6766043067
S             8.0489435069        6.3106736992        4.3084612196
S             8.0971036579        6.3365801274        1.1080171382
Mo            8.0974510019        9.9502166623        2.7826681607
S             6.4927317498        8.9459299351        4.3313005241
S             6.5470733533        9.0411922206        1.1413519348
Mo            3.3945983541        1.7758032607        2.7682399422
S             4.9664276073        0.8553520077        4.3628664442
S             4.9673562412        0.8719571267        1.1709426698
Mo            5.0003270531        4.5430926560        2.6536565021
S             3.4478912293        3.6906325038        4.3024076899
S             3.3945613037        3.5778198457        1.1187633523
Mo            3.4123508136        7.2090776281        2.6365969361
S             4.9404703377        6.3189505105        1.0396315489
Mo            4.9741309097        9.9559890902        2.7394685759
S             3.4273597572        8.9661578225        4.2493658116
S             3.3589654175        9.0904381215        1.1419719782
Mo            0.2250502577        1.7652858228        2.7845792228
S             1.8171045687        0.8863850598        4.3900134236
S             1.8052082474        0.8694082814        1.1892204168
Mo            1.8238889646        4.5029690347        2.7156010795
S             0.2327430562        3.6287052718        4.3271072607
S             0.2352971779        3.5685339878        1.1484256705
Mo            0.2224875714        7.2400159194        2.7303561433
S             1.8565451978        6.3219747070        4.2872338803
S             1.7922998178        6.3284243097        1.0955667172
Mo            1.7912802210        9.9781159016        2.7869081952
S             0.2137329820        9.0386476654        4.3707517132
S             0.2234585922        9.0788511065        1.1789185468
H             3.4238294455        9.1194312776        5.6188766860
End final coordinates



     Writing all to output data dir ./MoS2-V-O.save/
 
     init_run     :      2.42s CPU      2.59s WALL (       1 calls)
     electrons    :   3260.10s CPU   3602.37s WALL (      35 calls)
     update_pot   :     47.97s CPU     49.94s WALL (      34 calls)
     forces       :     47.20s CPU     52.44s WALL (      35 calls)

     Called by init_run:
     wfcinit      :      0.39s CPU      0.43s WALL (       1 calls)
     potinit      :      1.34s CPU      1.42s WALL (       1 calls)
     hinit0       :      0.17s CPU      0.18s WALL (       1 calls)

     Called by electrons:
     c_bands      :    371.36s CPU    375.47s WALL (     306 calls)
     sum_band     :     93.25s CPU    112.71s WALL (     306 calls)
     v_of_rho     :    129.56s CPU    148.96s WALL (     327 calls)
     newd         :     46.39s CPU     63.99s WALL (     327 calls)
     mix_rho      :   2634.31s CPU   2915.20s WALL (     306 calls)

     Called by c_bands:
     init_us_2    :      6.73s CPU      7.00s WALL (     613 calls)
     init_us_2:cp :      6.73s CPU      7.00s WALL (     613 calls)
     regterg      :    349.24s CPU    353.05s WALL (     306 calls)

     Called by *egterg:
     rdiaghg      :     29.28s CPU     29.51s WALL (    1685 calls)
     h_psi        :    199.73s CPU    201.50s WALL (    1734 calls)
     s_psi        :     25.54s CPU     25.63s WALL (    1734 calls)
     g_psi        :      1.35s CPU      1.37s WALL (    1427 calls)

     Called by h_psi:
     h_psi:calbec :     27.87s CPU     27.98s WALL (    1734 calls)
     vloc_psi     :    143.60s CPU    145.13s WALL (    1734 calls)
     add_vuspsi   :     25.03s CPU     25.16s WALL (    1734 calls)

     General routines
     calbec       :     39.87s CPU     40.02s WALL (    2180 calls)
     fft          :     88.23s CPU    101.95s WALL (   21990 calls)
     ffts         :   1162.12s CPU   1433.98s WALL (  636992 calls)
     fftw         :    126.86s CPU    127.96s WALL (  185932 calls)
     interpolate  :      2.34s CPU      2.70s WALL (     327 calls)
 
     Parallel routines
 
     PWSCF        :  56m 4.31s CPU      1h 1m WALL

 
   This run was terminated on:  10: 2:39   4Nov2023            

=------------------------------------------------------------------------------=
   JOB DONE.
=------------------------------------------------------------------------------=
