
     Program PWSCF v.7.2 starts on  3Nov2023 at 22:11:13 

     This program is part of the open-source Quantum ESPRESSO suite
     for quantum simulation of materials; please cite
         "P. Giannozzi et al., J. Phys.:Condens. Matter 21 395502 (2009);
         "P. Giannozzi et al., J. Phys.:Condens. Matter 29 465901 (2017);
         "P. Giannozzi et al., J. Chem. Phys. 152 154105 (2020);
          URL http://www.quantum-espresso.org", 
     in publications or presentations arising from this work. More details at
     http://www.quantum-espresso.org/quote

     Parallel version (MPI & OpenMP), running on      48 processor cores
     Number of MPI processes:                48
     Threads/MPI process:                     1

     MPI processes distributed on     1 nodes
     66381 MiB available memory on the printing compute node when the environment starts
 
     Waiting for input...
     Reading input from standard input
Warning: card &CELL ignored
Warning: card CELL_DYNAMICS = 'BFGS', ignored
Warning: card CELL_DOFREE = '2DXY' ignored
Warning: card / ignored

     Current dimensions of program PWSCF are:
     Max number of different atomic species (ntypx) = 10
     Max number of k-points (npk) =  40000
     Max angular momentum in pseudopotentials (lmaxx) =  4

     IMPORTANT: XC functional enforced from input :
     Exchange-correlation= RVV10
                           (   1   4  13   4  26   0   0)
     Any further DFT definition will be discarded
     Please, verify this is what you really want


     gamma-point specific algorithms are used
     signal trapping enabled: kill the code with -SIGUSR1 to stop cleanly the simulation 
 
     R & G space division:  proc/nbgrp/npool/nimage =      48
     Subspace diagonalization in iterative solution of the eigenvalue problem:
     one sub-group per band group will be used
     scalapack distributed-memory algorithm (size of sub-group:  2*  2 procs)

 
     Parallelization info
     --------------------
     sticks:   dense  smooth     PW     G-vecs:    dense   smooth      PW
     Min         243     194     47                49060    35090    4376
     Max         246     196     50                49086    35128    4410
     Sum       11735    9389   2349              2355467  1685513  210763
 
     Using Slab Decomposition
 


     bravais-lattice index     =            0
     lattice parameter (alat)  =      17.8707  a.u.
     unit-cell volume          =   17436.2743 (a.u.)^3
     number of atoms/cell      =           36
     number of atomic types    =            3
     number of electrons       =       307.00
     number of Kohn-Sham states=          185
     kinetic-energy cutoff     =      80.0000  Ry
     charge density cutoff     =     400.0000  Ry
     scf convergence threshold =      1.0E-06
     mixing beta               =       0.7000
     number of iterations used =            8  local-TF  mixing
     energy convergence thresh.=      1.0E-04
     force convergence thresh. =      1.0E-02
     Exchange-correlation= RVV10
                           (   1   4  13   4  26   0   0)
     nstep                     =          200


     celldm(1)=  17.870686  celldm(2)=   0.000000  celldm(3)=   0.000000
     celldm(4)=   0.000000  celldm(5)=   0.000000  celldm(6)=   0.000000

     crystal axes: (cart. coord. in units of alat)
               a(1) = (   1.000000   0.000000   0.000000 )  
               a(2) = (   0.000000   1.155671   0.000000 )  
               a(3) = (   0.000000   0.000000   2.643601 )  

     reciprocal axes: (cart. coord. in units 2 pi/alat)
               b(1) = (  1.000000  0.000000  0.000000 )  
               b(2) = (  0.000000  0.865298  0.000000 )  
               b(3) = (  0.000000  0.000000  0.378272 )  


     PseudoPot. # 1 for Mo read from file:
     ../pseudo/Mo_ONCV_PBE-1.0.oncvpsp.upf
     MD5 check sum: 1b5d28e075c9ccadda658a603575cd1f
     Pseudo is Norm-conserving, Zval = 14.0
     Generated using ONCVPSP code by D. R. Hamann
     Using radial grid of 1526 points,  6 beta functions with: 
                l(1) =   0
                l(2) =   0
                l(3) =   1
                l(4) =   1
                l(5) =   2
                l(6) =   2

     PseudoPot. # 2 for S  read from file:
     ../pseudo/s_pbe_v1.4.uspp.F.UPF
     MD5 check sum: 88d86576ff6df21479756cfb9bdac1df
     Pseudo is Ultrasoft + core correction, Zval =  6.0
     Generated by new atomic code, or converted to UPF format
     Using radial grid of  907 points,  6 beta functions with: 
                l(1) =   0
                l(2) =   0
                l(3) =   1
                l(4) =   1
                l(5) =   2
                l(6) =   2
     Q(r) pseudized with  8 coefficients,  rinner =    1.300   1.300   1.300
                                                       1.300   1.300

     PseudoPot. # 3 for H  read from file:
     ../pseudo/H_ONCV_PBE-1.0.oncvpsp.upf
     MD5 check sum: 1790becc920ee074925cf490c71280fe
     Pseudo is Norm-conserving, Zval =  1.0
     Generated using ONCVPSP code by D. R. Hamann
     Using radial grid of 1166 points,  2 beta functions with: 
                l(1) =   0
                l(2) =   0

     atomic species   valence    mass     pseudopotential
        Mo            14.00    95.94000     Mo( 1.00)
        S              6.00    32.06500     S ( 1.00)
        H              1.00     1.00794     H ( 1.00)

     No symmetry found



   Cartesian axes

     site n.     atom                  positions (alat units)
         1           Mo  tau(   1) = (   0.6952221   0.1890506   0.2985846  )
         2           S   tau(   2) = (   0.8646417   0.0856217   0.4689279  )
         3           S   tau(   3) = (   0.8663890   0.0857843   0.1351291  )
         4           Mo  tau(   4) = (   0.8560186   0.4753274   0.2873942  )
         5           S   tau(   5) = (   0.6873294   0.3936244   0.4596353  )
         6           S   tau(   6) = (   0.6929804   0.3713468   0.1185692  )
         7           Mo  tau(   7) = (   0.6862796   0.7633098   0.2825370  )
         8           S   tau(   8) = (   0.8545980   0.6708292   0.4486168  )
         9           S   tau(   9) = (   0.8545123   0.6666874   0.1146125  )
        10           Mo  tau(  10) = (   0.8629403   1.0471007   0.3006803  )
        11           S   tau(  11) = (   0.6868280   0.9456650   0.4634891  )
        12           S   tau(  12) = (   0.6998113   0.9568511   0.1205389  )
        13           Mo  tau(  13) = (   0.3618216   0.1847309   0.2935964  )
        14           S   tau(  14) = (   0.5260962   0.0863870   0.4600448  )
        15           S   tau(  15) = (   0.5348379   0.0894875   0.1297123  )
        16           Mo  tau(  16) = (   0.5265817   0.4772436   0.2784130  )
        17           S   tau(  17) = (   0.3624753   0.3882513   0.4525556  )
        18           S   tau(  18) = (   0.3635411   0.3752055   0.1119148  )
        19           Mo  tau(  19) = (   0.3652268   0.7630864   0.2781795  )
        20           S   tau(  20) = (   0.5269494   0.6690381   0.1096838  )
        21           Mo  tau(  21) = (   0.5300192   1.0470394   0.2900995  )
        22           S   tau(  22) = (   0.3670346   0.9457522   0.4574073  )
        23           S   tau(  23) = (   0.3604225   0.9585725   0.1159032  )
        24           Mo  tau(  24) = (   0.0313099   0.1847895   0.3013130  )
        25           S   tau(  25) = (   0.1956761   0.0838230   0.4650863  )
        26           S   tau(  26) = (   0.1967693   0.0903508   0.1278874  )
        27           Mo  tau(  27) = (   0.1967578   0.4753919   0.2813011  )
        28           S   tau(  28) = (   0.0287851   0.3864324   0.4586755  )
        29           S   tau(  29) = (   0.0244514   0.3729871   0.1239344  )
        30           Mo  tau(  30) = (   0.0286728   0.7631204   0.2856894  )
        31           S   tau(  31) = (   0.2011512   0.6675435   0.4465001  )
        32           S   tau(  32) = (   0.1969214   0.6672839   0.1104564  )
        33           Mo  tau(  33) = (   0.1950294   1.0511147   0.2932237  )
        34           S   tau(  34) = (   0.0312912   0.9612169   0.4667423  )
        35           S   tau(  35) = (   0.0292670   0.9563028   0.1216485  )
        36           H   tau(  36) = (   0.1111111   0.0000000   0.5650415  )

     number of k points=     1  Gaussian smearing, width (Ry)=  0.0100
                       cart. coord. in units 2pi/alat
        k(    1) = (   0.0000000   0.0000000   0.0000000), wk =   2.0000000

     Dense  grid:  1177734 G-vectors     FFT dimensions: ( 120, 135, 320)

     Smooth grid:   842757 G-vectors     FFT dimensions: ( 108, 120, 270)

     Estimated max dynamical RAM per process >     146.59 MB

     Estimated total dynamical RAM >       6.87 GB

     Initial potential from superposition of free atoms

     starting charge     306.9873, renormalised to     307.0000

     negative rho (up, down):  1.412E-04 0.000E+00


---------------------------------------------------------------------------------
Carrying out rVV10 run using the following parameters:
Nqs =      20    Nr_points =    1024   r_max =   100.000
b_value =  6.30000    beta =  0.00901
     q_mesh =  0.00010000  0.00030000  0.00058939  0.00100810
               0.00161396  0.00249058  0.00375900  0.00559430
               0.00824984  0.01209221  0.01765183  0.02569619
               0.03733578  0.05417739  0.07854596  0.11380545
               0.16482331  0.23864234  0.34545298  0.50000000

Gradients computed in Reciprocal space

---------------------------------------------------------------------------------


     Starting wfcs are  213 randomized atomic wfcs

     total cpu time spent up to now is        2.8 secs

     Self-consistent Calculation

     iteration #  1     ecut=    80.00 Ry     beta= 0.70
     Davidson diagonalization with overlap
     ethr =  1.00E-02,  avg # of iterations =  2.0

     Threshold (ethr) on eigenvalues was too large:
     Diagonalizing with lowered threshold

     Davidson diagonalization with overlap
     ethr =  3.75E-04,  avg # of iterations =  4.0

     negative rho (up, down):  2.362E-08 0.000E+00

     total cpu time spent up to now is       16.0 secs

     total energy              =   -2205.61887181 Ry
     estimated scf accuracy    <       1.43625126 Ry

     iteration #  2     ecut=    80.00 Ry     beta= 0.70
     Davidson diagonalization with overlap
     ethr =  4.68E-04,  avg # of iterations =  2.0

     total cpu time spent up to now is       18.4 secs

     total energy              =   -2205.47000794 Ry
     estimated scf accuracy    <       0.58148113 Ry

     iteration #  3     ecut=    80.00 Ry     beta= 0.70
     Davidson diagonalization with overlap
     ethr =  1.89E-04,  avg # of iterations =  2.0

     total cpu time spent up to now is       20.9 secs

     total energy              =   -2205.53960195 Ry
     estimated scf accuracy    <       0.11614418 Ry

     iteration #  4     ecut=    80.00 Ry     beta= 0.70
     Davidson diagonalization with overlap
     ethr =  3.78E-05,  avg # of iterations = 11.0

     total cpu time spent up to now is       23.9 secs

     total energy              =   -2205.54919146 Ry
     estimated scf accuracy    <       0.03359200 Ry

     iteration #  5     ecut=    80.00 Ry     beta= 0.70
     Davidson diagonalization with overlap
     ethr =  1.09E-05,  avg # of iterations =  2.0

     total cpu time spent up to now is       26.3 secs

     total energy              =   -2205.54976219 Ry
     estimated scf accuracy    <       0.02027097 Ry

     iteration #  6     ecut=    80.00 Ry     beta= 0.70
     Davidson diagonalization with overlap
     ethr =  6.60E-06,  avg # of iterations =  2.0

     total cpu time spent up to now is       28.7 secs

     total energy              =   -2205.54865912 Ry
     estimated scf accuracy    <       0.01355720 Ry

     iteration #  7     ecut=    80.00 Ry     beta= 0.70
     Davidson diagonalization with overlap
     ethr =  4.42E-06,  avg # of iterations = 10.0

     total cpu time spent up to now is       33.4 secs

     total energy              =   -2205.54671458 Ry
     estimated scf accuracy    <       0.00795694 Ry

     iteration #  8     ecut=    80.00 Ry     beta= 0.70
     Davidson diagonalization with overlap
     c_bands:  1 eigenvalues not converged
     ethr =  2.59E-06,  avg # of iterations = 20.0

     negative rho (up, down):  1.013E-02 0.000E+00

     total cpu time spent up to now is       38.7 secs

     total energy              =   -2205.54654023 Ry
     estimated scf accuracy    <       0.00364402 Ry

     iteration #  9     ecut=    80.00 Ry     beta= 0.70
     Davidson diagonalization with overlap
     c_bands:  1 eigenvalues not converged
     ethr =  1.19E-06,  avg # of iterations = 20.0

     negative rho (up, down):  3.532E-02 0.000E+00

     total cpu time spent up to now is       43.5 secs

     total energy              =   -2205.54645951 Ry
     estimated scf accuracy    <       0.00211508 Ry

     iteration # 10     ecut=    80.00 Ry     beta= 0.70
     Davidson diagonalization with overlap
     c_bands:  1 eigenvalues not converged
     ethr =  6.89E-07,  avg # of iterations = 20.0

     negative rho (up, down):  2.641E-02 0.000E+00

     total cpu time spent up to now is       49.5 secs

     total energy              =   -2205.54646142 Ry
     estimated scf accuracy    <       0.00066102 Ry

     iteration # 11     ecut=    80.00 Ry     beta= 0.70
     Davidson diagonalization with overlap
     c_bands:  1 eigenvalues not converged
     ethr =  2.15E-07,  avg # of iterations = 20.0

     negative rho (up, down):  1.237E-02 0.000E+00

     total cpu time spent up to now is       56.5 secs

     total energy              =   -2205.54651697 Ry
     estimated scf accuracy    <       0.00017959 Ry

     iteration # 12     ecut=    80.00 Ry     beta= 0.70
     Davidson diagonalization with overlap
     ethr =  5.85E-08,  avg # of iterations =  2.0

     negative rho (up, down):  2.460E-03 0.000E+00

     total cpu time spent up to now is       62.9 secs

     total energy              =   -2205.54655813 Ry
     estimated scf accuracy    <       0.00004385 Ry

     iteration # 13     ecut=    80.00 Ry     beta= 0.70
     Davidson diagonalization with overlap
     ethr =  1.43E-08,  avg # of iterations =  6.0

     negative rho (up, down):  8.094E-04 0.000E+00

     total cpu time spent up to now is       73.4 secs

     total energy              =   -2205.54657192 Ry
     estimated scf accuracy    <       0.00000354 Ry

     iteration # 14     ecut=    80.00 Ry     beta= 0.70
     Davidson diagonalization with overlap
     ethr =  1.15E-09,  avg # of iterations =  6.0

     negative rho (up, down):  1.376E-04 0.000E+00

     total cpu time spent up to now is       76.0 secs

     End of self-consistent calculation

          k = 0.0000 0.0000 0.0000 (105382 PWs)   bands (ev):

   -62.8575 -62.8411 -62.8273 -62.8132 -62.8066 -62.7967 -62.7666 -62.7556
   -62.7388 -62.7266 -62.6955 -62.6676 -37.1922 -37.1218 -37.1141 -37.1035
   -37.0900 -37.0657 -37.0515 -37.0375 -37.0331 -37.0282 -37.0143 -37.0093
   -37.0006 -36.9954 -36.9892 -36.9790 -36.9731 -36.9660 -36.9522 -36.9473
   -36.9253 -36.9107 -36.8974 -36.8832 -36.8741 -36.8637 -36.8588 -36.8466
   -36.8433 -36.8355 -36.8190 -36.8001 -36.7958 -36.7629 -36.6698 -36.6498
   -16.1501 -15.5457 -15.1474 -15.0477 -14.8991 -14.7947 -14.6648 -14.4691
   -14.4322 -14.3924 -14.3478 -14.3469 -14.2976 -14.2478 -14.1502 -14.1076
   -14.0848 -14.0665 -13.9868 -13.9194 -13.8070 -13.7867 -13.7626  -8.7157
    -7.5908  -7.4388  -7.2588  -7.2293  -7.2142  -7.1549  -7.1036  -7.0332
    -6.8174  -6.7771  -6.7449  -6.6812  -6.5265  -6.4796  -6.4633  -6.4125
    -6.2910  -6.2291  -6.1123  -5.9704  -5.8999  -5.8711  -5.7880  -5.7672
    -5.7505  -5.6823  -5.6281  -5.6210  -5.5730  -5.5255  -5.4940  -5.4494
    -5.4063  -5.3372  -5.2683  -5.1464  -5.0422  -4.9724  -4.9484  -4.9220
    -4.8909  -4.7938  -4.6184  -4.5161  -4.4767  -4.3170  -4.2602  -4.1993
    -4.1344  -4.0487  -3.9935  -3.8954  -3.7742  -3.7620  -3.7282  -3.6931
    -3.6613  -3.5342  -3.5233  -3.5047  -3.4780  -3.4318  -3.4148  -3.3523
    -3.3362  -3.1721  -3.1017  -2.8842  -2.8701  -2.7742  -2.7360  -2.7047
    -2.6949  -2.6442  -2.6123  -2.5841  -2.5227  -2.2551  -1.9831  -1.9482
    -1.9356  -0.9170  -0.7008  -0.6536  -0.1419  -0.1062  -0.0377  -0.0198
     0.1122   0.1552   0.2189   0.2645   0.2824   0.3225   0.3769   0.4751
     0.5320   0.5630   0.5836   0.6090   0.6558   0.7222   0.7524   0.7838
     0.8085   0.8279   0.8987   0.9013   0.9807   1.0216   1.0632   1.3047
     1.4169

     the Fermi energy is    -0.9204 ev

!    total energy              =   -2205.54657462 Ry
     estimated scf accuracy    <       0.00000088 Ry
     smearing contrib. (-TS)   =      -0.00617599 Ry
     internal energy E=F+TS    =   -2205.54039863 Ry

     The total energy is F=E-TS. E is the sum of the following terms:
     one-electron contribution =  -18049.77094545 Ry
     hartree contribution      =    9011.94351140 Ry
     xc contribution           =    -385.33022791 Ry
     ewald contribution        =    7217.61726333 Ry

     convergence has been achieved in  14 iterations

     negative rho (up, down):  1.376E-04 0.000E+00

     Forces acting on atoms (cartesian axes, Ry/au):

     atom    1 type  1   force =     0.01172666   -0.02322475    0.00808216
     atom    2 type  2   force =    -0.01391641    0.01699928   -0.00114794
     atom    3 type  2   force =    -0.01052649    0.00944269   -0.00389612
     atom    4 type  1   force =     0.00756190   -0.00314133   -0.00036736
     atom    5 type  2   force =    -0.00155899   -0.00495205   -0.00881711
     atom    6 type  2   force =     0.00165281    0.01099152    0.00231182
     atom    7 type  1   force =    -0.00055249   -0.01082728   -0.00693534
     atom    8 type  2   force =     0.00067739   -0.00488103    0.01721497
     atom    9 type  2   force =     0.01434527    0.00635121    0.01252430
     atom   10 type  1   force =    -0.01074390    0.01021911   -0.02574952
     atom   11 type  2   force =     0.00385779   -0.00127705   -0.00639886
     atom   12 type  2   force =    -0.00147307   -0.00102275    0.00514218
     atom   13 type  1   force =     0.03359623    0.02772965   -0.04117000
     atom   14 type  2   force =     0.01106466   -0.00057204    0.01040562
     atom   15 type  2   force =    -0.01508103   -0.00001668   -0.00912600
     atom   16 type  1   force =     0.00020579    0.00834160    0.00394159
     atom   17 type  2   force =     0.00830296    0.00482978    0.00153240
     atom   18 type  2   force =    -0.00149491   -0.01004104    0.01708934
     atom   19 type  1   force =     0.00941916   -0.00146899   -0.00769277
     atom   20 type  2   force =     0.00245446   -0.00452800    0.00156402
     atom   21 type  1   force =    -0.00851059    0.00850500   -0.00120548
     atom   22 type  2   force =    -0.00144631   -0.00247808   -0.00199838
     atom   23 type  2   force =     0.00096064    0.00019039    0.01022245
     atom   24 type  1   force =    -0.01195564   -0.00326300   -0.02173927
     atom   25 type  2   force =    -0.02687850   -0.01496466    0.04846451
     atom   26 type  2   force =    -0.01065649   -0.00077760   -0.00404562
     atom   27 type  1   force =    -0.00180679   -0.00867276    0.00752011
     atom   28 type  2   force =    -0.00032322    0.00295744   -0.00587775
     atom   29 type  2   force =     0.00256855    0.00119687   -0.00156571
     atom   30 type  1   force =    -0.00273864    0.00821326   -0.01303531
     atom   31 type  2   force =     0.00086972   -0.00203282    0.01731082
     atom   32 type  2   force =    -0.01042856    0.00772813    0.00985934
     atom   33 type  1   force =     0.01631676   -0.01171850   -0.02436650
     atom   34 type  2   force =     0.00384348   -0.03777678   -0.00366254
     atom   35 type  2   force =    -0.00763428    0.00745729    0.01295326
     atom   36 type  3   force =     0.00830206    0.01648397    0.00265872
     The non-local contrib.  to forces
     atom    1 type  1   force =    -0.00091265    0.03352416   -0.01279290
     atom    2 type  2   force =    -0.00639978    0.00138353   -0.26163040
     atom    3 type  2   force =    -0.01334127   -0.00000021    0.27051496
     atom    4 type  1   force =    -0.00440642    0.00932703    0.00589382
     atom    5 type  2   force =     0.00656336   -0.03313900   -0.25301112
     atom    6 type  2   force =    -0.00157936    0.01043752    0.26272299
     atom    7 type  1   force =    -0.02528029   -0.00702653   -0.02063803
     atom    8 type  2   force =     0.00267962   -0.00400848   -0.25361667
     atom    9 type  2   force =     0.00828438   -0.01000030    0.27750605
     atom   10 type  1   force =     0.00627690   -0.00217271   -0.00018343
     atom   11 type  2   force =     0.01156140    0.00711373   -0.25883319
     atom   12 type  2   force =    -0.01368876   -0.01461762    0.26329433
     atom   13 type  1   force =    -0.01007133    0.00893114   -0.01034059
     atom   14 type  2   force =     0.02045389   -0.00995896   -0.25073521
     atom   15 type  2   force =    -0.01640734   -0.00205484    0.26361822
     atom   16 type  1   force =    -0.00043160    0.03314842   -0.03042896
     atom   17 type  2   force =     0.00365883   -0.01948769   -0.24394052
     atom   18 type  2   force =    -0.00142539   -0.00814716    0.27568554
     atom   19 type  1   force =     0.01738930   -0.01019214   -0.01408916
     atom   20 type  2   force =    -0.00012338   -0.02158792    0.26537501
     atom   21 type  1   force =     0.00382869    0.01928730    0.00640546
     atom   22 type  2   force =    -0.01090475    0.00764355   -0.25323948
     atom   23 type  2   force =     0.00769128   -0.01524689    0.26769324
     atom   24 type  1   force =     0.01147284    0.01281032   -0.00884713
     atom   25 type  2   force =    -0.16620716   -0.15043984    0.00381199
     atom   26 type  2   force =    -0.00510137   -0.01443896    0.26802886
     atom   27 type  1   force =    -0.00154012    0.01472094    0.00933378
     atom   28 type  2   force =    -0.00419417   -0.02690296   -0.27107876
     atom   29 type  2   force =     0.00644611    0.00199083    0.26346038
     atom   30 type  1   force =    -0.00150131    0.01490815    0.00334012
     atom   31 type  2   force =    -0.00504105    0.00079341   -0.25005398
     atom   32 type  2   force =    -0.00471522   -0.01204549    0.27264625
     atom   33 type  1   force =    -0.00172769    0.00621927    0.00927604
     atom   34 type  2   force =    -0.00058315   -0.01567295   -0.23462434
     atom   35 type  2   force =    -0.00098007   -0.01015788    0.27207357
     atom   36 type  3   force =     0.02245283    0.02246681   -0.02832948
     The ionic contribution  to forces
     atom    1 type  1   force =     0.29997422    0.33311742    5.62002581
     atom    2 type  2   force =    -1.04761277    0.54789813   39.13929209
     atom    3 type  2   force =    -0.20766256    0.03588546  -36.15076977
     atom    4 type  1   force =     0.03455323    0.65786124    0.65422578
     atom    5 type  2   force =    -0.98959758    1.54921310   38.74914801
     atom    6 type  2   force =     0.33745710   -0.47898091  -38.02347884
     atom    7 type  1   force =    -2.64831249   -2.85751319    2.56108519
     atom    8 type  2   force =    -1.02078637   -0.01435756   37.38754623
     atom    9 type  2   force =     0.32986369   -0.04863262  -38.00027736
     atom   10 type  1   force =    -1.41018835   -0.47400559    5.35464491
     atom   11 type  2   force =    -0.61800245   -1.67551784   39.12518562
     atom   12 type  2   force =     0.42774781    0.67021322  -37.86927621
     atom   13 type  1   force =     0.70826451    1.18382282    2.62957177
     atom   14 type  2   force =     0.15104073    0.03322283   38.48908922
     atom   15 type  2   force =     0.17440655   -0.05119416  -36.82982737
     atom   16 type  1   force =     0.00409657    3.99945855    0.49166571
     atom   17 type  2   force =     0.87124916    1.59528074   37.91942779
     atom   18 type  2   force =    -0.14441021   -0.61786340  -38.57415243
     atom   19 type  1   force =     2.79765731   -2.56754464    0.60621715
     atom   20 type  2   force =     0.23492701   -0.20666724  -38.46827737
     atom   21 type  1   force =     0.14014588   -0.01874085    1.06669302
     atom   22 type  2   force =     0.64343918   -1.88629998   38.36242979
     atom   23 type  2   force =    -0.05606357    0.63366864  -38.32955312
     atom   24 type  1   force =    -0.71747716    1.53998436    5.33135707
     atom   25 type  2   force =     1.48817524    1.11143314   38.29877008
     atom   26 type  2   force =    -0.26407246    0.09376781  -37.43963519
     atom   27 type  1   force =     0.05518215    0.51052663   -2.29780598
     atom   28 type  2   force =     0.01396796    1.16834247   38.17492512
     atom   29 type  2   force =    -0.27544092   -0.38853448  -37.28918377
     atom   30 type  1   force =    -0.38715944   -1.09063989   -0.13257918
     atom   31 type  2   force =     1.24684750   -0.11803055   37.31726983
     atom   32 type  2   force =    -0.47464894   -0.02217205  -38.63953555
     atom   33 type  1   force =     1.02884439   -1.16123426    1.34186004
     atom   34 type  2   force =     0.01071164   -2.00484549   39.08732398
     atom   35 type  2   force =    -0.31805260    0.43101582  -37.88670122
     atom   36 type  3   force =    -0.41906397   -0.41193766    8.22329914
     The local contribution  to forces
     atom    1 type  1   force =    -0.28724939   -0.38963340   -5.59803996
     atom    2 type  2   force =     1.04032033   -0.53220374  -38.89855088
     atom    3 type  2   force =     0.20995164   -0.02624858   35.89754159
     atom    4 type  1   force =    -0.02253573   -0.67062177   -0.65963752
     atom    5 type  2   force =     0.98213555   -1.52292540  -38.52488214
     atom    6 type  2   force =    -0.33447354    0.48065526   37.78417161
     atom    7 type  1   force =     2.67302187    2.85379294   -2.54638290
     atom    8 type  2   force =     1.01893552    0.01294693  -37.13649772
     atom    9 type  2   force =    -0.32354169    0.06430144   37.75641726
     atom   10 type  1   force =     1.39343083    0.48644329   -5.37886891
     atom   11 type  2   force =     0.61090837    1.66780940  -38.89274618
     atom   12 type  2   force =    -0.41669020   -0.65795389   37.63211801
     atom   13 type  1   force =    -0.66439983   -1.16468997   -2.65960240
     atom   14 type  2   force =    -0.15952757   -0.02376948  -38.24748305
     atom   15 type  2   force =    -0.17399810    0.05313959   36.57798027
     atom   16 type  1   force =    -0.00351218   -4.02470874   -0.45635847
     atom   17 type  2   force =    -0.86658528   -1.57214992  -37.69342423
     atom   18 type  2   force =     0.14439110    0.61618428   38.33685415
     atom   19 type  1   force =    -2.80588571    2.57642668   -0.59881914
     atom   20 type  2   force =    -0.23257939    0.22291475   38.22583068
     atom   21 type  1   force =    -0.15256921    0.00789618   -1.07319856
     atom   22 type  2   force =    -0.63453545    1.87686337  -38.13091861
     atom   23 type  2   force =     0.04985555   -0.61966960   38.09323812
     atom   24 type  1   force =     0.69384540   -1.55593835   -5.34309377
     atom   25 type  2   force =    -1.36003182   -0.98582086  -38.25788301
     atom   26 type  2   force =     0.25855399   -0.08081234   37.18889746
     atom   27 type  1   force =    -0.05548993   -0.53398770    2.29692984
     atom   28 type  2   force =    -0.01035388   -1.14050516  -37.92996096
     atom   29 type  2   force =     0.27208205    0.38834514   37.04498283
     atom   30 type  1   force =     0.38616196    1.08401952    0.11720233
     atom   31 type  2   force =    -1.24124458    0.11521976  -37.06980789
     atom   32 type  2   force =     0.46901745    0.04128890   38.39792624
     atom   33 type  1   force =    -1.01097271    1.14307428   -1.37436853
     atom   34 type  2   force =    -0.00642237    1.98316081  -38.87476403
     atom   35 type  2   force =     0.31159093   -0.41438834   37.64891816
     atom   36 type  3   force =     0.40489505    0.40593637   -8.19222745
     The core correction contribution to forces
     atom    1 type  1   force =     0.00000000    0.00000000    0.00000000
     atom    2 type  2   force =    -0.00014718   -0.00007647    0.02022218
     atom    3 type  2   force =     0.00061185   -0.00012287   -0.02089444
     atom    4 type  1   force =     0.00000000    0.00000000    0.00000000
     atom    5 type  2   force =    -0.00063337    0.00188391    0.02034747
     atom    6 type  2   force =     0.00025805   -0.00105173   -0.02085455
     atom    7 type  1   force =     0.00000000    0.00000000    0.00000000
     atom    8 type  2   force =    -0.00006743    0.00049904    0.02034543
     atom    9 type  2   force =    -0.00019713    0.00059333   -0.02102368
     atom   10 type  1   force =     0.00000000    0.00000000    0.00000000
     atom   11 type  2   force =    -0.00054587   -0.00064607    0.02056648
     atom   12 type  2   force =     0.00120292    0.00127925   -0.02084333
     atom   13 type  1   force =     0.00000000    0.00000000    0.00000000
     atom   14 type  2   force =    -0.00091798   -0.00001552    0.02003818
     atom   15 type  2   force =     0.00084649    0.00021766   -0.02065648
     atom   16 type  1   force =     0.00000000    0.00000000    0.00000000
     atom   17 type  2   force =    -0.00002552    0.00117388    0.01990599
     atom   18 type  2   force =    -0.00002160   -0.00024010   -0.02109482
     atom   19 type  1   force =     0.00000000    0.00000000    0.00000000
     atom   20 type  2   force =     0.00013527    0.00080990   -0.02115872
     atom   21 type  1   force =     0.00000000    0.00000000    0.00000000
     atom   22 type  2   force =     0.00045514   -0.00079177    0.02016083
     atom   23 type  2   force =    -0.00061402    0.00126610   -0.02088429
     atom   24 type  1   force =     0.00000000    0.00000000    0.00000000
     atom   25 type  2   force =     0.01106972    0.00983906    0.00433752
     atom   26 type  2   force =    -0.00003266    0.00077565   -0.02110102
     atom   27 type  1   force =     0.00000000    0.00000000    0.00000000
     atom   28 type  2   force =     0.00024072    0.00195619    0.02072992
     atom   29 type  2   force =    -0.00055504   -0.00057541   -0.02059489
     atom   30 type  1   force =     0.00000000    0.00000000    0.00000000
     atom   31 type  2   force =     0.00034202    0.00005598    0.02034373
     atom   32 type  2   force =    -0.00002552    0.00071955   -0.02098199
     atom   33 type  1   force =     0.00000000    0.00000000    0.00000000
     atom   34 type  2   force =     0.00012846   -0.00038374    0.01890850
     atom   35 type  2   force =    -0.00014691    0.00093905   -0.02111066
     atom   36 type  3   force =     0.00000000    0.00000000    0.00000000
     The Hubbard contrib.    to forces
     atom    1 type  1   force =     0.00000000    0.00000000    0.00000000
     atom    2 type  2   force =     0.00000000    0.00000000    0.00000000
     atom    3 type  2   force =     0.00000000    0.00000000    0.00000000
     atom    4 type  1   force =     0.00000000    0.00000000    0.00000000
     atom    5 type  2   force =     0.00000000    0.00000000    0.00000000
     atom    6 type  2   force =     0.00000000    0.00000000    0.00000000
     atom    7 type  1   force =     0.00000000    0.00000000    0.00000000
     atom    8 type  2   force =     0.00000000    0.00000000    0.00000000
     atom    9 type  2   force =     0.00000000    0.00000000    0.00000000
     atom   10 type  1   force =     0.00000000    0.00000000    0.00000000
     atom   11 type  2   force =     0.00000000    0.00000000    0.00000000
     atom   12 type  2   force =     0.00000000    0.00000000    0.00000000
     atom   13 type  1   force =     0.00000000    0.00000000    0.00000000
     atom   14 type  2   force =     0.00000000    0.00000000    0.00000000
     atom   15 type  2   force =     0.00000000    0.00000000    0.00000000
     atom   16 type  1   force =     0.00000000    0.00000000    0.00000000
     atom   17 type  2   force =     0.00000000    0.00000000    0.00000000
     atom   18 type  2   force =     0.00000000    0.00000000    0.00000000
     atom   19 type  1   force =     0.00000000    0.00000000    0.00000000
     atom   20 type  2   force =     0.00000000    0.00000000    0.00000000
     atom   21 type  1   force =     0.00000000    0.00000000    0.00000000
     atom   22 type  2   force =     0.00000000    0.00000000    0.00000000
     atom   23 type  2   force =     0.00000000    0.00000000    0.00000000
     atom   24 type  1   force =     0.00000000    0.00000000    0.00000000
     atom   25 type  2   force =     0.00000000    0.00000000    0.00000000
     atom   26 type  2   force =     0.00000000    0.00000000    0.00000000
     atom   27 type  1   force =     0.00000000    0.00000000    0.00000000
     atom   28 type  2   force =     0.00000000    0.00000000    0.00000000
     atom   29 type  2   force =     0.00000000    0.00000000    0.00000000
     atom   30 type  1   force =     0.00000000    0.00000000    0.00000000
     atom   31 type  2   force =     0.00000000    0.00000000    0.00000000
     atom   32 type  2   force =     0.00000000    0.00000000    0.00000000
     atom   33 type  1   force =     0.00000000    0.00000000    0.00000000
     atom   34 type  2   force =     0.00000000    0.00000000    0.00000000
     atom   35 type  2   force =     0.00000000    0.00000000    0.00000000
     atom   36 type  3   force =     0.00000000    0.00000000    0.00000000
     The SCF correction term to forces
     atom    1 type  1   force =    -0.00008553   -0.00023603   -0.00108949
     atom    2 type  2   force =    -0.00007702   -0.00000527   -0.00045963
     atom    3 type  2   force =    -0.00008615   -0.00007420   -0.00026716
     atom    4 type  1   force =    -0.00004919    0.00028909   -0.00082814
     atom    5 type  2   force =    -0.00002697    0.00001223   -0.00039803
     atom    6 type  2   force =    -0.00000945   -0.00007172   -0.00022809
     atom    7 type  1   force =     0.00001841   -0.00008358   -0.00097830
     atom    8 type  2   force =    -0.00008396    0.00003594   -0.00054101
     atom    9 type  2   force =    -0.00006399    0.00008627   -0.00007668
     atom   10 type  1   force =    -0.00026329   -0.00004898   -0.00132079
     atom   11 type  2   force =    -0.00006366   -0.00003937   -0.00055030
     atom   12 type  2   force =    -0.00004484    0.00005320   -0.00012933
     atom   13 type  1   force =    -0.00019714   -0.00033744   -0.00077748
     atom   14 type  2   force =     0.00001558   -0.00005400   -0.00048224
     atom   15 type  2   force =     0.00007137   -0.00012802   -0.00021935
     atom   16 type  1   force =     0.00005299    0.00044027   -0.00091541
     atom   17 type  2   force =     0.00000575    0.00000968   -0.00041534
     atom   18 type  2   force =    -0.00002882    0.00002224   -0.00018180
     atom   19 type  1   force =     0.00025825   -0.00016198   -0.00098032
     atom   20 type  2   force =     0.00009494   -0.00000059   -0.00018429
     atom   21 type  1   force =     0.00008404    0.00005928   -0.00108410
     atom   22 type  2   force =     0.00009957    0.00010367   -0.00040963
     atom   23 type  2   force =     0.00009140    0.00016906   -0.00025019
     atom   24 type  1   force =     0.00020327   -0.00012242   -0.00113415
     atom   25 type  2   force =     0.00011550    0.00002074   -0.00055077
     atom   26 type  2   force =    -0.00000400   -0.00007285   -0.00021444
     atom   27 type  1   force =     0.00004109    0.00006428   -0.00091623
     atom   28 type  2   force =     0.00001614    0.00006380   -0.00047179
     atom   29 type  2   force =     0.00003634   -0.00003231   -0.00020896
     atom   30 type  1   force =    -0.00023986   -0.00007762   -0.00097729
     atom   31 type  2   force =    -0.00003418   -0.00007452   -0.00041958
     atom   32 type  2   force =    -0.00005634   -0.00006586   -0.00017431
     atom   33 type  1   force =     0.00017276    0.00021913   -0.00111277
     atom   34 type  2   force =     0.00000889   -0.00003850   -0.00048537
     atom   35 type  2   force =    -0.00004565    0.00004554   -0.00020529
     atom   36 type  3   force =     0.00001814    0.00001535   -0.00006219

     Total force =     0.129967     Total SCF correction =     0.004064

     BFGS Geometry Optimization
     Energy error            =      0.0E+00 Ry
     Gradient error          =      4.8E-02 Ry/Bohr

     number of scf cycles    =   1
     number of bfgs steps    =   0

     energy             new  =   -2205.5465746163 Ry

     new trust radius        =       0.0599383752 bohr
     new conv_thr            =       0.0000010000 Ry


ATOMIC_POSITIONS (angstrom)
Mo            6.5807538918        1.7755162210        2.8279199292
S             8.1693450927        0.8186996551        4.4339308883
S             8.1876627096        0.8162386011        1.2758216858
Mo            8.0991641502        4.4933946263        2.7176239945
S             6.4990842732        3.7197909749        4.3419948361
S             6.5542244270        3.5175540152        1.1225035910
Mo            6.4896893305        7.2127077355        2.6682144613
S             8.0820861895        6.3412880609        4.2515713308
S             8.0885088360        6.3080632336        1.0904905747
Mo            8.1549336199        9.9075881348        2.8298357020
S             6.4972090525        8.9422510264        4.3797194013
S             6.6171676872        9.0481699978        1.1426284261
Mo            3.4394380211        1.7616297486        2.7546849366
S             4.9810206576        0.8166385010        4.3560395072
S             5.0498532157        0.8462532824        1.2218291877
Mo            4.9798655824        4.5175921865        2.6349703465
S             3.4322354010        3.6741554978        4.2805204892
S             3.4371295095        3.5429152071        1.0673949735
Mo            3.4588461429        7.2155471831        2.6266060236
S             4.9845330397        6.3245361736        1.0380813742
Mo            5.0077603114        9.9061007059        2.7427630458
S             3.4701927619        8.9424399266        4.3245338132
S             3.4089375151        9.0650907335        1.1014777885
Mo            0.2897638337        1.7457828242        2.8379407816
S             1.8362387224        0.7847750477        4.4238557539
S             1.8551608645        0.8540144296        1.2072600017
Mo            1.8597351967        4.4910773333        2.6641768494
S             0.2720428090        3.6559638361        4.3344737263
S             0.2325904258        3.5278825810        1.1711893455
Mo            0.2697029236        7.2209923631        2.6947984390
S             1.9026984850        6.3117231127        4.2316046129
S             1.8567196597        6.3144333640        1.0497766222
Mo            1.8529811201        9.9339379929        2.7600520530
S             0.2979467791        9.0700072175        4.4119313339
S             0.2727315115        9.0474719406        1.1572553512
H             1.0551443737        0.0087229390        5.3448686939



     Writing config-only to output data dir ./MoS2-V-O.save/
     NEW-OLD atomic charge density approx. for the potential

     negative rho (up, down):  1.443E-04 0.000E+00

     total cpu time spent up to now is       79.5 secs

     Self-consistent Calculation

     iteration #  1     ecut=    80.00 Ry     beta= 0.70
     Davidson diagonalization with overlap
     ethr =  1.00E-06,  avg # of iterations = 10.0

     negative rho (up, down):  1.053E-04 0.000E+00

     total cpu time spent up to now is       93.6 secs

     total energy              =   -2205.55971259 Ry
     estimated scf accuracy    <       0.00216744 Ry

     iteration #  2     ecut=    80.00 Ry     beta= 0.70
     Davidson diagonalization with overlap
     ethr =  7.06E-07,  avg # of iterations =  2.0

     negative rho (up, down):  9.598E-05 0.000E+00

     total cpu time spent up to now is      113.1 secs

     total energy              =   -2205.55974871 Ry
     estimated scf accuracy    <       0.00044252 Ry

     iteration #  3     ecut=    80.00 Ry     beta= 0.70
     Davidson diagonalization with overlap
     ethr =  1.44E-07,  avg # of iterations =  3.0

     negative rho (up, down):  9.190E-05 0.000E+00

     total cpu time spent up to now is      129.8 secs

     total energy              =   -2205.55978548 Ry
     estimated scf accuracy    <       0.00013250 Ry

     iteration #  4     ecut=    80.00 Ry     beta= 0.70
     Davidson diagonalization with overlap
     ethr =  4.32E-08,  avg # of iterations =  5.0

     negative rho (up, down):  9.032E-05 0.000E+00

     total cpu time spent up to now is      143.1 secs

     total energy              =   -2205.55980357 Ry
     estimated scf accuracy    <       0.00001173 Ry

     iteration #  5     ecut=    80.00 Ry     beta= 0.70
     Davidson diagonalization with overlap
     ethr =  3.82E-09,  avg # of iterations =  9.0

     negative rho (up, down):  8.748E-05 0.000E+00

     total cpu time spent up to now is      158.9 secs

     total energy              =   -2205.55980704 Ry
     estimated scf accuracy    <       0.00000409 Ry

     iteration #  6     ecut=    80.00 Ry     beta= 0.70
     Davidson diagonalization with overlap
     ethr =  1.33E-09,  avg # of iterations =  3.0

     negative rho (up, down):  8.550E-05 0.000E+00

     total cpu time spent up to now is      171.8 secs

     total energy              =   -2205.55980764 Ry
     estimated scf accuracy    <       0.00000103 Ry

     iteration #  7     ecut=    80.00 Ry     beta= 0.70
     Davidson diagonalization with overlap
     ethr =  3.36E-10,  avg # of iterations =  5.0

     negative rho (up, down):  1.378E-04 0.000E+00

     total cpu time spent up to now is      174.1 secs

     End of self-consistent calculation

          k = 0.0000 0.0000 0.0000 (105382 PWs)   bands (ev):

   -62.8517 -62.8391 -62.8245 -62.8121 -62.8070 -62.7962 -62.7731 -62.7421
   -62.7406 -62.7320 -62.6863 -62.6616 -37.1889 -37.1172 -37.1109 -37.0979
   -37.0883 -37.0638 -37.0472 -37.0367 -37.0295 -37.0258 -37.0119 -37.0069
   -37.0013 -36.9914 -36.9884 -36.9781 -36.9696 -36.9613 -36.9477 -36.9395
   -36.9252 -36.9140 -36.9002 -36.8789 -36.8724 -36.8634 -36.8543 -36.8421
   -36.8397 -36.8326 -36.8187 -36.7988 -36.7969 -36.7571 -36.6665 -36.6463
   -16.1396 -15.5486 -15.1518 -15.0455 -14.9022 -14.7965 -14.6598 -14.4621
   -14.4209 -14.3908 -14.3617 -14.3456 -14.3038 -14.2519 -14.1491 -14.1076
   -14.0843 -14.0714 -13.9871 -13.9074 -13.8133 -13.7921 -13.7684  -8.7095
    -7.5877  -7.4233  -7.2515  -7.2331  -7.2061  -7.1604  -7.1034  -7.0399
    -6.8185  -6.7721  -6.7475  -6.6816  -6.5231  -6.4688  -6.4608  -6.4154
    -6.2973  -6.2234  -6.1107  -5.9640  -5.8876  -5.8615  -5.7933  -5.7656
    -5.7494  -5.6801  -5.6310  -5.6250  -5.5802  -5.5347  -5.4907  -5.4502
    -5.3950  -5.3128  -5.2505  -5.1388  -5.0403  -4.9701  -4.9499  -4.9280
    -4.9015  -4.7983  -4.6070  -4.5190  -4.4769  -4.3091  -4.2615  -4.2017
    -4.1540  -4.0459  -4.0048  -3.8990  -3.7695  -3.7594  -3.7280  -3.6891
    -3.6583  -3.5356  -3.5188  -3.5043  -3.4733  -3.4353  -3.4223  -3.3463
    -3.3311  -3.1721  -3.1055  -2.8821  -2.8726  -2.7548  -2.7296  -2.6971
    -2.6934  -2.6517  -2.6173  -2.5815  -2.5217  -2.2439  -1.9826  -1.9537
    -1.9465  -0.9309  -0.7009  -0.6390  -0.1315  -0.0947  -0.0344  -0.0190
     0.1134   0.1501   0.2165   0.2775   0.3042   0.3212   0.3727   0.4767
     0.5414   0.5733   0.5879   0.6183   0.6621   0.7267   0.7389   0.7942
     0.8041   0.8377   0.8989   0.9102   1.0021   1.0241   1.0582   1.3003
     1.4220

     the Fermi energy is    -0.9331 ev

!    total energy              =   -2205.55980731 Ry
     estimated scf accuracy    <       0.00000058 Ry
     smearing contrib. (-TS)   =      -0.00599985 Ry
     internal energy E=F+TS    =   -2205.55380747 Ry

     The total energy is F=E-TS. E is the sum of the following terms:
     one-electron contribution =  -18049.21714495 Ry
     hartree contribution      =    9011.71487691 Ry
     xc contribution           =    -385.34066876 Ry
     ewald contribution        =    7217.28912933 Ry

     convergence has been achieved in   7 iterations

     negative rho (up, down):  1.378E-04 0.000E+00

     Forces acting on atoms (cartesian axes, Ry/au):

     atom    1 type  1   force =     0.00328145   -0.01368795    0.00184315
     atom    2 type  2   force =    -0.00988387    0.01149016   -0.00377848
     atom    3 type  2   force =    -0.00975524    0.00768125   -0.00986883
     atom    4 type  1   force =     0.00606269    0.00039920    0.00144982
     atom    5 type  2   force =     0.00017760   -0.00545754   -0.00740884
     atom    6 type  2   force =     0.00149848    0.00712439    0.00352018
     atom    7 type  1   force =     0.00161546   -0.00937872    0.00023271
     atom    8 type  2   force =     0.00072634   -0.00429981    0.01062920
     atom    9 type  2   force =     0.01172716    0.00465010    0.00798519
     atom   10 type  1   force =    -0.00385683    0.00804609   -0.00891392
     atom   11 type  2   force =     0.00312194   -0.00075021   -0.00912989
     atom   12 type  2   force =    -0.00353170   -0.00098244    0.00131575
     atom   13 type  1   force =     0.01694312    0.01476285   -0.02082761
     atom   14 type  2   force =     0.00574064    0.00146964    0.00526412
     atom   15 type  2   force =    -0.00689500    0.00010997   -0.01130239
     atom   16 type  1   force =     0.00149407    0.00781908    0.00326067
     atom   17 type  2   force =     0.00767716    0.00256431    0.00115017
     atom   18 type  2   force =     0.00066786   -0.00420896    0.00964480
     atom   19 type  1   force =     0.00503690   -0.00177300   -0.00120225
     atom   20 type  2   force =     0.00243129   -0.00432714   -0.00258695
     atom   21 type  1   force =    -0.00646630    0.00556132    0.00255370
     atom   22 type  2   force =    -0.00062417   -0.00214953   -0.00367408
     atom   23 type  2   force =     0.00259793   -0.00082691    0.00313883
     atom   24 type  1   force =    -0.00851911   -0.00247253   -0.00687231
     atom   25 type  2   force =    -0.01352595   -0.00666619    0.02832902
     atom   26 type  2   force =    -0.00519496    0.00067453   -0.00451923
     atom   27 type  1   force =     0.00014700   -0.00479492    0.00814293
     atom   28 type  2   force =    -0.00069368   -0.00041173   -0.00578504
     atom   29 type  2   force =     0.00206345    0.00100510   -0.00380635
     atom   30 type  1   force =    -0.00144651    0.00219021    0.00096582
     atom   31 type  2   force =     0.00055050   -0.00089788    0.00949343
     atom   32 type  2   force =    -0.00783519    0.00525947    0.00767149
     atom   33 type  1   force =     0.00725693   -0.00627678   -0.00409267
     atom   34 type  2   force =     0.00061610   -0.03114044   -0.01398075
     atom   35 type  2   force =    -0.00644622    0.00763988    0.00471806
     atom   36 type  3   force =     0.00324067    0.01205513    0.00644055
     The non-local contrib.  to forces
     atom    1 type  1   force =     0.00008003    0.02963962   -0.01331607
     atom    2 type  2   force =    -0.00475433   -0.00239433   -0.26155514
     atom    3 type  2   force =    -0.01153636   -0.00183450    0.26594288
     atom    4 type  1   force =    -0.00339231    0.00983187    0.00534733
     atom    5 type  2   force =     0.00796203   -0.03427297   -0.25312501
     atom    6 type  2   force =    -0.00161217    0.00647024    0.26475489
     atom    7 type  1   force =    -0.02593329   -0.00725270   -0.02277330
     atom    8 type  2   force =     0.00288791   -0.00397646   -0.25827121
     atom    9 type  2   force =     0.00613706   -0.01110202    0.27523764
     atom   10 type  1   force =     0.00415237   -0.00221448   -0.00177319
     atom   11 type  2   force =     0.00950765    0.00712550   -0.26133312
     atom   12 type  2   force =    -0.01444742   -0.01501531    0.26260886
     atom   13 type  1   force =    -0.00457468    0.01282572   -0.00959020
     atom   14 type  2   force =     0.01894604   -0.00901082   -0.25244569
     atom   15 type  2   force =    -0.01063114   -0.00155781    0.26150382
     atom   16 type  1   force =    -0.00232500    0.03356345   -0.03108916
     atom   17 type  2   force =     0.00299779   -0.01783552   -0.24316224
     atom   18 type  2   force =     0.00075925   -0.00469829    0.27133095
     atom   19 type  1   force =     0.01873568   -0.00926283   -0.01487298
     atom   20 type  2   force =    -0.00003985   -0.02062984    0.26261767
     atom   21 type  1   force =     0.00254182    0.02040538    0.00450004
     atom   22 type  2   force =    -0.00945382    0.00697047   -0.25360572
     atom   23 type  2   force =     0.00877716   -0.01601086    0.26318684
     atom   24 type  1   force =     0.01017535    0.01329052   -0.01023020
     atom   25 type  2   force =    -0.17357521   -0.15623236   -0.01331210
     atom   26 type  2   force =     0.00035900   -0.01300520    0.26982712
     atom   27 type  1   force =    -0.00222761    0.01240098    0.00753881
     atom   28 type  2   force =    -0.00425704   -0.02816536   -0.27098137
     atom   29 type  2   force =     0.00579475    0.00067177    0.26263447
     atom   30 type  1   force =    -0.00219243    0.01507674    0.00220658
     atom   31 type  2   force =    -0.00491450    0.00088232   -0.25609394
     atom   32 type  2   force =    -0.00241795   -0.01328058    0.27210352
     atom   33 type  1   force =     0.00016568    0.00461253    0.00536555
     atom   34 type  2   force =    -0.00435743   -0.01456128   -0.24517128
     atom   35 type  2   force =    -0.00000233   -0.01008369    0.26800591
     atom   36 type  3   force =     0.02531892    0.02554357   -0.03149620
     The ionic contribution  to forces
     atom    1 type  1   force =     0.13530933    0.59199657    5.83039712
     atom    2 type  2   force =    -0.85637171    0.41641747   39.22112119
     atom    3 type  2   force =    -0.18915907    0.05050536  -36.26819871
     atom    4 type  1   force =    -0.01418036    0.70155094    0.73266824
     atom    5 type  2   force =    -0.98207209    1.54515768   38.69346388
     atom    6 type  2   force =     0.32229224   -0.50806864  -37.94011376
     atom    7 type  1   force =    -2.56650263   -2.72782857    2.55856094
     atom    8 type  2   force =    -1.00486455    0.02512693   37.47362645
     atom    9 type  2   force =     0.29962309   -0.08977774  -37.94422675
     atom   10 type  1   force =    -1.14207626   -0.57068792    5.08538201
     atom   11 type  2   force =    -0.58054159   -1.68377575   39.07133610
     atom   12 type  2   force =     0.36332301    0.61371548  -37.83098345
     atom   13 type  1   force =     0.12878809    0.74816544    2.12532811
     atom   14 type  2   force =    -0.06795936    0.04570633   38.58207750
     atom   15 type  2   force =     0.27398538   -0.08348563  -36.92701136
     atom   16 type  1   force =     0.07495042    3.97830213    0.68486901
     atom   17 type  2   force =     0.80634567    1.48134000   37.98908661
     atom   18 type  2   force =    -0.17209773   -0.44732636  -38.56520183
     atom   19 type  1   force =     2.64967760   -2.63531872    0.56173330
     atom   20 type  2   force =     0.22003664   -0.22190153  -38.52402407
     atom   21 type  1   force =     0.13228121   -0.07777367    1.26648055
     atom   22 type  2   force =     0.60994488   -1.84562465   38.39240484
     atom   23 type  2   force =    -0.01294018    0.59342139  -38.33509749
     atom   24 type  1   force =    -0.21490288    1.34432655    5.09963066
     atom   25 type  2   force =     1.63220231    1.20379701   38.22505419
     atom   26 type  2   force =    -0.25090420    0.09881804  -37.29489797
     atom   27 type  1   force =     0.04487155    0.61759395   -1.97317589
     atom   28 type  2   force =     0.06088561    1.06726698   38.17501164
     atom   29 type  2   force =    -0.24506766   -0.33848092  -37.31266789
     atom   30 type  1   force =    -0.33358013   -1.18089378   -0.23952386
     atom   31 type  2   force =     1.23403715   -0.08110884   37.35241630
     atom   32 type  2   force =    -0.43185806   -0.09171366  -38.54781208
     atom   33 type  1   force =     0.86021593   -0.70386281    1.17212935
     atom   34 type  2   force =    -0.01237626   -1.81468070   38.99226638
     atom   35 type  2   force =    -0.30455230    0.44586559  -37.82318759
     atom   36 type  3   force =    -0.46676309   -0.46676398    8.24107830
     The local contribution  to forces
     atom    1 type  1   force =    -0.13219738   -0.63529140   -5.81616972
     atom    2 type  2   force =     0.85118987   -0.40240677  -38.98408113
     atom    3 type  2   force =     0.19034065   -0.04095947   36.01294167
     atom    4 type  1   force =     0.02353146   -0.71102891   -0.73748021
     atom    5 type  2   force =     0.97494630   -1.51825835  -38.46845064
     atom    6 type  2   force =    -0.31944143    0.50963930   37.69951925
     atom    7 type  1   force =     2.59397926    2.72558231   -2.53653615
     atom    8 type  2   force =     1.00273281   -0.02604984  -37.22561308
     atom    9 type  2   force =    -0.29392373    0.10493555   37.69772655
     atom   10 type  1   force =     1.13383894    0.58096422   -5.09373783
     atom   11 type  2   force =     0.57451149    1.67655852  -38.84017273
     atom   12 type  2   force =    -0.35356960   -0.60090574   37.59024255
     atom   13 type  1   force =    -0.10692414   -0.74594069   -2.13782554
     atom   14 type  2   force =     0.05590207   -0.03515463  -38.34490264
     atom   15 type  2   force =    -0.27094871    0.08503338   36.67458683
     atom   16 type  1   force =    -0.07115202   -4.00411675   -0.65137735
     atom   17 type  2   force =    -0.80157729   -1.46187497  -37.76507914
     atom   18 type  2   force =     0.17220704    0.44800316   38.32436515
     atom   19 type  1   force =    -2.66330965    2.64269173   -0.54902954
     atom   20 type  2   force =    -0.21768122    0.23741624   38.27970574
     atom   21 type  1   force =    -0.14118316    0.06300877   -1.26948202
     atom   22 type  2   force =    -0.60140217    1.83725292  -38.16307255
     atom   23 type  2   force =     0.00739732   -0.57949571   38.09558561
     atom   24 type  1   force =     0.19587528   -1.35977768   -5.09738005
     atom   25 type  2   force =    -1.48387383   -1.06461155  -38.18793061
     atom   26 type  2   force =     0.24566429   -0.08582266   37.04124411
     atom   27 type  1   force =    -0.04239330   -0.63477352    1.97288820
     atom   28 type  2   force =    -0.05758071   -1.04135404  -37.93095416
     atom   29 type  2   force =     0.24181574    0.33928034   37.06657566
     atom   30 type  1   force =     0.33432224    1.16785258    0.23726625
     atom   31 type  2   force =    -1.22887090    0.07913114  -37.10768926
     atom   32 type  2   force =     0.42654832    0.10955681   38.30408431
     atom   33 type  1   force =    -0.85303720    0.69271619   -1.18271191
     atom   34 type  2   force =     0.01707533    1.79825709  -38.78074243
     atom   35 type  2   force =     0.29827044   -0.42912961   37.58059171
     atom   36 type  3   force =     0.44470916    0.45329426   -8.20319078
     The core correction contribution to forces
     atom    1 type  1   force =     0.00000000    0.00000000    0.00000000
     atom    2 type  2   force =    -0.00012155   -0.00000036    0.02027090
     atom    3 type  2   force =     0.00050320   -0.00001345   -0.02081713
     atom    4 type  1   force =     0.00000000    0.00000000    0.00000000
     atom    5 type  2   force =    -0.00070849    0.00192062    0.02030865
     atom    6 type  2   force =     0.00023001   -0.00090460   -0.02086764
     atom    7 type  1   force =     0.00000000    0.00000000    0.00000000
     atom    8 type  2   force =    -0.00005155    0.00051345    0.02048907
     atom    9 type  2   force =    -0.00010673    0.00059071   -0.02099057
     atom   10 type  1   force =     0.00000000    0.00000000    0.00000000
     atom   11 type  2   force =    -0.00041253   -0.00065555    0.02062991
     atom   12 type  2   force =     0.00115990    0.00126353   -0.02082355
     atom   13 type  1   force =     0.00000000    0.00000000    0.00000000
     atom   14 type  2   force =    -0.00100459   -0.00003132    0.02011702
     atom   15 type  2   force =     0.00070375    0.00015173   -0.02062071
     atom   16 type  1   force =     0.00000000    0.00000000    0.00000000
     atom   17 type  2   force =    -0.00000969    0.00103253    0.01990258
     atom   18 type  2   force =    -0.00013706   -0.00022905   -0.02103688
     atom   19 type  1   force =     0.00000000    0.00000000    0.00000000
     atom   20 type  2   force =     0.00012653    0.00074516   -0.02110084
     atom   21 type  1   force =     0.00000000    0.00000000    0.00000000
     atom   22 type  2   force =     0.00036630   -0.00077961    0.02019407
     atom   23 type  2   force =    -0.00058512    0.00125871   -0.02080032
     atom   24 type  1   force =     0.00000000    0.00000000    0.00000000
     atom   25 type  2   force =     0.01170862    0.01037455    0.00448008
     atom   26 type  2   force =    -0.00027818    0.00071885   -0.02113552
     atom   27 type  1   force =     0.00000000    0.00000000    0.00000000
     atom   28 type  2   force =     0.00025019    0.00193647    0.02075735
     atom   29 type  2   force =    -0.00050210   -0.00045534   -0.02059924
     atom   30 type  1   force =     0.00000000    0.00000000    0.00000000
     atom   31 type  2   force =     0.00032532    0.00010390    0.02048881
     atom   32 type  2   force =    -0.00010862    0.00070612   -0.02094594
     atom   33 type  1   force =     0.00000000    0.00000000    0.00000000
     atom   34 type  2   force =     0.00028218   -0.00030568    0.01930580
     atom   35 type  2   force =    -0.00020710    0.00094976   -0.02100690
     atom   36 type  3   force =     0.00000000    0.00000000    0.00000000
     The Hubbard contrib.    to forces
     atom    1 type  1   force =     0.00000000    0.00000000    0.00000000
     atom    2 type  2   force =     0.00000000    0.00000000    0.00000000
     atom    3 type  2   force =     0.00000000    0.00000000    0.00000000
     atom    4 type  1   force =     0.00000000    0.00000000    0.00000000
     atom    5 type  2   force =     0.00000000    0.00000000    0.00000000
     atom    6 type  2   force =     0.00000000    0.00000000    0.00000000
     atom    7 type  1   force =     0.00000000    0.00000000    0.00000000
     atom    8 type  2   force =     0.00000000    0.00000000    0.00000000
     atom    9 type  2   force =     0.00000000    0.00000000    0.00000000
     atom   10 type  1   force =     0.00000000    0.00000000    0.00000000
     atom   11 type  2   force =     0.00000000    0.00000000    0.00000000
     atom   12 type  2   force =     0.00000000    0.00000000    0.00000000
     atom   13 type  1   force =     0.00000000    0.00000000    0.00000000
     atom   14 type  2   force =     0.00000000    0.00000000    0.00000000
     atom   15 type  2   force =     0.00000000    0.00000000    0.00000000
     atom   16 type  1   force =     0.00000000    0.00000000    0.00000000
     atom   17 type  2   force =     0.00000000    0.00000000    0.00000000
     atom   18 type  2   force =     0.00000000    0.00000000    0.00000000
     atom   19 type  1   force =     0.00000000    0.00000000    0.00000000
     atom   20 type  2   force =     0.00000000    0.00000000    0.00000000
     atom   21 type  1   force =     0.00000000    0.00000000    0.00000000
     atom   22 type  2   force =     0.00000000    0.00000000    0.00000000
     atom   23 type  2   force =     0.00000000    0.00000000    0.00000000
     atom   24 type  1   force =     0.00000000    0.00000000    0.00000000
     atom   25 type  2   force =     0.00000000    0.00000000    0.00000000
     atom   26 type  2   force =     0.00000000    0.00000000    0.00000000
     atom   27 type  1   force =     0.00000000    0.00000000    0.00000000
     atom   28 type  2   force =     0.00000000    0.00000000    0.00000000
     atom   29 type  2   force =     0.00000000    0.00000000    0.00000000
     atom   30 type  1   force =     0.00000000    0.00000000    0.00000000
     atom   31 type  2   force =     0.00000000    0.00000000    0.00000000
     atom   32 type  2   force =     0.00000000    0.00000000    0.00000000
     atom   33 type  1   force =     0.00000000    0.00000000    0.00000000
     atom   34 type  2   force =     0.00000000    0.00000000    0.00000000
     atom   35 type  2   force =     0.00000000    0.00000000    0.00000000
     atom   36 type  3   force =     0.00000000    0.00000000    0.00000000
     The SCF correction term to forces
     atom    1 type  1   force =     0.00009140   -0.00003431    0.00091472
     atom    2 type  2   force =     0.00017578   -0.00012742    0.00044861
     atom    3 type  2   force =     0.00009827   -0.00001827    0.00024536
     atom    4 type  1   force =     0.00010582    0.00004374    0.00089737
     atom    5 type  2   force =     0.00005178   -0.00000609    0.00037717
     atom    6 type  2   force =     0.00003176   -0.00001348    0.00021034
     atom    7 type  1   force =     0.00007404    0.00011868    0.00096412
     atom    8 type  2   force =     0.00002365    0.00008453    0.00038088
     atom    9 type  2   force =    -0.00000061    0.00000203    0.00022123
     atom   10 type  1   force =     0.00023004   -0.00001730    0.00119800
     atom   11 type  2   force =     0.00005885   -0.00000450    0.00039284
     atom   12 type  2   force =     0.00000434   -0.00004197    0.00025424
     atom   13 type  1   force =    -0.00034423   -0.00028918    0.00124292
     atom   14 type  2   force =    -0.00014160   -0.00004148    0.00040084
     atom   15 type  2   force =    -0.00000236   -0.00003328    0.00022194
     atom   16 type  1   force =     0.00002260    0.00006869    0.00084107
     atom   17 type  2   force =    -0.00007740   -0.00009930    0.00038525
     atom   18 type  2   force =    -0.00006172    0.00004001    0.00017031
     atom   19 type  1   force =    -0.00006482    0.00011526    0.00094987
     atom   20 type  2   force =    -0.00000889    0.00004126    0.00019744
     atom   21 type  1   force =    -0.00010425   -0.00008073    0.00103802
     atom   22 type  2   force =    -0.00007744    0.00002976    0.00038818
     atom   23 type  2   force =    -0.00004933   -0.00000202    0.00024709
     atom   24 type  1   force =     0.00033507   -0.00031348    0.00109017
     atom   25 type  2   force =     0.00001408    0.00000458    0.00002035
     atom   26 type  2   force =    -0.00003396   -0.00003606    0.00042593
     atom   27 type  1   force =    -0.00010171   -0.00001790    0.00087470
     atom   28 type  2   force =     0.00001019   -0.00009734    0.00036440
     atom   29 type  2   force =     0.00002464   -0.00001232    0.00023355
     atom   30 type  1   force =     0.00000574    0.00015311    0.00099975
     atom   31 type  2   force =    -0.00002465    0.00009203    0.00035442
     atom   32 type  2   force =     0.00000305   -0.00001079    0.00022457
     atom   33 type  1   force =    -0.00008555    0.00025574    0.00110723
     atom   34 type  2   force =    -0.00000580    0.00014857    0.00034368
     atom   35 type  2   force =     0.00004700    0.00003626    0.00029782
     atom   36 type  3   force =    -0.00002239   -0.00002029    0.00003212

     Total force =     0.079954     Total SCF correction =     0.003937
     Energy error            =      1.3E-02 Ry
     Gradient error          =      3.1E-02 Ry/Bohr

     number of scf cycles    =   2
     number of bfgs steps    =   1

     energy             old  =   -2205.5465746163 Ry
     energy             new  =   -2205.5598073121 Ry

     CASE: energy            _new < energy            _old

     new trust radius        =       0.0659322127 bohr
     new conv_thr            =       0.0000000311 Ry


ATOMIC_POSITIONS (angstrom)
Mo            6.5850118394        1.7607756385        2.8304873967
S             8.1590366763        0.8307799130        4.4304806588
S             8.1778657307        0.8240884155        1.2667046272
Mo            8.1053726927        4.4933755401        2.7188528857
S             6.4990568026        3.7144202501        4.3344575853
S             6.5557335367        3.5250973479        1.1258640384
Mo            6.4910417795        7.2032057506        2.6676032059
S             8.0828031340        6.3369414881        4.2629215426
S             8.1004849901        6.3128900140        1.0989693982
Mo            8.1502863761        9.9158493590        2.8189870239
S             6.5004018534        8.9414426349        4.3709564220
S             6.6138957566        9.0471877512        1.1443874773
Mo            3.4582541634        1.7778431297        2.7315700222
S             4.9873584780        0.8178607169        4.3618817410
S             5.0420303160        0.8463478105        1.2108394006
Mo            4.9812006866        4.5254334737        2.6382947179
S             3.4399476207        3.6769733085        4.2817098283
S             3.4375397242        3.5380416443        1.0778666906
Mo            3.4643730222        7.2138188256        2.6246466639
S             4.9869548560        6.3202071252        1.0359954642
Mo            5.0010860900        9.9119802330        2.7448619365
S             3.4694750600        8.9402625536        4.3210751945
S             3.4113299021        9.0643875842        1.1054337400
Mo            0.2808834084        1.7432297583        2.8293549368
S             1.8212106796        0.7771665872        4.4544101171
S             1.8493498133        0.8545148364        1.2028191317
Mo            1.8596517419        4.4858505217        2.6722056918
S             0.2713961690        3.6559503097        4.3287068065
S             0.2347029097        3.5289051847        1.1676655383
Mo            0.2681117443        7.2238797611        2.6941131972
S             1.9032837548        6.3106962928        4.2419695590
S             1.8486188586        6.3199567075        1.0576668619
Mo            1.8612668676        9.9270528783        2.7535961740
S             0.2989392512        9.0382427266        4.3992339107
S             0.2661779476        9.0550520222        1.1629180146
H             1.0589638897        0.0212383160        5.3508322702



     Writing config-only to output data dir ./MoS2-V-O.save/
     NEW-OLD atomic charge density approx. for the potential

     negative rho (up, down):  1.500E-04 0.000E+00

     total cpu time spent up to now is      177.7 secs

     Self-consistent Calculation

     iteration #  1     ecut=    80.00 Ry     beta= 0.70
     Davidson diagonalization with overlap
     c_bands:  1 eigenvalues not converged
     ethr =  1.00E-06,  avg # of iterations = 20.0

     negative rho (up, down):  1.085E-04 0.000E+00

     total cpu time spent up to now is      192.1 secs

     total energy              =   -2205.56862761 Ry
     estimated scf accuracy    <       0.00218064 Ry

     iteration #  2     ecut=    80.00 Ry     beta= 0.70
     Davidson diagonalization with overlap
     ethr =  7.10E-07,  avg # of iterations =  2.0

     negative rho (up, down):  9.306E-05 0.000E+00

     total cpu time spent up to now is      203.9 secs

     total energy              =   -2205.56868852 Ry
     estimated scf accuracy    <       0.00037116 Ry

     iteration #  3     ecut=    80.00 Ry     beta= 0.70
     Davidson diagonalization with overlap
     ethr =  1.21E-07,  avg # of iterations =  4.0

     negative rho (up, down):  8.273E-05 0.000E+00

     total cpu time spent up to now is      224.2 secs

     total energy              =   -2205.56873072 Ry
     estimated scf accuracy    <       0.00007737 Ry

     iteration #  4     ecut=    80.00 Ry     beta= 0.70
     Davidson diagonalization with overlap
     ethr =  2.52E-08,  avg # of iterations =  4.0

     negative rho (up, down):  8.016E-05 0.000E+00

     total cpu time spent up to now is      238.7 secs

     total energy              =   -2205.56874301 Ry
     estimated scf accuracy    <       0.00000703 Ry

     iteration #  5     ecut=    80.00 Ry     beta= 0.70
     Davidson diagonalization with overlap
     ethr =  2.29E-09,  avg # of iterations =  5.0

     negative rho (up, down):  8.097E-05 0.000E+00

     total cpu time spent up to now is      254.8 secs

     total energy              =   -2205.56874522 Ry
     estimated scf accuracy    <       0.00000251 Ry

     iteration #  6     ecut=    80.00 Ry     beta= 0.70
     Davidson diagonalization with overlap
     ethr =  8.17E-10,  avg # of iterations =  5.0

     negative rho (up, down):  8.559E-05 0.000E+00

     total cpu time spent up to now is      272.4 secs

     total energy              =   -2205.56874552 Ry
     estimated scf accuracy    <       0.00000038 Ry

     iteration #  7     ecut=    80.00 Ry     beta= 0.70
     Davidson diagonalization with overlap
     ethr =  1.23E-10,  avg # of iterations =  5.0

     negative rho (up, down):  9.242E-05 0.000E+00

     total cpu time spent up to now is      285.4 secs

     total energy              =   -2205.56874551 Ry
     estimated scf accuracy    <       0.00000008 Ry

     iteration #  8     ecut=    80.00 Ry     beta= 0.70
     Davidson diagonalization with overlap
     ethr =  2.44E-11,  avg # of iterations =  5.0

     negative rho (up, down):  1.381E-04 0.000E+00

     total cpu time spent up to now is      288.1 secs

     End of self-consistent calculation

          k = 0.0000 0.0000 0.0000 (105382 PWs)   bands (ev):

   -62.8448 -62.8361 -62.8211 -62.8111 -62.8031 -62.7937 -62.7787 -62.7433
   -62.7365 -62.7232 -62.6776 -62.6544 -37.1847 -37.1113 -37.1081 -37.0939
   -37.0857 -37.0610 -37.0424 -37.0355 -37.0243 -37.0211 -37.0080 -37.0038
   -36.9994 -36.9881 -36.9854 -36.9761 -36.9705 -36.9558 -36.9433 -36.9280
   -36.9186 -36.9138 -36.9031 -36.8758 -36.8723 -36.8591 -36.8482 -36.8390
   -36.8361 -36.8254 -36.8167 -36.7987 -36.7935 -36.7486 -36.6616 -36.6420
   -16.1255 -15.5522 -15.1572 -15.0438 -14.9042 -14.7922 -14.6575 -14.4565
   -14.4105 -14.3929 -14.3733 -14.3465 -14.3052 -14.2537 -14.1473 -14.1120
   -14.0810 -14.0670 -13.9856 -13.9045 -13.8206 -13.7933 -13.7642  -8.6901
    -7.5847  -7.4115  -7.2479  -7.2368  -7.1935  -7.1672  -7.0920  -7.0445
    -6.8165  -6.7713  -6.7510  -6.6793  -6.5227  -6.4565  -6.4503  -6.4213
    -6.3046  -6.2154  -6.1116  -5.9577  -5.8799  -5.8497  -5.8029  -5.7633
    -5.7492  -5.6748  -5.6256  -5.6218  -5.5872  -5.5453  -5.4889  -5.4496
    -5.3840  -5.2923  -5.2269  -5.1279  -5.0387  -4.9708  -4.9464  -4.9374
    -4.9122  -4.8042  -4.5926  -4.5172  -4.4764  -4.3047  -4.2609  -4.2035
    -4.1747  -4.0399  -4.0067  -3.8983  -3.7689  -3.7553  -3.7244  -3.6846
    -3.6473  -3.5421  -3.5189  -3.5084  -3.4539  -3.4461  -3.4162  -3.3374
    -3.3208  -3.1756  -3.1063  -2.8837  -2.8688  -2.7360  -2.7207  -2.6937
    -2.6896  -2.6566  -2.6248  -2.5722  -2.5154  -2.2344  -1.9822  -1.9598
    -1.9465  -0.9472  -0.6961  -0.6210  -0.1213  -0.0927  -0.0338  -0.0170
     0.1133   0.1503   0.2000   0.2815   0.3205   0.3390   0.3679   0.4796
     0.5477   0.5872   0.5930   0.6303   0.6703   0.7137   0.7484   0.7965
     0.8022   0.8663   0.8998   0.9234   1.0048   1.0356   1.0526   1.2957
     1.4222

     the Fermi energy is    -0.9483 ev

!    total energy              =   -2205.56874533 Ry
     estimated scf accuracy    <       0.00000003 Ry
     smearing contrib. (-TS)   =      -0.00584028 Ry
     internal energy E=F+TS    =   -2205.56290505 Ry

     The total energy is F=E-TS. E is the sum of the following terms:
     one-electron contribution =  -18048.63852674 Ry
     hartree contribution      =    9011.45930690 Ry
     xc contribution           =    -385.35597478 Ry
     ewald contribution        =    7216.97228957 Ry

     convergence has been achieved in   8 iterations

     negative rho (up, down):  1.381E-04 0.000E+00

     Forces acting on atoms (cartesian axes, Ry/au):

     atom    1 type  1   force =    -0.00473923   -0.00220767   -0.00628388
     atom    2 type  2   force =    -0.00502812    0.00476074   -0.00319494
     atom    3 type  2   force =    -0.00692140    0.00466164   -0.01192590
     atom    4 type  1   force =     0.00407922    0.00230273    0.00074853
     atom    5 type  2   force =     0.00203493   -0.00530985   -0.00449186
     atom    6 type  2   force =     0.00139012    0.00347959    0.00423977
     atom    7 type  1   force =     0.00279536   -0.00603919    0.00292440
     atom    8 type  2   force =     0.00046259   -0.00406541    0.00610889
     atom    9 type  2   force =     0.00762246    0.00261467    0.00370965
     atom   10 type  1   force =     0.00052351    0.00520554    0.00040353
     atom   11 type  2   force =     0.00216022   -0.00014310   -0.00852309
     atom   12 type  2   force =    -0.00482303   -0.00119656    0.00062171
     atom   13 type  1   force =     0.00147166    0.00077222   -0.00188570
     atom   14 type  2   force =    -0.00031474    0.00302313    0.00079428
     atom   15 type  2   force =     0.00047641   -0.00077613   -0.01115919
     atom   16 type  1   force =     0.00234230    0.00578120    0.00153533
     atom   17 type  2   force =     0.00655980    0.00027458    0.00178119
     atom   18 type  2   force =     0.00268296    0.00374480    0.00127213
     atom   19 type  1   force =     0.00103294   -0.00227235    0.00176103
     atom   20 type  2   force =     0.00224066   -0.00267286   -0.00447040
     atom   21 type  1   force =    -0.00269504    0.00258836    0.00140399
     atom   22 type  2   force =     0.00022367   -0.00184268   -0.00218518
     atom   23 type  2   force =     0.00289354   -0.00165422   -0.00138437
     atom   24 type  1   force =    -0.00437719   -0.00125025    0.00157049
     atom   25 type  2   force =     0.00048006    0.00297755    0.00777545
     atom   26 type  2   force =    -0.00004187    0.00111475   -0.00138823
     atom   27 type  1   force =     0.00163867   -0.00074015    0.00493787
     atom   28 type  2   force =    -0.00087226   -0.00340608   -0.00293163
     atom   29 type  2   force =     0.00199001    0.00073041   -0.00331427
     atom   30 type  1   force =    -0.00053307   -0.00210296    0.00799231
     atom   31 type  2   force =     0.00097298   -0.00063967    0.00369821
     atom   32 type  2   force =    -0.00395019    0.00205916    0.00629241
     atom   33 type  1   force =    -0.00107945   -0.00037513    0.00698408
     atom   34 type  2   force =    -0.00206923   -0.01988837   -0.01652659
     atom   35 type  2   force =    -0.00366906    0.00580595   -0.00032683
     atom   36 type  3   force =    -0.00496021    0.00468559    0.01343685
     The non-local contrib.  to forces
     atom    1 type  1   force =     0.00069701    0.02515355   -0.01321522
     atom    2 type  2   force =    -0.00238070   -0.00761134   -0.25903636
     atom    3 type  2   force =    -0.00838002   -0.00429163    0.26300812
     atom    4 type  1   force =    -0.00209361    0.01062941    0.00512822
     atom    5 type  2   force =     0.00947190   -0.03458389   -0.25263393
     atom    6 type  2   force =    -0.00158545    0.00242663    0.26665583
     atom    7 type  1   force =    -0.02619638   -0.00721505   -0.02464614
     atom    8 type  2   force =     0.00359242   -0.00390169   -0.26124071
     atom    9 type  2   force =     0.00243537   -0.01236149    0.27270128
     atom   10 type  1   force =     0.00248765   -0.00166683   -0.00200393
     atom   11 type  2   force =     0.00734356    0.00690624   -0.26212996
     atom   12 type  2   force =    -0.01437608   -0.01562403    0.26428110
     atom   13 type  1   force =     0.00087662    0.01687482   -0.00804167
     atom   14 type  2   force =     0.01679681   -0.00878696   -0.25347958
     atom   15 type  2   force =    -0.00536147   -0.00158657    0.25995589
     atom   16 type  1   force =    -0.00402534    0.03423191   -0.03192375
     atom   17 type  2   force =     0.00185246   -0.01609430   -0.24187256
     atom   18 type  2   force =     0.00308654    0.00047485    0.26588010
     atom   19 type  1   force =     0.01975887   -0.00775408   -0.01518689
     atom   20 type  2   force =    -0.00025424   -0.01802974    0.26068844
     atom   21 type  1   force =     0.00096932    0.02138310    0.00320013
     atom   22 type  2   force =    -0.00812001    0.00622799   -0.25203404
     atom   23 type  2   force =     0.00902498   -0.01676053    0.26009970
     atom   24 type  1   force =     0.00851292    0.01388648   -0.01064056
     atom   25 type  2   force =    -0.18181775   -0.16149117   -0.03101965
     atom   26 type  2   force =     0.00579696   -0.01188059    0.27342273
     atom   27 type  1   force =    -0.00279488    0.00982976    0.00603983
     atom   28 type  2   force =    -0.00394261   -0.02880280   -0.26933685
     atom   29 type  2   force =     0.00525818   -0.00086360    0.26366602
     atom   30 type  1   force =    -0.00293343    0.01528114    0.00222512
     atom   31 type  2   force =    -0.00462289    0.00003520   -0.26066925
     atom   32 type  2   force =     0.00140832   -0.01488191    0.27193315
     atom   33 type  1   force =     0.00210833    0.00293359    0.00236953
     atom   34 type  2   force =    -0.00780581   -0.01052692   -0.25151055
     atom   35 type  2   force =     0.00197917   -0.01183229    0.26610762
     atom   36 type  3   force =     0.02865968    0.02904465   -0.03518036
     The ionic contribution  to forces
     atom    1 type  1   force =    -0.04109222    0.86788176    5.88874704
     atom    2 type  2   force =    -0.66191273    0.27592427   39.30168440
     atom    3 type  2   force =    -0.12852469    0.04677347  -36.46876584
     atom    4 type  1   force =    -0.07314498    0.66904120    0.79029630
     atom    5 type  2   force =    -0.97260774    1.51799710   38.59606132
     atom    6 type  2   force =     0.31413796   -0.53027831  -37.83079650
     atom    7 type  1   force =    -2.53366033   -2.47821799    2.59117757
     atom    8 type  2   force =    -1.01377905    0.06113414   37.61487727
     atom    9 type  2   force =     0.26533115   -0.10598642  -37.89801940
     atom   10 type  1   force =    -0.91380095   -0.67319008    4.82586319
     atom   11 type  2   force =    -0.55111842   -1.68052791   38.95234222
     atom   12 type  2   force =     0.30454136    0.53810434  -37.75834769
     atom   13 type  1   force =    -0.49438572    0.25869812    1.50065040
     atom   14 type  2   force =    -0.30194085    0.06145255   38.67772439
     atom   15 type  2   force =     0.34834777   -0.14795950  -37.09813275
     atom   16 type  1   force =     0.11906887    3.91540796    0.89703540
     atom   17 type  2   force =     0.74328160    1.34214969   38.05617725
     atom   18 type  2   force =    -0.22129963   -0.25050510  -38.54813740
     atom   19 type  1   force =     2.52883808   -2.66744070    0.48779321
[...]
     atom   27 type  1   force =    -0.00153422    0.00791497    0.00274685
     atom   28 type  2   force =    -0.00047606   -0.02357714   -0.26629568
     atom   29 type  2   force =    -0.00149462   -0.00665239    0.26583416
     atom   30 type  1   force =    -0.00323148    0.01400568    0.00174953
     atom   31 type  2   force =    -0.00614040    0.00004594   -0.26439779
     atom   32 type  2   force =     0.00603729   -0.01668496    0.26841142
     atom   33 type  1   force =     0.00100573    0.00531859   -0.00655443
     atom   34 type  2   force =    -0.00080159   -0.00141429   -0.25801490
     atom   35 type  2   force =     0.00016072   -0.01603479    0.26835634
     atom   36 type  3   force =     0.03308275    0.01857999   -0.04014806
     The ionic contribution  to forces
     atom    1 type  1   force =    -0.06254574    0.79261383    1.63177084
     atom    2 type  2   force =    -0.80672287    0.18081329   38.67367591
     atom    3 type  2   force =     0.22076775    0.00203040  -37.48238308
     atom    4 type  1   force =    -0.06171370    0.65846322    0.63873176
     atom    5 type  2   force =    -0.93396648    1.25290591   38.15479913
     atom    6 type  2   force =     0.34831324   -0.25679990  -38.11617806
     atom    7 type  1   force =    -2.39237473   -2.10418702    2.39655696
     atom    8 type  2   force =    -1.28370825    0.10981534   38.11098444
     atom    9 type  2   force =     0.34798154   -0.00691375  -37.78065461
     atom   10 type  1   force =    -0.70742791   -0.77134642    2.51147596
     atom   11 type  2   force =    -0.54362186   -1.51985651   38.35369332
     atom   12 type  2   force =     0.25695621    0.25659917  -37.94491838
     atom   13 type  1   force =    -1.09870084    0.04545196    0.71726197
     atom   14 type  2   force =    -0.16795241    0.02936004   38.24835236
     atom   15 type  2   force =     0.06579905   -0.23578742  -38.12054525
     atom   16 type  1   force =     0.02320694    3.78982289    0.90567762
     atom   17 type  2   force =     0.85697308    1.10885189   38.21664677
     atom   18 type  2   force =    -0.42325988   -0.08787968  -38.37484329
     atom   19 type  1   force =     2.45862192   -2.44381275    2.72917139
     atom   20 type  2   force =    -0.04187888   -0.01030879  -38.71246177
     atom   21 type  1   force =     0.01473250   -0.32563849    0.11926934
     atom   22 type  2   force =     0.71647679   -1.55240002   38.62173702
     atom   23 type  2   force =    -0.37842969    0.35636526  -37.86195017
     atom   24 type  1   force =     0.67527357    0.87022002    3.99664254
     atom   25 type  2   force =     1.96823278    1.14298616   38.47734603
     atom   26 type  2   force =    -0.19788648   -0.13376236  -36.76326577
     atom   27 type  1   force =     0.06769389    0.63199556    1.04731174
     atom   28 type  2   force =     0.05838250    0.78667807   38.23799670
     atom   29 type  2   force =     0.05433785   -0.13100431  -37.29601892
     atom   30 type  1   force =     0.00791013   -1.06295870    2.03805265
     atom   31 type  2   force =     1.24205782    0.04386976   38.07926087
     atom   32 type  2   force =    -0.36778286   -0.05899316  -37.57545963
     atom   33 type  1   force =     0.93065628   -0.07667975    4.37835047
     atom   34 type  2   force =    -0.26744447   -1.04157349   38.76758144
     atom   35 type  2   force =     0.07584512    0.13440492  -37.39455639
     atom   36 type  3   force =    -0.65480191   -0.37334514    8.37088811
     The local contribution  to forces
     atom    1 type  1   force =     0.06580872   -0.81436545   -1.62762918
     atom    2 type  2   force =     0.80418240   -0.16902373  -38.44519378
     atom    3 type  2   force =    -0.21352896    0.00542546   37.23524284
     atom    4 type  1   force =     0.06195845   -0.66878619   -0.64365951
     atom    5 type  2   force =     0.92734396   -1.22972766  -37.92219864
     atom    6 type  2   force =    -0.34659234    0.26266725   37.87136586
     atom    7 type  1   force =     2.41564020    2.11064421   -2.37122292
     atom    8 type  2   force =     1.27527506   -0.11028203  -37.86775638
     atom    9 type  2   force =    -0.34183248    0.02049494   37.53315961
     atom   10 type  1   force =     0.70707521    0.76955595   -2.51419394
     atom   11 type  2   force =     0.53992533    1.51793135  -38.11484285
     atom   12 type  2   force =    -0.24823809   -0.24731676   37.69876368
     atom   13 type  1   force =     1.09984135   -0.06179172   -0.71035941
     atom   14 type  2   force =     0.15525632   -0.01648213  -38.01644488
     atom   15 type  2   force =    -0.06402788    0.23529102   37.87676569
     atom   16 type  1   force =    -0.02240213   -3.82476884   -0.87289150
     atom   17 type  2   force =    -0.85069649   -1.09761417  -37.99294580
     atom   18 type  2   force =     0.41900038    0.09526005   38.13072343
     atom   19 type  1   force =    -2.48176142    2.45122595   -2.70936584
     atom   20 type  2   force =     0.04151367    0.02382906   38.47156183
     atom   21 type  1   force =    -0.01499192    0.30413103   -0.12441340
     atom   22 type  2   force =    -0.70554149    1.54713743  -38.38801307
     atom   23 type  2   force =     0.36731208   -0.34357697   37.62027673
     atom   24 type  1   force =    -0.68063155   -0.88488359   -3.99074449
     atom   25 type  2   force =    -1.74556343   -1.02093986  -38.48334033
     atom   26 type  2   force =     0.19349299    0.14408141   36.51005447
     atom   27 type  1   force =    -0.06600094   -0.64042848   -1.05050062
     atom   28 type  2   force =    -0.05833711   -0.76470986  -37.99302909
     atom   29 type  2   force =    -0.05354333    0.13732985   37.04999394
     atom   30 type  1   force =    -0.00491768    1.04902257   -2.03944713
     atom   31 type  2   force =    -1.23651144   -0.04348200  -37.83661964
     atom   32 type  2   force =     0.36145618    0.07434146   37.32823201
     atom   33 type  1   force =    -0.93178637    0.07090537   -4.37171077
     atom   34 type  2   force =     0.26829780    1.04291155  -38.52935173
     atom   35 type  2   force =    -0.07559430   -0.12025002   37.14724912
     atom   36 type  3   force =     0.62120326    0.35594709   -8.33037299
     The core correction contribution to forces
     atom    1 type  1   force =     0.00000000    0.00000000    0.00000000
     atom    2 type  2   force =    -0.00057800    0.00042825    0.01987150
     atom    3 type  2   force =     0.00057370    0.00028563   -0.02093785
     atom    4 type  1   force =     0.00000000    0.00000000    0.00000000
     atom    5 type  2   force =    -0.00061167    0.00107256    0.02025986
     atom    6 type  2   force =     0.00033101   -0.00010050   -0.02081975
     atom    7 type  1   force =     0.00000000    0.00000000    0.00000000
     atom    8 type  2   force =    -0.00056586    0.00029755    0.02073943
     atom    9 type  2   force =     0.00055770    0.00076321   -0.02094346
     atom   10 type  1   force =     0.00000000    0.00000000    0.00000000
     atom   11 type  2   force =    -0.00013787   -0.00026602    0.02047843
     atom   12 type  2   force =     0.00072764    0.00082624   -0.02090937
     atom   13 type  1   force =     0.00000000    0.00000000    0.00000000
     atom   14 type  2   force =    -0.00071688    0.00028099    0.02022446
     atom   15 type  2   force =     0.00019365   -0.00016579   -0.02082583
     atom   16 type  1   force =     0.00000000    0.00000000    0.00000000
     atom   17 type  2   force =     0.00062556    0.00045027    0.01990513
     atom   18 type  2   force =    -0.00047153    0.00017153   -0.02089162
     atom   19 type  1   force =     0.00000000    0.00000000    0.00000000
     atom   20 type  2   force =    -0.00013233    0.00060706   -0.02115396
     atom   21 type  1   force =     0.00000000    0.00000000    0.00000000
     atom   22 type  2   force =     0.00064162   -0.00051353    0.02026779
     atom   23 type  2   force =    -0.00105764    0.00101960   -0.02077273
     atom   24 type  1   force =     0.00000000    0.00000000    0.00000000
     atom   25 type  2   force =     0.01549831    0.00852363    0.00212052
     atom   26 type  2   force =    -0.00045475    0.00020791   -0.02121150
     atom   27 type  1   force =     0.00000000    0.00000000    0.00000000
     atom   28 type  2   force =     0.00001249    0.00159186    0.02064101
     atom   29 type  2   force =     0.00011453    0.00007028   -0.02074571
     atom   30 type  1   force =     0.00000000    0.00000000    0.00000000
     atom   31 type  2   force =     0.00037417    0.00028643    0.02063659
     atom   32 type  2   force =    -0.00051366    0.00082226   -0.02081963
     atom   33 type  1   force =     0.00000000    0.00000000    0.00000000
     atom   34 type  2   force =    -0.00023954   -0.00037536    0.02029977
     atom   35 type  2   force =     0.00007813    0.00098576   -0.02099511
     atom   36 type  3   force =     0.00000000    0.00000000    0.00000000
     The Hubbard contrib.    to forces
     atom    1 type  1   force =     0.00000000    0.00000000    0.00000000
     atom    2 type  2   force =     0.00000000    0.00000000    0.00000000
     atom    3 type  2   force =     0.00000000    0.00000000    0.00000000
     atom    4 type  1   force =     0.00000000    0.00000000    0.00000000
     atom    5 type  2   force =     0.00000000    0.00000000    0.00000000
     atom    6 type  2   force =     0.00000000    0.00000000    0.00000000
     atom    7 type  1   force =     0.00000000    0.00000000    0.00000000
     atom    8 type  2   force =     0.00000000    0.00000000    0.00000000
     atom    9 type  2   force =     0.00000000    0.00000000    0.00000000
     atom   10 type  1   force =     0.00000000    0.00000000    0.00000000
     atom   11 type  2   force =     0.00000000    0.00000000    0.00000000
     atom   12 type  2   force =     0.00000000    0.00000000    0.00000000
     atom   13 type  1   force =     0.00000000    0.00000000    0.00000000
     atom   14 type  2   force =     0.00000000    0.00000000    0.00000000
     atom   15 type  2   force =     0.00000000    0.00000000    0.00000000
     atom   16 type  1   force =     0.00000000    0.00000000    0.00000000
     atom   17 type  2   force =     0.00000000    0.00000000    0.00000000
     atom   18 type  2   force =     0.00000000    0.00000000    0.00000000
     atom   19 type  1   force =     0.00000000    0.00000000    0.00000000
     atom   20 type  2   force =     0.00000000    0.00000000    0.00000000
     atom   21 type  1   force =     0.00000000    0.00000000    0.00000000
     atom   22 type  2   force =     0.00000000    0.00000000    0.00000000
     atom   23 type  2   force =     0.00000000    0.00000000    0.00000000
     atom   24 type  1   force =     0.00000000    0.00000000    0.00000000
     atom   25 type  2   force =     0.00000000    0.00000000    0.00000000
     atom   26 type  2   force =     0.00000000    0.00000000    0.00000000
     atom   27 type  1   force =     0.00000000    0.00000000    0.00000000
     atom   28 type  2   force =     0.00000000    0.00000000    0.00000000
     atom   29 type  2   force =     0.00000000    0.00000000    0.00000000
     atom   30 type  1   force =     0.00000000    0.00000000    0.00000000
     atom   31 type  2   force =     0.00000000    0.00000000    0.00000000
     atom   32 type  2   force =     0.00000000    0.00000000    0.00000000
     atom   33 type  1   force =     0.00000000    0.00000000    0.00000000
     atom   34 type  2   force =     0.00000000    0.00000000    0.00000000
     atom   35 type  2   force =     0.00000000    0.00000000    0.00000000
     atom   36 type  3   force =     0.00000000    0.00000000    0.00000000
     The SCF correction term to forces
     atom    1 type  1   force =    -0.00000683   -0.00002885    0.00000497
     atom    2 type  2   force =     0.00001896    0.00000113    0.00000435
     atom    3 type  2   force =     0.00001720   -0.00001360    0.00000203
     atom    4 type  1   force =     0.00004541    0.00001537    0.00002654
     atom    5 type  2   force =    -0.00000233    0.00000201    0.00001719
     atom    6 type  2   force =    -0.00000254    0.00000398   -0.00000739
     atom    7 type  1   force =     0.00001781   -0.00000504    0.00001056
     atom    8 type  2   force =     0.00001024    0.00000070   -0.00000576
     atom    9 type  2   force =     0.00001097    0.00001321    0.00000643
     atom   10 type  1   force =     0.00006059   -0.00000369   -0.00002243
     atom   11 type  2   force =     0.00000113    0.00000410    0.00000339
     atom   12 type  2   force =     0.00000445    0.00000643   -0.00001173
     atom   13 type  1   force =    -0.00005144   -0.00000846    0.00001087
     atom   14 type  2   force =    -0.00001447    0.00000123   -0.00000493
     atom   15 type  2   force =    -0.00002143   -0.00000621    0.00000628
     atom   16 type  1   force =    -0.00004381    0.00000375    0.00002539
     atom   17 type  2   force =    -0.00001610   -0.00001062    0.00000068
     atom   18 type  2   force =    -0.00000797   -0.00001299    0.00001286
     atom   19 type  1   force =    -0.00004085    0.00003165   -0.00000293
     atom   20 type  2   force =    -0.00000362    0.00000429    0.00000555
     atom   21 type  1   force =    -0.00004239    0.00000401   -0.00002161
     atom   22 type  2   force =    -0.00001304    0.00000850   -0.00002153
     atom   23 type  2   force =    -0.00002089    0.00001170    0.00000494
     atom   24 type  1   force =     0.00004142   -0.00002560    0.00003580
     atom   25 type  2   force =    -0.00000372    0.00000432   -0.00000153
     atom   26 type  2   force =     0.00000435   -0.00001405    0.00000984
     atom   27 type  1   force =     0.00000988   -0.00002123    0.00002943
     atom   28 type  2   force =     0.00001811   -0.00001225    0.00001112
     atom   29 type  2   force =     0.00000992   -0.00000728    0.00000981
     atom   30 type  1   force =     0.00003031    0.00005233   -0.00001560
     atom   31 type  2   force =    -0.00000691   -0.00000408   -0.00000282
     atom   32 type  2   force =    -0.00000787    0.00001742    0.00000087
     atom   33 type  1   force =    -0.00002246   -0.00000438   -0.00002187
     atom   34 type  2   force =     0.00001201    0.00000584   -0.00002722
     atom   35 type  2   force =     0.00001647    0.00000003    0.00001343
     atom   36 type  3   force =     0.00000237    0.00000100   -0.00000168

     Total force =     0.006122     Total SCF correction =     0.000192
     Energy error            =      8.7E-05 Ry
     Gradient error          =      1.5E-03 Ry/Bohr

     bfgs converged in  20 scf cycles and  19 bfgs steps
     (criteria: energy <  1.0E-04 Ry, force <  1.0E-02 Ry/Bohr)

     End of BFGS Geometry Optimization

     Final energy             =   -2205.5826596386 Ry

     File ./MoS2-V-O.bfgs deleted, as requested
Begin final coordinates

ATOMIC_POSITIONS (angstrom)
Mo            6.5666142011        1.7454818308        2.7420629322
S             8.1120580383        0.8361729077        4.3672314594
S             8.1712389644        0.8324316886        1.1798360788
Mo            8.1396811586        4.4834579156        2.7140459123
S             6.5322930346        3.6527285195        4.2907606231
S             6.5834851420        3.5595364425        1.1007974791
Mo            6.5101650553        7.1855509172        2.6614453268
S             8.0700070472        6.2976696437        4.2991948706
S             8.1512365083        6.3185298569        1.1136847689
Mo            8.1389635963        9.9278899001        2.7684165070
S             6.5055193139        8.9556404198        4.3147032121
S             6.5944499118        9.0298524998        1.1186006724
Mo            3.4611942225        1.7777387145        2.7067825857
S             4.9856259245        0.8254492092        4.3115951470
S             5.0025310956        0.8365599780        1.1231331200
Mo            5.0124687802        4.5321662064        2.6334044241
S             3.5008917410        3.6616174917        4.2937553974
S             3.4505738045        3.5657818347        1.0890195085
Mo            3.4882070778        7.1988773765        2.6687420120
S             4.9939671829        6.3215193826        1.0317678347
Mo            4.9852618317        9.9200430116        2.7113545697
S             3.4926554516        8.9474902928        4.3365562136
S             3.3803126075        9.0324594017        1.1318885517
Mo            0.2673747259        1.7286233222        2.8073680047
S             1.7785963076        0.7764152916        4.5142300434
S             1.8450373584        0.8280138329        1.2171237968
Mo            1.8871325888        4.4732972236        2.7202817568
S             0.2773092354        3.6157852071        4.3323463500
S             0.2852409208        3.5342651541        1.1688138554
Mo            0.2700731794        7.2047038363        2.7411711086
S             1.9216655494        6.2952141668        4.3024408376
S             1.8588412037        6.3162981229        1.1269767967
Mo            1.8470606608        9.9205185538        2.8077960372
S             0.2497790306        8.9965118925        4.3732945696
S             0.2782784732        9.0451087202        1.1821657596
H             0.9273071975        0.3015456449        5.5175517482
End final coordinates



     Writing all to output data dir ./MoS2-V-O.save/
 
     init_run     :      2.40s CPU      2.67s WALL (       1 calls)
     electrons    :   1595.76s CPU   1777.20s WALL (      20 calls)
     update_pot   :     27.13s CPU     28.73s WALL (      19 calls)
     forces       :     27.23s CPU     31.78s WALL (      20 calls)

     Called by init_run:
     wfcinit      :      0.39s CPU      0.44s WALL (       1 calls)
     potinit      :      1.33s CPU      1.45s WALL (       1 calls)
     hinit0       :      0.16s CPU      0.19s WALL (       1 calls)

     Called by electrons:
     c_bands      :    222.07s CPU    226.12s WALL (     161 calls)
     sum_band     :     48.38s CPU     62.57s WALL (     161 calls)
     v_of_rho     :     70.98s CPU     86.61s WALL (     166 calls)
     newd         :     22.19s CPU     35.56s WALL (     166 calls)
     mix_rho      :   1240.98s CPU   1375.65s WALL (     161 calls)

     Called by c_bands:
     init_us_2    :      3.43s CPU      3.72s WALL (     323 calls)
     init_us_2:cp :      3.43s CPU      3.71s WALL (     323 calls)
     regterg      :    210.07s CPU    213.82s WALL (     161 calls)

     Called by *egterg:
     rdiaghg      :     16.05s CPU     16.26s WALL (     927 calls)
     h_psi        :    112.99s CPU    114.02s WALL (     962 calls)
     s_psi        :     13.71s CPU     13.77s WALL (     962 calls)
     g_psi        :      1.30s CPU      1.31s WALL (     800 calls)

     Called by h_psi:
     h_psi:calbec :     16.46s CPU     16.54s WALL (     962 calls)
     vloc_psi     :     80.10s CPU     80.93s WALL (     962 calls)
     add_vuspsi   :     13.71s CPU     13.81s WALL (     962 calls)

     General routines
     calbec       :     23.28s CPU     23.40s WALL (    1203 calls)
     fft          :     47.17s CPU     55.07s WALL (   11300 calls)
     ffts         :    561.21s CPU    691.10s WALL (  303047 calls)
     fftw         :     67.95s CPU     68.56s WALL (  100247 calls)
     interpolate  :      1.19s CPU      1.42s WALL (     166 calls)
 
     Parallel routines
 
     PWSCF        :  27m36.05s CPU  30m46.66s WALL

 
   This run was terminated on:  22:42: 0   3Nov2023            

=------------------------------------------------------------------------------=
   JOB DONE.
=------------------------------------------------------------------------------=
