
     Program PWSCF v.7.2 starts on  4Nov2023 at  2:52:52 

     This program is part of the open-source Quantum ESPRESSO suite
     for quantum simulation of materials; please cite
         "P. Giannozzi et al., J. Phys.:Condens. Matter 21 395502 (2009);
         "P. Giannozzi et al., J. Phys.:Condens. Matter 29 465901 (2017);
         "P. Giannozzi et al., J. Chem. Phys. 152 154105 (2020);
          URL http://www.quantum-espresso.org", 
     in publications or presentations arising from this work. More details at
     http://www.quantum-espresso.org/quote

     Parallel version (MPI & OpenMP), running on      48 processor cores
     Number of MPI processes:                48
     Threads/MPI process:                     1

     MPI processes distributed on     1 nodes
     108747 MiB available memory on the printing compute node when the environment starts
 
     Waiting for input...
     Reading input from standard input
Warning: card &CELL ignored
Warning: card CELL_DYNAMICS = 'BFGS', ignored
Warning: card CELL_DOFREE = '2DXY' ignored
Warning: card / ignored

     Current dimensions of program PWSCF are:
     Max number of different atomic species (ntypx) = 10
     Max number of k-points (npk) =  40000
     Max angular momentum in pseudopotentials (lmaxx) =  4

     IMPORTANT: XC functional enforced from input :
     Exchange-correlation= RVV10
                           (   1   4  13   4  26   0   0)
     Any further DFT definition will be discarded
     Please, verify this is what you really want


     gamma-point specific algorithms are used
     signal trapping enabled: kill the code with -SIGUSR1 to stop cleanly the simulation 
 
     R & G space division:  proc/nbgrp/npool/nimage =      48
     Subspace diagonalization in iterative solution of the eigenvalue problem:
     one sub-group per band group will be used
     scalapack distributed-memory algorithm (size of sub-group:  2*  2 procs)

 
     Parallelization info
     --------------------
     sticks:   dense  smooth     PW     G-vecs:    dense   smooth      PW
     Min         243     194     47                49060    35090    4376
     Max         246     196     50                49086    35128    4410
     Sum       11735    9389   2349              2355467  1685513  210763
 
     Using Slab Decomposition
 


     bravais-lattice index     =            0
     lattice parameter (alat)  =      17.8707  a.u.
     unit-cell volume          =   17436.2743 (a.u.)^3
     number of atoms/cell      =           36
     number of atomic types    =            3
     number of electrons       =       307.00
     number of Kohn-Sham states=          185
     kinetic-energy cutoff     =      80.0000  Ry
     charge density cutoff     =     400.0000  Ry
     scf convergence threshold =      1.0E-06
     mixing beta               =       0.7000
     number of iterations used =            8  local-TF  mixing
     energy convergence thresh.=      1.0E-04
     force convergence thresh. =      1.0E-02
     Exchange-correlation= RVV10
                           (   1   4  13   4  26   0   0)
     nstep                     =          200


     celldm(1)=  17.870686  celldm(2)=   0.000000  celldm(3)=   0.000000
     celldm(4)=   0.000000  celldm(5)=   0.000000  celldm(6)=   0.000000

     crystal axes: (cart. coord. in units of alat)
               a(1) = (   1.000000   0.000000   0.000000 )  
               a(2) = (   0.000000   1.155671   0.000000 )  
               a(3) = (   0.000000   0.000000   2.643601 )  

     reciprocal axes: (cart. coord. in units 2 pi/alat)
               b(1) = (  1.000000  0.000000  0.000000 )  
               b(2) = (  0.000000  0.865298  0.000000 )  
               b(3) = (  0.000000  0.000000  0.378272 )  


     PseudoPot. # 1 for Mo read from file:
     ../pseudo/Mo_ONCV_PBE-1.0.oncvpsp.upf
     MD5 check sum: 1b5d28e075c9ccadda658a603575cd1f
     Pseudo is Norm-conserving, Zval = 14.0
     Generated using ONCVPSP code by D. R. Hamann
     Using radial grid of 1526 points,  6 beta functions with: 
                l(1) =   0
                l(2) =   0
                l(3) =   1
                l(4) =   1
                l(5) =   2
                l(6) =   2

     PseudoPot. # 2 for S  read from file:
     ../pseudo/s_pbe_v1.4.uspp.F.UPF
     MD5 check sum: 88d86576ff6df21479756cfb9bdac1df
     Pseudo is Ultrasoft + core correction, Zval =  6.0
     Generated by new atomic code, or converted to UPF format
     Using radial grid of  907 points,  6 beta functions with: 
                l(1) =   0
                l(2) =   0
                l(3) =   1
                l(4) =   1
                l(5) =   2
                l(6) =   2
     Q(r) pseudized with  8 coefficients,  rinner =    1.300   1.300   1.300
                                                       1.300   1.300

     PseudoPot. # 3 for H  read from file:
     ../pseudo/H_ONCV_PBE-1.0.oncvpsp.upf
     MD5 check sum: 1790becc920ee074925cf490c71280fe
     Pseudo is Norm-conserving, Zval =  1.0
     Generated using ONCVPSP code by D. R. Hamann
     Using radial grid of 1166 points,  2 beta functions with: 
                l(1) =   0
                l(2) =   0

     atomic species   valence    mass     pseudopotential
        Mo            14.00    95.94000     Mo( 1.00)
        S              6.00    32.06500     S ( 1.00)
        H              1.00     1.00794     H ( 1.00)

     No symmetry found



   Cartesian axes

     site n.     atom                  positions (alat units)
         1           Mo  tau(   1) = (   0.6952221   0.1890506   0.2985846  )
         2           S   tau(   2) = (   0.8646417   0.0856217   0.4689279  )
         3           S   tau(   3) = (   0.8663890   0.0857843   0.1351291  )
         4           Mo  tau(   4) = (   0.8560186   0.4753274   0.2873942  )
         5           S   tau(   5) = (   0.6873294   0.3936244   0.4596353  )
         6           S   tau(   6) = (   0.6929804   0.3713468   0.1185692  )
         7           Mo  tau(   7) = (   0.6862796   0.7633098   0.2825370  )
         8           S   tau(   8) = (   0.8545980   0.6708292   0.4486168  )
         9           S   tau(   9) = (   0.8545123   0.6666874   0.1146125  )
        10           Mo  tau(  10) = (   0.8629403   1.0471007   0.3006803  )
        11           S   tau(  11) = (   0.6868280   0.9456650   0.4634891  )
        12           S   tau(  12) = (   0.6998113   0.9568511   0.1205389  )
        13           Mo  tau(  13) = (   0.3618216   0.1847309   0.2935964  )
        14           S   tau(  14) = (   0.5260962   0.0863870   0.4600448  )
        15           S   tau(  15) = (   0.5348379   0.0894875   0.1297123  )
        16           Mo  tau(  16) = (   0.5265817   0.4772436   0.2784130  )
        17           S   tau(  17) = (   0.3624753   0.3882513   0.4525556  )
        18           S   tau(  18) = (   0.3635411   0.3752055   0.1119148  )
        19           Mo  tau(  19) = (   0.3652268   0.7630864   0.2781795  )
        20           S   tau(  20) = (   0.5269494   0.6690381   0.1096838  )
        21           Mo  tau(  21) = (   0.5300192   1.0470394   0.2900995  )
        22           S   tau(  22) = (   0.3670346   0.9457522   0.4574073  )
        23           S   tau(  23) = (   0.3604225   0.9585725   0.1159032  )
        24           Mo  tau(  24) = (   0.0313099   0.1847895   0.3013130  )
        25           S   tau(  25) = (   0.1956761   0.0838230   0.4650863  )
        26           S   tau(  26) = (   0.1967693   0.0903508   0.1278874  )
        27           Mo  tau(  27) = (   0.1967578   0.4753919   0.2813011  )
        28           S   tau(  28) = (   0.0287851   0.3864324   0.4586755  )
        29           S   tau(  29) = (   0.0244514   0.3729871   0.1239344  )
        30           Mo  tau(  30) = (   0.0286728   0.7631204   0.2856894  )
        31           S   tau(  31) = (   0.2011512   0.6675435   0.4465001  )
        32           S   tau(  32) = (   0.1969214   0.6672839   0.1104564  )
        33           Mo  tau(  33) = (   0.1950294   1.0511147   0.2932237  )
        34           S   tau(  34) = (   0.0312912   0.9612169   0.4667423  )
        35           S   tau(  35) = (   0.0292670   0.9563028   0.1216485  )
        36           H   tau(  36) = (   0.7777778   0.5136314   0.5407634  )

     number of k points=     1  Gaussian smearing, width (Ry)=  0.0100
                       cart. coord. in units 2pi/alat
        k(    1) = (   0.0000000   0.0000000   0.0000000), wk =   2.0000000

     Dense  grid:  1177734 G-vectors     FFT dimensions: ( 120, 135, 320)

     Smooth grid:   842757 G-vectors     FFT dimensions: ( 108, 120, 270)

     Estimated max dynamical RAM per process >     146.59 MB

     Estimated total dynamical RAM >       6.87 GB

     Initial potential from superposition of free atoms

     starting charge     306.9873, renormalised to     307.0000

     negative rho (up, down):  1.415E-04 0.000E+00


---------------------------------------------------------------------------------
Carrying out rVV10 run using the following parameters:
Nqs =      20    Nr_points =    1024   r_max =   100.000
b_value =  6.30000    beta =  0.00901
     q_mesh =  0.00010000  0.00030000  0.00058939  0.00100810
               0.00161396  0.00249058  0.00375900  0.00559430
               0.00824984  0.01209221  0.01765183  0.02569619
               0.03733578  0.05417739  0.07854596  0.11380545
               0.16482331  0.23864234  0.34545298  0.50000000

Gradients computed in Reciprocal space

---------------------------------------------------------------------------------


     Starting wfcs are  213 randomized atomic wfcs

     total cpu time spent up to now is        2.8 secs

     Self-consistent Calculation

     iteration #  1     ecut=    80.00 Ry     beta= 0.70
     Davidson diagonalization with overlap
     ethr =  1.00E-02,  avg # of iterations =  2.0

     Threshold (ethr) on eigenvalues was too large:
     Diagonalizing with lowered threshold

     Davidson diagonalization with overlap
     ethr =  3.65E-04,  avg # of iterations =  4.0

     negative rho (up, down):  2.559E-08 0.000E+00

     total cpu time spent up to now is       16.6 secs

     total energy              =   -2205.60400172 Ry
     estimated scf accuracy    <       1.40044296 Ry

     iteration #  2     ecut=    80.00 Ry     beta= 0.70
     Davidson diagonalization with overlap
     ethr =  4.56E-04,  avg # of iterations =  2.0

     total cpu time spent up to now is       19.1 secs

     total energy              =   -2205.45646464 Ry
     estimated scf accuracy    <       0.57287454 Ry

     iteration #  3     ecut=    80.00 Ry     beta= 0.70
     Davidson diagonalization with overlap
     ethr =  1.87E-04,  avg # of iterations =  2.0

     total cpu time spent up to now is       21.6 secs

     total energy              =   -2205.52598939 Ry
     estimated scf accuracy    <       0.10071222 Ry

     iteration #  4     ecut=    80.00 Ry     beta= 0.70
     Davidson diagonalization with overlap
     ethr =  3.28E-05,  avg # of iterations = 13.0

     total cpu time spent up to now is       24.7 secs

     total energy              =   -2205.53441439 Ry
     estimated scf accuracy    <       0.03049602 Ry

     iteration #  5     ecut=    80.00 Ry     beta= 0.70
     Davidson diagonalization with overlap
     ethr =  9.93E-06,  avg # of iterations =  2.0

     total cpu time spent up to now is       26.9 secs

     total energy              =   -2205.53482996 Ry
     estimated scf accuracy    <       0.01933615 Ry

     iteration #  6     ecut=    80.00 Ry     beta= 0.70
     Davidson diagonalization with overlap
     ethr =  6.30E-06,  avg # of iterations =  2.0

     total cpu time spent up to now is       29.2 secs

     total energy              =   -2205.53376157 Ry
     estimated scf accuracy    <       0.01307308 Ry

     iteration #  7     ecut=    80.00 Ry     beta= 0.70
     Davidson diagonalization with overlap
     ethr =  4.26E-06,  avg # of iterations =  1.0

     negative rho (up, down):  5.587E-05 0.000E+00

     total cpu time spent up to now is       35.0 secs

     total energy              =   -2205.53165329 Ry
     estimated scf accuracy    <       0.00783405 Ry

     iteration #  8     ecut=    80.00 Ry     beta= 0.70
     Davidson diagonalization with overlap
     c_bands:  1 eigenvalues not converged
     ethr =  2.55E-06,  avg # of iterations = 20.0

     negative rho (up, down):  9.707E-03 0.000E+00

     total cpu time spent up to now is       40.4 secs

     total energy              =   -2205.53172789 Ry
     estimated scf accuracy    <       0.00348453 Ry

     iteration #  9     ecut=    80.00 Ry     beta= 0.70
     Davidson diagonalization with overlap
     ethr =  1.14E-06,  avg # of iterations =  9.0

     negative rho (up, down):  3.130E-02 0.000E+00

     total cpu time spent up to now is       45.3 secs

     total energy              =   -2205.53157258 Ry
     estimated scf accuracy    <       0.00221838 Ry

     iteration # 10     ecut=    80.00 Ry     beta= 0.70
     Davidson diagonalization with overlap
     ethr =  7.23E-07,  avg # of iterations =  2.0

     negative rho (up, down):  2.835E-02 0.000E+00

     total cpu time spent up to now is       49.6 secs

     total energy              =   -2205.53164237 Ry
     estimated scf accuracy    <       0.00076803 Ry

     iteration # 11     ecut=    80.00 Ry     beta= 0.70
     Davidson diagonalization with overlap
     ethr =  2.50E-07,  avg # of iterations =  5.0

     negative rho (up, down):  1.229E-02 0.000E+00

     total cpu time spent up to now is       55.9 secs

     total energy              =   -2205.53167734 Ry
     estimated scf accuracy    <       0.00025575 Ry

     iteration # 12     ecut=    80.00 Ry     beta= 0.70
     Davidson diagonalization with overlap
     ethr =  8.33E-08,  avg # of iterations =  2.0

     negative rho (up, down):  2.451E-03 0.000E+00

     total cpu time spent up to now is       63.3 secs

     total energy              =   -2205.53173038 Ry
     estimated scf accuracy    <       0.00004030 Ry

     iteration # 13     ecut=    80.00 Ry     beta= 0.70
     Davidson diagonalization with overlap
     ethr =  1.31E-08,  avg # of iterations =  6.0

     negative rho (up, down):  1.102E-03 0.000E+00

     total cpu time spent up to now is       75.2 secs

     total energy              =   -2205.53174967 Ry
     estimated scf accuracy    <       0.00000694 Ry

     iteration # 14     ecut=    80.00 Ry     beta= 0.70
     Davidson diagonalization with overlap
     ethr =  2.26E-09,  avg # of iterations =  3.0

     negative rho (up, down):  1.374E-04 0.000E+00

     total cpu time spent up to now is       77.3 secs

     End of self-consistent calculation

          k = 0.0000 0.0000 0.0000 (105382 PWs)   bands (ev):

   -62.8756 -62.8597 -62.8514 -62.8478 -62.8366 -62.8179 -62.8156 -62.8027
   -62.7849 -62.7265 -62.6840 -62.6644 -37.2100 -37.1476 -37.1408 -37.1284
   -37.1171 -37.0867 -37.0810 -37.0588 -37.0572 -37.0517 -37.0393 -37.0352
   -37.0326 -37.0260 -37.0150 -37.0104 -36.9984 -36.9972 -36.9899 -36.9762
   -36.9711 -36.9418 -36.9152 -36.9001 -36.8897 -36.8797 -36.8658 -36.8594
   -36.8555 -36.8491 -36.8304 -36.8213 -36.8163 -36.7979 -36.6752 -36.6470
   -16.0716 -15.4869 -15.1630 -15.0427 -14.8959 -14.8680 -14.6676 -14.5569
   -14.4608 -14.4186 -14.3794 -14.3183 -14.2988 -14.2724 -14.1876 -14.1354
   -14.0990 -14.0905 -14.0110 -13.8833 -13.8323 -13.8134 -13.7810  -8.6441
    -7.6250  -7.4501  -7.2972  -7.2722  -7.2066  -7.1671  -7.1454  -7.0553
    -6.8383  -6.8097  -6.7423  -6.6564  -6.5656  -6.4996  -6.4205  -6.3970
    -6.2800  -6.2444  -6.0813  -6.0121  -5.9272  -5.8839  -5.8442  -5.7999
    -5.7388  -5.7212  -5.6805  -5.6528  -5.6069  -5.5579  -5.5293  -5.4618
    -5.4247  -5.4032  -5.1574  -5.1390  -5.0432  -5.0203  -4.9682  -4.9327
    -4.9118  -4.8223  -4.7063  -4.5269  -4.3623  -4.3217  -4.2834  -4.2103
    -4.1866  -4.0301  -3.9912  -3.8568  -3.8399  -3.7802  -3.7419  -3.6914
    -3.6375  -3.5863  -3.5266  -3.5022  -3.4794  -3.4502  -3.4241  -3.3926
    -3.3443  -3.1848  -3.1652  -2.8966  -2.8620  -2.7848  -2.7712  -2.7235
    -2.7043  -2.6642  -2.6434  -2.6132  -2.5550  -2.2562  -2.0945  -1.9805
    -1.9179  -0.9101  -0.7703  -0.5883  -0.1602  -0.1175  -0.0677  -0.0361
     0.0544   0.1212   0.1747   0.2505   0.2912   0.3235   0.4027   0.4239
     0.4904   0.5409   0.5588   0.6132   0.6324   0.6807   0.7084   0.7558
     0.8032   0.8335   0.8684   0.9156   0.9342   1.0089   1.0699   1.2303
     1.3870

     the Fermi energy is    -0.9236 ev

!    total energy              =   -2205.53175085 Ry
     estimated scf accuracy    <       0.00000095 Ry
     smearing contrib. (-TS)   =      -0.00718470 Ry
     internal energy E=F+TS    =   -2205.52456615 Ry

     The total energy is F=E-TS. E is the sum of the following terms:
     one-electron contribution =  -18053.27791891 Ry
     hartree contribution      =    9013.50765253 Ry
     xc contribution           =    -385.30127066 Ry
     ewald contribution        =    7219.54697088 Ry

     convergence has been achieved in  14 iterations

     negative rho (up, down):  1.374E-04 0.000E+00

     Forces acting on atoms (cartesian axes, Ry/au):

     atom    1 type  1   force =     0.01976165   -0.03238824   -0.00782176
     atom    2 type  2   force =    -0.01427809    0.01365605    0.00125392
     atom    3 type  2   force =    -0.01529542    0.01022067   -0.00344527
     atom    4 type  1   force =     0.02324940   -0.00412468   -0.04170552
     atom    5 type  2   force =     0.00666528    0.04258300    0.04460599
     atom    6 type  2   force =     0.00122589    0.01023654   -0.00164564
     atom    7 type  1   force =     0.00927680   -0.01817383   -0.01358386
     atom    8 type  2   force =    -0.01589876   -0.00863136    0.03549890
     atom    9 type  2   force =     0.01162293    0.00579287    0.01064937
     atom   10 type  1   force =    -0.00986863    0.00262703   -0.02623743
     atom   11 type  2   force =     0.00569491   -0.00024121   -0.00822428
     atom   12 type  2   force =    -0.00107369    0.00576853    0.00523846
     atom   13 type  1   force =     0.00729877    0.00849068   -0.00577726
     atom   14 type  2   force =     0.00652125   -0.00224327    0.01272078
     atom   15 type  2   force =    -0.00905297    0.00214849   -0.00898946
     atom   16 type  1   force =     0.00578118    0.00787554    0.00188346
     atom   17 type  2   force =     0.00311825   -0.00054320    0.00024579
     atom   18 type  2   force =    -0.00853992   -0.00752152    0.01029226
     atom   19 type  1   force =     0.00112149   -0.00216250   -0.00590325
     atom   20 type  2   force =     0.00384365   -0.00417969    0.00253850
     atom   21 type  1   force =    -0.00845605    0.00133773   -0.00019453
     atom   22 type  2   force =    -0.00342142   -0.00203117   -0.00055993
     atom   23 type  2   force =    -0.00112797    0.00188778    0.00942172
     atom   24 type  1   force =    -0.01260933   -0.00247642   -0.02247988
     atom   25 type  2   force =     0.01748590    0.01838495    0.00730193
     atom   26 type  2   force =    -0.01136631   -0.00136853   -0.00313684
     atom   27 type  1   force =    -0.00424470    0.00183488    0.00673622
     atom   28 type  2   force =     0.00161648   -0.00137284   -0.00565742
     atom   29 type  2   force =     0.00266696    0.00049165   -0.00332511
     atom   30 type  1   force =     0.00429328    0.00921729   -0.00582063
     atom   31 type  2   force =     0.00300915    0.00051016    0.01704504
     atom   32 type  2   force =    -0.01091460    0.00483982    0.00766674
     atom   33 type  1   force =     0.01396837   -0.00421723   -0.00954736
     atom   34 type  2   force =     0.00377614   -0.04139794   -0.00955725
     atom   35 type  2   force =    -0.00784833    0.00658955    0.01397988
     atom   36 type  3   force =    -0.01800154   -0.02141958   -0.00346626
     The non-local contrib.  to forces
     atom    1 type  1   force =     0.00179417    0.02457481   -0.02797257
     atom    2 type  2   force =    -0.00841207   -0.00035015   -0.27096154
     atom    3 type  2   force =    -0.02021454   -0.00026677    0.27148018
     atom    4 type  1   force =     0.00134433    0.00499385    0.00067945
     atom    5 type  2   force =     0.13397968    0.13958146   -0.06499624
     atom    6 type  2   force =     0.00130482    0.01251823    0.26436770
     atom    7 type  1   force =    -0.02587520    0.00327766   -0.01324575
     atom    8 type  2   force =    -0.01544591   -0.07215854   -0.14701725
     atom    9 type  2   force =     0.00858056   -0.01164282    0.27885364
     atom   10 type  1   force =     0.00183754    0.00038554   -0.00277300
     atom   11 type  2   force =     0.01349439    0.00436429   -0.25844357
     atom   12 type  2   force =    -0.01288834   -0.01556374    0.26349115
     atom   13 type  1   force =    -0.00451197    0.01547888   -0.00714544
     atom   14 type  2   force =     0.00802347   -0.01069516   -0.26074576
     atom   15 type  2   force =    -0.01159258   -0.00564533    0.26135996
     atom   16 type  1   force =     0.00595166    0.03476866   -0.01699505
     atom   17 type  2   force =    -0.00182000   -0.02839392   -0.24770918
     atom   18 type  2   force =    -0.00914420   -0.00254855    0.27255021
     atom   19 type  1   force =     0.01693424   -0.00077173   -0.00907906
     atom   20 type  2   force =     0.00322346   -0.02330214    0.26509807
     atom   21 type  1   force =     0.00052483    0.02335245    0.00487328
     atom   22 type  2   force =    -0.00825105    0.00545407   -0.25617359
     atom   23 type  2   force =     0.00607763   -0.01439870    0.26821801
     atom   24 type  1   force =     0.00923755    0.01170133   -0.01144612
     atom   25 type  2   force =     0.01208304    0.00788463   -0.25953931
     atom   26 type  2   force =    -0.00281593   -0.01231253    0.26379451
     atom   27 type  1   force =     0.00182596    0.01033426    0.00897615
     atom   28 type  2   force =    -0.00102642   -0.02339687   -0.26352236
     atom   29 type  2   force =     0.00626936    0.00296615    0.26586353
     atom   30 type  1   force =     0.00519679    0.02149394    0.00141148
     atom   31 type  2   force =    -0.00689144    0.00101359   -0.25097130
     atom   32 type  2   force =    -0.00766572   -0.00660218    0.27606824
     atom   33 type  1   force =    -0.00363674    0.00933398    0.00599949
     atom   34 type  2   force =     0.00061729   -0.03466766   -0.26997746
     atom   35 type  2   force =    -0.00118401   -0.01235062    0.27137006
     atom   36 type  3   force =    -0.01051972   -0.01237785   -0.01669410
     The ionic contribution  to forces
     atom    1 type  1   force =     0.30629794   -0.09705479    5.51905988
     atom    2 type  2   force =    -0.63286239    0.27805384   39.27817830
     atom    3 type  2   force =    -0.15398499   -0.02117840  -36.09982105
     atom    4 type  1   force =     0.42102250    0.41543173   -0.35043050
     atom    5 type  2   force =    -1.63401826    0.60262439   38.16848353
     atom    6 type  2   force =     0.32073028   -0.54746878  -38.12755036
     atom    7 type  1   force =    -2.74635412   -2.39969109    2.25316864
     atom    8 type  2   force =    -0.62430547    0.77864974   36.97562471
     atom    9 type  2   force =     0.36317894    0.01319426  -38.10073036
     atom   10 type  1   force =    -1.06943706   -0.26165081    5.65349533
     atom   11 type  2   force =    -0.59330498   -1.48483562   39.13619911
     atom   12 type  2   force =     0.43491659    0.72449909  -37.86457753
     atom   13 type  1   force =     0.42618502    0.86796444    2.83796451
     atom   14 type  2   force =     0.00990632   -0.08689599   38.52268064
     atom   15 type  2   force =     0.14052674   -0.09249965  -36.80868188
     atom   16 type  1   force =    -0.38021110    3.88937199    0.13223815
     atom   17 type  2   force =     0.72580038    1.44280030   37.91886805
     atom   18 type  2   force =    -0.17887459   -0.66584469  -38.58826190
     atom   19 type  1   force =     2.64452621   -2.32083470    0.60638706
     atom   20 type  2   force =     0.19115097   -0.16390827  -38.52986770
     atom   21 type  1   force =    -0.01371872    0.08926230    1.17438493
     atom   22 type  2   force =     0.43541804   -1.66889351   38.44319146
     atom   23 type  2   force =    -0.09360173    0.68355096  -38.28084969
     atom   24 type  1   force =    -0.41926718    0.93823262    5.76242613
     atom   25 type  2   force =     0.67820255    0.23532332   39.28180555
     atom   26 type  2   force =    -0.28092689    0.04399501  -37.32567807
     atom   27 type  1   force =     0.14339771    0.37817766   -2.35963716
     atom   28 type  2   force =     0.37897429    0.82486793   38.11507587
     atom   29 type  2   force =    -0.22216076   -0.46096894  -37.32564846
     atom   30 type  1   force =    -0.15588624   -0.67571137   -0.18431268
     atom   31 type  2   force =     1.29618538    0.00935739   37.31523642
     atom   32 type  2   force =    -0.46450303    0.01639000  -38.65559541
     atom   33 type  1   force =     0.81813820   -0.83043693    2.09622715
     atom   34 type  2   force =     0.28328294   -1.37213950   39.36195675
     atom   35 type  2   force =    -0.28511037    0.50256727  -37.81512712
     atom   36 type  3   force =    -0.06931311    0.41569880    7.86411770
     The local contribution  to forces
     atom    1 type  1   force =    -0.28832715    0.03999006   -5.49778657
     atom    2 type  2   force =     0.62680706   -0.26402123  -39.02643966
     atom    3 type  2   force =     0.15796917    0.03178520   35.84630860
     atom    4 type  1   force =    -0.39910599   -0.42469051    0.30890600
     atom    5 type  2   force =     1.51542616   -0.69069181  -38.06792558
     atom    6 type  2   force =    -0.32088159    0.54635114   37.88291010
     atom    7 type  1   force =     2.78151346    2.37853450   -2.25262501
     atom    8 type  2   force =     0.62250630   -0.72003150  -36.80729711
     atom    9 type  2   force =    -0.35990436    0.00352831   37.85400252
     atom   10 type  1   force =     1.05774294    0.26379998   -5.67568969
     atom   11 type  2   force =     0.58620312    1.48079692  -38.90625412
     atom   12 type  2   force =    -0.42429945   -0.70446840   37.62760964
     atom   13 type  1   force =    -0.41427217   -0.87504744   -2.83536763
     atom   14 type  2   force =    -0.01092923    0.09538177  -38.26944098
     atom   15 type  2   force =    -0.13861830    0.09993460   36.55939333
     atom   16 type  1   force =     0.38005120   -3.91655533   -0.11245610
     atom   17 type  2   force =    -0.72100700   -1.41656991  -37.69077005
     atom   18 type  2   force =     0.17909424    0.66139914   38.34732961
     atom   19 type  1   force =    -2.66041924    2.31993220   -0.60238437
     atom   20 type  2   force =    -0.19062465    0.18228571   38.28886808
     atom   21 type  1   force =     0.00456910   -0.11148629   -1.17831697
     atom   22 type  2   force =    -0.43088880    1.66198420  -38.20773252
     atom   23 type  2   force =     0.08688285   -0.66862391   38.04350318
     atom   24 type  1   force =     0.39728204   -0.95241870   -5.77221579
     atom   25 type  2   force =    -0.67259751   -0.22434018  -39.03527251
     atom   26 type  2   force =     0.27252568   -0.03376826   37.08009662
     atom   27 type  1   force =    -0.14949289   -0.38664109    2.35834752
     atom   28 type  2   force =    -0.37673239   -0.80456008  -37.87730150
     atom   29 type  2   force =     0.21905675    0.45914282   37.07764413
     atom   30 type  1   force =     0.15510011    0.66357928    0.17812308
     atom   31 type  2   force =    -1.28675845   -0.00980624  -37.06736363
     atom   32 type  2   force =     0.46120495   -0.00533468   38.40875722
     atom   33 type  1   force =    -0.80038414    0.81658450   -2.11056439
     atom   34 type  2   force =    -0.28046278    1.36439810  -39.12218592
     atom   35 type  2   force =     0.27860998   -0.48473085   37.57931623
     atom   36 type  3   force =     0.06184527   -0.42475276   -7.85083728
     The core correction contribution to forces
     atom    1 type  1   force =     0.00000000    0.00000000    0.00000000
     atom    2 type  2   force =     0.00020258   -0.00009799    0.02074145
     atom    3 type  2   force =     0.00091923   -0.00012225   -0.02093863
     atom    4 type  1   force =     0.00000000    0.00000000    0.00000000
     atom    5 type  2   force =    -0.00872409   -0.00907118    0.00913867
     atom    6 type  2   force =     0.00011521   -0.00116349   -0.02094184
     atom    7 type  1   force =     0.00000000    0.00000000    0.00000000
     atom    8 type  2   force =     0.00142627    0.00502301    0.01434202
     atom    9 type  2   force =    -0.00020951    0.00066601   -0.02110473
     atom   10 type  1   force =     0.00000000    0.00000000    0.00000000
     atom   11 type  2   force =    -0.00067859   -0.00044788    0.02055408
     atom   12 type  2   force =     0.00116720    0.00127484   -0.02084361
     atom   13 type  1   force =     0.00000000    0.00000000    0.00000000
     atom   14 type  2   force =    -0.00049541   -0.00006382    0.02052611
     atom   15 type  2   force =     0.00062967    0.00033596   -0.02059397
     atom   16 type  1   force =     0.00000000    0.00000000    0.00000000
     atom   17 type  2   force =     0.00011471    0.00151034    0.02011494
     atom   18 type  2   force =     0.00038141   -0.00050108   -0.02096294
     atom   19 type  1   force =     0.00000000    0.00000000    0.00000000
     atom   20 type  2   force =    -0.00004245    0.00088383   -0.02115696
     atom   21 type  1   force =     0.00000000    0.00000000    0.00000000
     atom   22 type  2   force =     0.00024111   -0.00057853    0.02035810
     atom   23 type  2   force =    -0.00050868    0.00118431   -0.02088674
     atom   24 type  1   force =     0.00000000    0.00000000    0.00000000
     atom   25 type  2   force =    -0.00021375   -0.00057122    0.02063836
     atom   26 type  2   force =    -0.00012984    0.00066980   -0.02088320
     atom   27 type  1   force =     0.00000000    0.00000000    0.00000000
     atom   28 type  2   force =     0.00037816    0.00161898    0.02031282
     atom   29 type  2   force =    -0.00055016   -0.00061448   -0.02071836
     atom   30 type  1   force =     0.00000000    0.00000000    0.00000000
     atom   31 type  2   force =     0.00049707    0.00007476    0.02036064
     atom   32 type  2   force =     0.00015980    0.00047360   -0.02113232
     atom   33 type  1   force =     0.00000000    0.00000000    0.00000000
     atom   34 type  2   force =     0.00035671    0.00107574    0.02094443
     atom   35 type  2   force =    -0.00012514    0.00106386   -0.02110290
     atom   36 type  3   force =     0.00000000    0.00000000    0.00000000
     The Hubbard contrib.    to forces
     atom    1 type  1   force =     0.00000000    0.00000000    0.00000000
     atom    2 type  2   force =     0.00000000    0.00000000    0.00000000
     atom    3 type  2   force =     0.00000000    0.00000000    0.00000000
     atom    4 type  1   force =     0.00000000    0.00000000    0.00000000
     atom    5 type  2   force =     0.00000000    0.00000000    0.00000000
     atom    6 type  2   force =     0.00000000    0.00000000    0.00000000
     atom    7 type  1   force =     0.00000000    0.00000000    0.00000000
     atom    8 type  2   force =     0.00000000    0.00000000    0.00000000
     atom    9 type  2   force =     0.00000000    0.00000000    0.00000000
     atom   10 type  1   force =     0.00000000    0.00000000    0.00000000
     atom   11 type  2   force =     0.00000000    0.00000000    0.00000000
     atom   12 type  2   force =     0.00000000    0.00000000    0.00000000
     atom   13 type  1   force =     0.00000000    0.00000000    0.00000000
     atom   14 type  2   force =     0.00000000    0.00000000    0.00000000
     atom   15 type  2   force =     0.00000000    0.00000000    0.00000000
     atom   16 type  1   force =     0.00000000    0.00000000    0.00000000
     atom   17 type  2   force =     0.00000000    0.00000000    0.00000000
     atom   18 type  2   force =     0.00000000    0.00000000    0.00000000
     atom   19 type  1   force =     0.00000000    0.00000000    0.00000000
     atom   20 type  2   force =     0.00000000    0.00000000    0.00000000
     atom   21 type  1   force =     0.00000000    0.00000000    0.00000000
     atom   22 type  2   force =     0.00000000    0.00000000    0.00000000
     atom   23 type  2   force =     0.00000000    0.00000000    0.00000000
     atom   24 type  1   force =     0.00000000    0.00000000    0.00000000
     atom   25 type  2   force =     0.00000000    0.00000000    0.00000000
     atom   26 type  2   force =     0.00000000    0.00000000    0.00000000
     atom   27 type  1   force =     0.00000000    0.00000000    0.00000000
     atom   28 type  2   force =     0.00000000    0.00000000    0.00000000
     atom   29 type  2   force =     0.00000000    0.00000000    0.00000000
     atom   30 type  1   force =     0.00000000    0.00000000    0.00000000
     atom   31 type  2   force =     0.00000000    0.00000000    0.00000000
     atom   32 type  2   force =     0.00000000    0.00000000    0.00000000
     atom   33 type  1   force =     0.00000000    0.00000000    0.00000000
     atom   34 type  2   force =     0.00000000    0.00000000    0.00000000
     atom   35 type  2   force =     0.00000000    0.00000000    0.00000000
     atom   36 type  3   force =     0.00000000    0.00000000    0.00000000
     The SCF correction term to forces
     atom    1 type  1   force =    -0.00000448    0.00009617   -0.00110176
     atom    2 type  2   force =    -0.00001445    0.00006606   -0.00024388
     atom    3 type  2   force =     0.00001454   -0.00000262   -0.00045362
     atom    4 type  1   force =    -0.00001262    0.00013474   -0.00083973
     atom    5 type  2   force =     0.00000063    0.00013464   -0.00007365
     atom    6 type  2   force =    -0.00004401   -0.00000606   -0.00041049
     atom    7 type  1   force =    -0.00000852   -0.00030041   -0.00086100
     atom    8 type  2   force =    -0.00008112   -0.00011959   -0.00013272
     atom    9 type  2   force =    -0.00002389    0.00004159   -0.00035095
     atom   10 type  1   force =    -0.00001322    0.00008681   -0.00124934
     atom   11 type  2   force =    -0.00002021   -0.00012443   -0.00025904
     atom   12 type  2   force =     0.00002913    0.00002122   -0.00042045
     atom   13 type  1   force =    -0.00010329    0.00008930   -0.00120795
     atom   14 type  2   force =     0.00001492    0.00002442   -0.00027848
     atom   15 type  2   force =     0.00000032    0.00001741   -0.00044616
     atom   16 type  1   force =    -0.00001176    0.00028471   -0.00088280
     atom   17 type  2   force =     0.00002898    0.00010447   -0.00023723
     atom   18 type  2   force =     0.00000203   -0.00003186   -0.00034197
     atom   19 type  1   force =     0.00007911   -0.00049378   -0.00080614
     atom   20 type  2   force =     0.00013515   -0.00014433   -0.00038225
     atom   21 type  1   force =     0.00016757    0.00020375   -0.00111503
     atom   22 type  2   force =     0.00005810   -0.00000292   -0.00018264
     atom   23 type  2   force =     0.00002078    0.00016961   -0.00054230
     atom   24 type  1   force =     0.00013708    0.00000283   -0.00122336
     atom   25 type  2   force =     0.00001039    0.00008290   -0.00030942
     atom   26 type  2   force =    -0.00002050    0.00004193   -0.00044596
     atom   27 type  1   force =     0.00002334   -0.00004145   -0.00092956
     atom   28 type  2   force =     0.00002166    0.00009171   -0.00020151
     atom   29 type  2   force =     0.00005060   -0.00003942   -0.00044520
     atom   30 type  1   force =    -0.00011855   -0.00015007   -0.00102177
     atom   31 type  2   force =    -0.00002458   -0.00013484   -0.00019636
     atom   32 type  2   force =    -0.00011178   -0.00009243   -0.00041025
     atom   33 type  1   force =    -0.00015012    0.00029572   -0.00118887
     atom   34 type  2   force =    -0.00001919   -0.00007013   -0.00027431
     atom   35 type  2   force =    -0.00003996    0.00003439   -0.00045566
     atom   36 type  3   force =    -0.00001515    0.00000671   -0.00003184

     Total force =     0.136203     Total SCF correction =     0.004108

     BFGS Geometry Optimization
     Energy error            =      0.0E+00 Ry
     Gradient error          =      4.5E-02 Ry/Bohr

     number of scf cycles    =   1
     number of bfgs steps    =   0

     energy             new  =   -2205.5317508521 Ry

     new trust radius        =       0.0620276756 bohr
     new conv_thr            =       0.0000010000 Ry


ATOMIC_POSITIONS (angstrom)
Mo            6.5850058251        1.7706671109        2.8195039333
S             8.1691536967        0.8169304934        4.4352018964
S             8.1851390988        0.8166502911        1.2760602702
Mo            8.1074656171        4.4928742574        2.6957487815
S             6.5034363720        3.7449454433        4.3702651215
S             6.5539985103        3.5171545008        1.1204093944
Mo            6.4948907667        7.2088201074        2.6646962143
S             8.0733144688        6.3393034710        4.2612467736
S             8.0870682354        6.3077677688        1.0894984017
Mo            8.1553967941        9.9035705763        2.8295775091
S             6.4981812121        8.9427991733        4.3787534302
S             6.6173790263        9.0517637879        1.1426793781
Mo            3.4255220037        1.7514489254        2.7734139667
S             4.9786163885        0.8157541193        4.3572646411
S             5.0530431262        0.8473990423        1.2219014432
Mo            4.9828159506        4.5173455595        2.6338812357
S             3.4294917698        3.6713122370        4.2798396450
S             3.4334014507        3.5442484797        1.0637981132
Mo            3.4544552073        7.2151801908        2.6275529948
S             4.9852681636        6.3247204878        1.0385970456
Mo            5.0077891722        9.9023079456        2.7432980215
S             3.4691475794        8.9426764179        4.3252950080
S             3.4078322688        9.0659889528        1.1010540588
Mo            0.2894179158        1.7461990670        2.8375488663
S             1.8597153538        0.8024229022        4.4020734520
S             1.8547852427        0.8537017253        1.2077409116
Mo            1.8584451108        4.4966377394        2.6637620338
S             0.2730692551        3.6536723510        4.3345903201
S             0.2326425021        3.5275093944        1.1702583132
Mo            0.2734240581        7.2215236762        2.6986162835
S             1.9038306221        6.3130688017        4.2314639674
S             1.8564624586        6.3129049367        1.0486163469
Mo            1.8517384062        9.9379074934        2.7678940057
S             0.2979111458        9.0680909830        4.4088119864
S             0.2726182412        9.0470127566        1.1577986114
H             7.3457317736        4.8459541327        5.1120352001



     Writing config-only to output data dir ./MoS2-V-O.save/
     NEW-OLD atomic charge density approx. for the potential

     negative rho (up, down):  1.457E-04 0.000E+00

     total cpu time spent up to now is       80.7 secs

     Self-consistent Calculation

     iteration #  1     ecut=    80.00 Ry     beta= 0.70
     Davidson diagonalization with overlap
     ethr =  1.00E-06,  avg # of iterations =  8.0

     negative rho (up, down):  1.244E-04 0.000E+00

     total cpu time spent up to now is       95.3 secs

     total energy              =   -2205.54660569 Ry
     estimated scf accuracy    <       0.00160684 Ry

     iteration #  2     ecut=    80.00 Ry     beta= 0.70
     Davidson diagonalization with overlap
     ethr =  5.23E-07,  avg # of iterations =  2.0

     negative rho (up, down):  1.227E-04 0.000E+00

     total cpu time spent up to now is      112.2 secs

     total energy              =   -2205.54662078 Ry
     estimated scf accuracy    <       0.00032346 Ry

     iteration #  3     ecut=    80.00 Ry     beta= 0.70
     Davidson diagonalization with overlap
     ethr =  1.05E-07,  avg # of iterations =  6.0

     negative rho (up, down):  1.222E-04 0.000E+00

     total cpu time spent up to now is      123.4 secs

     total energy              =   -2205.54666434 Ry
     estimated scf accuracy    <       0.00004682 Ry

     iteration #  4     ecut=    80.00 Ry     beta= 0.70
     Davidson diagonalization with overlap
     ethr =  1.53E-08,  avg # of iterations =  5.0

     negative rho (up, down):  1.182E-04 0.000E+00

     total cpu time spent up to now is      143.1 secs

     total energy              =   -2205.54667391 Ry
     estimated scf accuracy    <       0.00000792 Ry

     iteration #  5     ecut=    80.00 Ry     beta= 0.70
     Davidson diagonalization with overlap
     ethr =  2.58E-09,  avg # of iterations =  5.0

     negative rho (up, down):  1.121E-04 0.000E+00

     total cpu time spent up to now is      157.5 secs

     total energy              =   -2205.54667475 Ry
     estimated scf accuracy    <       0.00000226 Ry

     iteration #  6     ecut=    80.00 Ry     beta= 0.70
     Davidson diagonalization with overlap
     ethr =  7.37E-10,  avg # of iterations =  4.0

     negative rho (up, down):  1.379E-04 0.000E+00

     total cpu time spent up to now is      159.6 secs

     End of self-consistent calculation

          k = 0.0000 0.0000 0.0000 (105382 PWs)   bands (ev):

   -62.8738 -62.8586 -62.8498 -62.8448 -62.8368 -62.8195 -62.8142 -62.7986
   -62.7820 -62.7243 -62.6875 -62.6593 -37.2066 -37.1438 -37.1360 -37.1266
   -37.1106 -37.0885 -37.0782 -37.0574 -37.0538 -37.0479 -37.0387 -37.0317
   -37.0285 -37.0230 -37.0116 -37.0069 -36.9962 -36.9949 -36.9895 -36.9741
   -36.9674 -36.9400 -36.9129 -36.8981 -36.8875 -36.8756 -36.8690 -36.8583
   -36.8560 -36.8471 -36.8272 -36.8207 -36.8115 -36.7975 -36.6740 -36.6449
   -16.0704 -15.5019 -15.1486 -15.0428 -14.8858 -14.8703 -14.6624 -14.5328
   -14.4458 -14.4187 -14.3825 -14.3148 -14.2978 -14.2734 -14.1900 -14.1362
   -14.1048 -14.0866 -14.0121 -13.8705 -13.8263 -13.8108 -13.8031  -8.6561
    -7.6164  -7.4443  -7.2952  -7.2508  -7.2100  -7.1670  -7.1440  -7.0562
    -6.8276  -6.8045  -6.7412  -6.6443  -6.5647  -6.4947  -6.4088  -6.3849
    -6.2696  -6.2413  -6.0985  -5.9997  -5.9109  -5.8634  -5.8344  -5.7999
    -5.7362  -5.7199  -5.6767  -5.6558  -5.6061  -5.5605  -5.5316  -5.4564
    -5.4157  -5.3819  -5.1326  -5.1225  -5.0269  -5.0176  -4.9651  -4.9319
    -4.9121  -4.8266  -4.6999  -4.5222  -4.3631  -4.3138  -4.2859  -4.2143
    -4.1965  -4.0437  -3.9942  -3.8658  -3.8237  -3.7752  -3.7399  -3.6980
    -3.6432  -3.5781  -3.5258  -3.5144  -3.4748  -3.4586  -3.4126  -3.3865
    -3.3511  -3.1837  -3.1800  -2.8964  -2.8443  -2.7717  -2.7658  -2.7233
    -2.6850  -2.6721  -2.6480  -2.6171  -2.5534  -2.2470  -2.0932  -1.9813
    -1.9364  -0.9155  -0.7640  -0.5967  -0.1497  -0.1152  -0.0632  -0.0350
     0.0803   0.1196   0.1685   0.2522   0.3053   0.3182   0.4106   0.4332
     0.5006   0.5476   0.5561   0.6071   0.6380   0.6685   0.7133   0.7512
     0.8002   0.8392   0.8696   0.9103   0.9601   1.0113   1.0725   1.2580
     1.3944

     the Fermi energy is    -0.9266 ev

!    total energy              =   -2205.54667440 Ry
     estimated scf accuracy    <       0.00000096 Ry
     smearing contrib. (-TS)   =      -0.00697358 Ry
     internal energy E=F+TS    =   -2205.53970082 Ry

     The total energy is F=E-TS. E is the sum of the following terms:
     one-electron contribution =  -18049.72096922 Ry
     hartree contribution      =    9011.75380344 Ry
     xc contribution           =    -385.29473634 Ry
     ewald contribution        =    7217.72220131 Ry

     convergence has been achieved in   6 iterations

     negative rho (up, down):  1.379E-04 0.000E+00

     Forces acting on atoms (cartesian axes, Ry/au):

     atom    1 type  1   force =     0.00809335   -0.01365224   -0.00331112
     atom    2 type  2   force =    -0.00903625    0.00762983   -0.00201215
     atom    3 type  2   force =    -0.01296653    0.00616207   -0.01040639
     atom    4 type  1   force =     0.01260417    0.00269033   -0.01374761
     atom    5 type  2   force =     0.00899186    0.03061276    0.03001545
     atom    6 type  2   force =     0.00030440    0.00481192   -0.00153818
     atom    7 type  1   force =     0.00887645   -0.01401609   -0.00454109
     atom    8 type  2   force =    -0.00678686   -0.00726503    0.01773709
     atom    9 type  2   force =     0.01241112    0.00669800    0.00295713
     atom   10 type  1   force =    -0.00302971    0.00454689   -0.00953074
     atom   11 type  2   force =     0.00506749   -0.00169497   -0.01142080
     atom   12 type  2   force =    -0.00313675    0.00355122    0.00087013
     atom   13 type  1   force =     0.00600930    0.00477399   -0.00169494
     atom   14 type  2   force =     0.00572432   -0.00143564    0.00724166
     atom   15 type  2   force =    -0.00667471    0.00091766   -0.00764920
     atom   16 type  1   force =     0.00454557    0.00734314    0.00587800
     atom   17 type  2   force =     0.00363468    0.00019759   -0.00073410
     atom   18 type  2   force =    -0.00585896   -0.00432212    0.00800992
     atom   19 type  1   force =    -0.00103649   -0.00407075   -0.00147164
     atom   20 type  2   force =     0.00302255   -0.00404895   -0.00114867
     atom   21 type  1   force =    -0.00577155    0.00141154    0.00249222
     atom   22 type  2   force =    -0.00247495   -0.00211141   -0.00101470
     atom   23 type  2   force =     0.00008435    0.00107857    0.00435090
     atom   24 type  1   force =    -0.00774436   -0.00232102   -0.00875364
     atom   25 type  2   force =     0.01205555    0.01445331   -0.00037143
     atom   26 type  2   force =    -0.00723521   -0.00106532   -0.00377463
     atom   27 type  1   force =    -0.00217326    0.00161292    0.00761089
     atom   28 type  2   force =    -0.00053511   -0.00214696   -0.00860599
     atom   29 type  2   force =     0.00615618   -0.00048483   -0.00955921
     atom   30 type  1   force =    -0.00043652    0.00132486    0.00527282
     atom   31 type  2   force =     0.00228508    0.00108885    0.01186379
     atom   32 type  2   force =    -0.00853741    0.00434116    0.00517403
     atom   33 type  1   force =     0.00647057   -0.00082280    0.00032461
     atom   34 type  2   force =     0.00170602   -0.03060405   -0.01422989
     atom   35 type  2   force =    -0.00523569    0.00682734    0.00717223
     atom   36 type  3   force =    -0.01937269   -0.02201173   -0.00145473
     The non-local contrib.  to forces
     atom    1 type  1   force =     0.00344769    0.01957911   -0.03053616
     atom    2 type  2   force =    -0.00420272   -0.00502939   -0.27063418
     atom    3 type  2   force =    -0.01729710   -0.00447775    0.26585258
     atom    4 type  1   force =     0.00405854    0.00580754    0.00030031
     atom    5 type  2   force =     0.14431117    0.14312749   -0.07589274
     atom    6 type  2   force =     0.00229407    0.00795789    0.26625614
     atom    7 type  1   force =    -0.02640088    0.00334283   -0.01476645
     atom    8 type  2   force =    -0.00562267   -0.06174748   -0.16240752
     atom    9 type  2   force =     0.00867424   -0.01228450    0.27450266
     atom   10 type  1   force =     0.00064499    0.00004278   -0.00415376
     atom   11 type  2   force =     0.01139877    0.00293038   -0.26100531
     atom   12 type  2   force =    -0.01421772   -0.01786445    0.26171899
     atom   13 type  1   force =    -0.00377995    0.01595478   -0.00787618
     atom   14 type  2   force =     0.00671267   -0.01015957   -0.26336896
     atom   15 type  2   force =    -0.00918352   -0.00695761    0.26189291
     atom   16 type  1   force =     0.00686498    0.03600204   -0.02024038
     atom   17 type  2   force =    -0.00270611   -0.02690718   -0.24855598
     atom   18 type  2   force =    -0.00753869    0.00003753    0.27135415
     atom   19 type  1   force =     0.01760684    0.00103295   -0.00995138
     atom   20 type  2   force =     0.00230090   -0.02260225    0.26316906
     atom   21 type  1   force =    -0.00069113    0.02361761    0.00356167
     atom   22 type  2   force =    -0.00694258    0.00485299   -0.25606857
     atom   23 type  2   force =     0.00675046   -0.01527750    0.26499917
     atom   24 type  1   force =     0.00648607    0.01269274   -0.01147875
     atom   25 type  2   force =     0.00815222    0.00513296   -0.26456861
     atom   26 type  2   force =     0.00031632   -0.01145447    0.26392242
     atom   27 type  1   force =     0.00098624    0.01041452    0.00763833
     atom   28 type  2   force =    -0.00090738   -0.02268474   -0.26435265
     atom   29 type  2   force =     0.00812848    0.00101745    0.26235010
     atom   30 type  1   force =     0.00540041    0.02341518    0.00009247
     atom   31 type  2   force =    -0.00722314    0.00083053   -0.25495148
     atom   32 type  2   force =    -0.00522173   -0.00671024    0.27460895
     atom   33 type  1   force =    -0.00177023    0.00805975    0.00434336
     atom   34 type  2   force =    -0.00110247   -0.02666427   -0.27390912
     atom   35 type  2   force =     0.00031307   -0.01193478    0.26756705
     atom   36 type  3   force =    -0.01312132   -0.01529741   -0.01818248
     The ionic contribution  to forces
     atom    1 type  1   force =    -0.07590993    0.49316897    5.59380572
     atom    2 type  2   force =    -0.47741503    0.18565506   39.36599780
     atom    3 type  2   force =    -0.09866054   -0.05079425  -36.21921222
     atom    4 type  1   force =     0.11881468    0.35487888   -1.04922863
     atom    5 type  2   force =    -1.62986677    0.43344999   38.14205447
     atom    6 type  2   force =     0.17701513   -0.61813562  -38.00494580
     atom    7 type  1   force =    -2.76506413   -2.21828175    2.09862954
     atom    8 type  2   force =    -0.59016492    0.73746277   37.11523425
     atom    9 type  2   force =     0.35761878    0.07267568  -38.08441693
     atom   10 type  1   force =    -0.84149428   -0.29142284    5.39733115
     atom   11 type  2   force =    -0.56999855   -1.50651587   39.05930023
     atom   12 type  2   force =     0.33934878    0.65949070  -37.82311777
     atom   13 type  1   force =     0.44695915    0.83091712    2.84100763
     atom   14 type  2   force =    -0.01205637   -0.01148470   38.57651071
     atom   15 type  2   force =     0.10880405   -0.04597556  -36.82473437
     atom   16 type  1   force =    -0.29844254    3.57735001    0.34007084
     atom   17 type  2   force =     0.75741535    1.41167347   37.90171460
     atom   18 type  2   force =    -0.13472515   -0.61027581  -38.48929420
     atom   19 type  1   force =     2.68679058   -2.37545100    0.54280717
     atom   20 type  2   force =     0.13383028   -0.16789076  -38.54221240
     atom   21 type  1   force =     0.02288823    0.04772623    1.35193023
     atom   22 type  2   force =     0.44613046   -1.66479265   38.49082310
     atom   23 type  2   force =    -0.06117011    0.65471767  -38.27704258
     atom   24 type  1   force =    -0.15924574    0.75333182    5.54492032
     atom   25 type  2   force =     0.55371987    0.19423811   39.24043738
     atom   26 type  2   force =    -0.21880595    0.04781832  -37.26636612
     atom   27 type  1   force =     0.29935693    0.37920924   -2.04037399
     atom   28 type  2   force =     0.31876685    0.76194654   38.11130785
     atom   29 type  2   force =    -0.08282497   -0.48623899  -37.41046593
     atom   30 type  1   force =    -0.23110064   -0.78739724   -0.06656116
     atom   31 type  2   force =     1.29278570    0.01197854   37.41104924
     atom   32 type  2   force =    -0.39973606   -0.02150495  -38.61832704
     atom   33 type  1   force =     0.61580889   -0.56041315    2.19037184
     atom   34 type  2   force =     0.22409603   -1.16291801   39.28335931
     atom   35 type  2   force =    -0.23403354    0.52246924  -37.74760145
     atom   36 type  3   force =    -0.01943452    0.44933482    7.86523721
     The local contribution  to forces
     atom    1 type  1   force =     0.08075361   -0.52713290   -5.56810337
     atom    2 type  2   force =     0.47248514   -0.17310623  -39.11865796
     atom    3 type  2   force =     0.10215524    0.06129321   35.96338763
     atom    4 type  1   force =    -0.10989590   -0.35763193    1.03368187
     atom    5 type  2   force =     1.50401379   -0.53628312  -38.04543543
     atom    6 type  2   force =    -0.17885228    0.61595674   37.75752544
     atom    7 type  1   force =     2.80058582    2.20121484   -2.08984149
     atom    8 type  2   force =     0.58806746   -0.68729579  -36.95053229
     atom    9 type  2   force =    -0.35366145   -0.05428831   37.83350097
     atom   10 type  1   force =     0.83783264    0.29572994   -5.40416757
     atom   11 type  2   force =     0.56426936    1.50230033  -38.83088897
     atom   12 type  2   force =    -0.32936175   -0.63943353   37.58264317
     atom   13 type  1   force =    -0.43728397   -0.84239703   -2.83612689
     atom   14 type  2   force =     0.01151427    0.02011555  -38.32697852
     atom   15 type  2   force =    -0.10678561    0.05330274   36.57535081
     atom   16 type  1   force =     0.29596055   -3.60569741   -0.31543671
     atom   17 type  2   force =    -0.75136479   -1.38606518  -37.67444323
     atom   18 type  2   force =     0.13598973    0.60641911   38.24635285
     atom   19 type  1   force =    -2.70562307    2.37062607   -0.53567512
     atom   20 type  2   force =    -0.13299523    0.18576153   38.29851709
     atom   21 type  1   force =    -0.02787441   -0.07002781   -1.35441999
     atom   22 type  2   force =    -0.44187345    1.65843769  -38.25661471
     atom   23 type  2   force =     0.05503255   -0.63953591   38.03678429
     atom   24 type  1   force =     0.14496348   -0.76856461   -5.54358699
     atom   25 type  2   force =    -0.54972188   -0.18451032  -38.99742787
     atom   26 type  2   force =     0.21143772   -0.03813002   37.01908559
     atom   27 type  1   force =    -0.30273332   -0.38782893    2.03898871
     atom   28 type  2   force =    -0.31863556   -0.74295388  -37.87643048
     atom   29 type  2   force =     0.08134243    0.48527710   37.15877363
     atom   30 type  1   force =     0.22521142    0.76552332    0.07041169
     atom   31 type  2   force =    -1.28388121   -0.01171994  -37.16521810
     atom   32 type  2   force =     0.39627513    0.03222195   38.36959429
     atom   33 type  1   force =    -0.60766489    0.55134410   -2.19576333
     atom   34 type  2   force =    -0.22166682    1.15803672  -39.04525223
     atom   35 type  2   force =     0.22859766   -0.50481992   37.50780147
     atom   36 type  3   force =     0.01319323   -0.45603645   -7.84859480
     The core correction contribution to forces
     atom    1 type  1   force =     0.00000000    0.00000000    0.00000000
     atom    2 type  2   force =     0.00011608    0.00002083    0.02077699
     atom    3 type  2   force =     0.00082835    0.00004485   -0.02083981
     atom    4 type  1   force =     0.00000000    0.00000000    0.00000000
     atom    5 type  2   force =    -0.00936346   -0.00963328    0.00909155
     atom    6 type  2   force =    -0.00003849   -0.00100973   -0.02098409
     atom    7 type  1   force =     0.00000000    0.00000000    0.00000000
     atom    8 type  2   force =     0.00098681    0.00446022    0.01490766
     atom    9 type  2   force =    -0.00017953    0.00075276   -0.02102480
     atom   10 type  1   force =     0.00000000    0.00000000    0.00000000
     atom   11 type  2   force =    -0.00054890   -0.00041188    0.02061910
     atom   12 type  2   force =     0.00113849    0.00133454   -0.02077480
     atom   13 type  1   force =     0.00000000    0.00000000    0.00000000
     atom   14 type  2   force =    -0.00045456   -0.00004039    0.02061688
     atom   15 type  2   force =     0.00051223    0.00040595   -0.02062025
     atom   16 type  1   force =     0.00000000    0.00000000    0.00000000
     atom   17 type  2   force =     0.00016551    0.00143353    0.02015022
     atom   18 type  2   force =     0.00030430   -0.00055967   -0.02092385
     atom   19 type  1   force =     0.00000000    0.00000000    0.00000000
     atom   20 type  2   force =    -0.00004092    0.00085792   -0.02111926
     atom   21 type  1   force =     0.00000000    0.00000000    0.00000000
     atom   22 type  2   force =     0.00017388   -0.00058108    0.02038179
     atom   23 type  2   force =    -0.00050934    0.00119878   -0.02083084
     atom   24 type  1   force =     0.00000000    0.00000000    0.00000000
     atom   25 type  2   force =    -0.00009504   -0.00046387    0.02075368
     atom   26 type  2   force =    -0.00023260    0.00063004   -0.02086547
     atom   27 type  1   force =     0.00000000    0.00000000    0.00000000
     atom   28 type  2   force =     0.00030782    0.00153974    0.02036306
     atom   29 type  2   force =    -0.00048290   -0.00055335   -0.02065995
     atom   30 type  1   force =     0.00000000    0.00000000    0.00000000
     atom   31 type  2   force =     0.00049809    0.00011637    0.02047309
     atom   32 type  2   force =     0.00005384    0.00042984   -0.02109383
     atom   33 type  1   force =     0.00000000    0.00000000    0.00000000
     atom   34 type  2   force =     0.00038096    0.00082550    0.02107441
     atom   35 type  2   force =    -0.00016380    0.00105603   -0.02099699
     atom   36 type  3   force =     0.00000000    0.00000000    0.00000000
     The Hubbard contrib.    to forces
     atom    1 type  1   force =     0.00000000    0.00000000    0.00000000
     atom    2 type  2   force =     0.00000000    0.00000000    0.00000000
     atom    3 type  2   force =     0.00000000    0.00000000    0.00000000
     atom    4 type  1   force =     0.00000000    0.00000000    0.00000000
     atom    5 type  2   force =     0.00000000    0.00000000    0.00000000
     atom    6 type  2   force =     0.00000000    0.00000000    0.00000000
     atom    7 type  1   force =     0.00000000    0.00000000    0.00000000
     atom    8 type  2   force =     0.00000000    0.00000000    0.00000000
     atom    9 type  2   force =     0.00000000    0.00000000    0.00000000
     atom   10 type  1   force =     0.00000000    0.00000000    0.00000000
     atom   11 type  2   force =     0.00000000    0.00000000    0.00000000
     atom   12 type  2   force =     0.00000000    0.00000000    0.00000000
     atom   13 type  1   force =     0.00000000    0.00000000    0.00000000
     atom   14 type  2   force =     0.00000000    0.00000000    0.00000000
     atom   15 type  2   force =     0.00000000    0.00000000    0.00000000
     atom   16 type  1   force =     0.00000000    0.00000000    0.00000000
     atom   17 type  2   force =     0.00000000    0.00000000    0.00000000
     atom   18 type  2   force =     0.00000000    0.00000000    0.00000000
     atom   19 type  1   force =     0.00000000    0.00000000    0.00000000
     atom   20 type  2   force =     0.00000000    0.00000000    0.00000000
     atom   21 type  1   force =     0.00000000    0.00000000    0.00000000
     atom   22 type  2   force =     0.00000000    0.00000000    0.00000000
     atom   23 type  2   force =     0.00000000    0.00000000    0.00000000
     atom   24 type  1   force =     0.00000000    0.00000000    0.00000000
     atom   25 type  2   force =     0.00000000    0.00000000    0.00000000
     atom   26 type  2   force =     0.00000000    0.00000000    0.00000000
     atom   27 type  1   force =     0.00000000    0.00000000    0.00000000
     atom   28 type  2   force =     0.00000000    0.00000000    0.00000000
     atom   29 type  2   force =     0.00000000    0.00000000    0.00000000
     atom   30 type  1   force =     0.00000000    0.00000000    0.00000000
     atom   31 type  2   force =     0.00000000    0.00000000    0.00000000
     atom   32 type  2   force =     0.00000000    0.00000000    0.00000000
     atom   33 type  1   force =     0.00000000    0.00000000    0.00000000
     atom   34 type  2   force =     0.00000000    0.00000000    0.00000000
     atom   35 type  2   force =     0.00000000    0.00000000    0.00000000
     atom   36 type  3   force =     0.00000000    0.00000000    0.00000000
     The SCF correction term to forces
     atom    1 type  1   force =    -0.00019437    0.00072889    0.00149192
     atom    2 type  2   force =    -0.00001606    0.00008588    0.00047442
     atom    3 type  2   force =     0.00001118    0.00009232    0.00037465
     atom    4 type  1   force =    -0.00036950   -0.00036784    0.00146805
     atom    5 type  2   force =    -0.00009922   -0.00005200    0.00016682
     atom    6 type  2   force =    -0.00011037    0.00003896    0.00057935
     atom    7 type  1   force =    -0.00024071   -0.00029569    0.00140653
     atom    8 type  2   force =    -0.00004990   -0.00014844    0.00050422
     atom    9 type  2   force =    -0.00003728   -0.00016131    0.00036445
     atom   10 type  1   force =    -0.00000941    0.00019333    0.00142866
     atom   11 type  2   force =    -0.00004953   -0.00000161    0.00052339
     atom   12 type  2   force =    -0.00004091    0.00002028    0.00036976
     atom   13 type  1   force =     0.00011772    0.00029543    0.00126972
     atom   14 type  2   force =     0.00001197    0.00012980    0.00043078
     atom   15 type  2   force =    -0.00001822    0.00013846    0.00043093
     atom   16 type  1   force =     0.00016623   -0.00031518    0.00145346
     atom   17 type  2   force =     0.00012836    0.00005928    0.00036951
     atom   18 type  2   force =     0.00011450    0.00005304    0.00049019
     atom   19 type  1   force =     0.00019280   -0.00028245    0.00131691
     atom   20 type  2   force =    -0.00006883   -0.00017907    0.00046605
     atom   21 type  1   force =    -0.00009058    0.00009183    0.00138953
     atom   22 type  2   force =     0.00004039   -0.00003204    0.00043291
     atom   23 type  2   force =    -0.00001555   -0.00002815    0.00041008
     atom   24 type  1   force =     0.00005547    0.00021535    0.00136100
     atom   25 type  2   force =     0.00000404    0.00005275    0.00040321
     atom   26 type  2   force =     0.00005295    0.00006712    0.00041818
     atom   27 type  1   force =     0.00022054   -0.00018559    0.00132706
     atom   28 type  2   force =    -0.00006318    0.00000170    0.00047546
     atom   29 type  2   force =    -0.00000321    0.00000928    0.00041216
     atom   30 type  1   force =     0.00005595   -0.00022007    0.00129905
     atom   31 type  2   force =     0.00010930   -0.00012034    0.00048025
     atom   32 type  2   force =     0.00009508   -0.00009911    0.00036088
     atom   33 type  1   force =     0.00010046    0.00018282    0.00134195
     atom   34 type  2   force =     0.00000197    0.00011233    0.00046697
     atom   35 type  2   force =     0.00005457    0.00005309    0.00037136
     atom   36 type  3   force =    -0.00000642   -0.00001637    0.00005456

     Total force =     0.090326     Total SCF correction =     0.005394
     Energy error            =      1.5E-02 Ry
     Gradient error          =      3.1E-02 Ry/Bohr

     number of scf cycles    =   2
     number of bfgs steps    =   1

     energy             old  =   -2205.5317508521 Ry
     energy             new  =   -2205.5466744018 Ry

     CASE: energy            _new < energy            _old

     new trust radius        =       0.0682304431 bohr
     new conv_thr            =       0.0000000306 Ry


ATOMIC_POSITIONS (angstrom)
Mo            6.5926551914        1.7578747185        2.8164052773
S             8.1615254388        0.8235589787        4.4340227278
S             8.1748014197        0.8219089285        1.2687983308
Mo            8.1184964673        4.4941639994        2.6818018133
S             6.5101433717        3.7701100702        4.3952731328
S             6.5543427603        3.5215251900        1.1192028473
Mo            6.5018277018        7.1974534542        2.6601117976
S             8.0669787526        6.3335041563        4.2770957318
S             8.0966095624        6.3128607932        1.0926950816
Mo            8.1522437605        9.9068749807        2.8202220600
S             6.5021881841        8.9416538509        4.3702629903
S             6.6151859672        9.0547800974        1.1438666310
Mo            3.4303375949        1.7555900521        2.7716199962
S             4.9831530663        0.8145451215        4.3635277190
S             5.0475834567        0.8482555644        1.2158069871
Mo            4.9864890619        4.5231077867        2.6379757735
S             3.4322525499        3.6713788107        4.2793846424
S             3.4285395100        3.5405187100        1.0702829517
Mo            3.4539035251        7.2122440078        2.6258914275
S             4.9877105177        6.3215623150        1.0381374612
Mo            5.0029946695        9.9033949510        2.7449177040
S             3.4671155901        8.9410469127        4.3245606684
S             3.4077556944        9.0669209705        1.1050254431
Mo            0.2828365959        1.7443792507        2.8291458405
S             1.8697093244        0.8141024420        4.4026842427
S             1.8486851261        0.8528392801        1.2048857233
Mo            1.8565154812        4.4979157166        2.6695672267
S             0.2729059986        3.6520965536        4.3282557229
S             0.2370121762        3.5272474789        1.1635687796
Mo            0.2736394256        7.2234768223        2.7014092828
S             1.9056891760        6.3138461742        4.2412799031
S             1.8495570659        6.3163330375        1.0529245733
Mo            1.8576394867        9.9368710939        2.7669892524
S             0.2994779392        9.0430709572        4.3983140524
S             0.2682480956        9.0522843681        1.1641634590
H             7.3308550841        4.8289377040        5.1106703222



     Writing config-only to output data dir ./MoS2-V-O.save/
     NEW-OLD atomic charge density approx. for the potential

     negative rho (up, down):  1.478E-04 0.000E+00

     total cpu time spent up to now is      162.9 secs

     Self-consistent Calculation

     iteration #  1     ecut=    80.00 Ry     beta= 0.70
     Davidson diagonalization with overlap
     ethr =  1.00E-06,  avg # of iterations =  8.0

     negative rho (up, down):  1.123E-04 0.000E+00

     total cpu time spent up to now is      180.7 secs

     total energy              =   -2205.55678020 Ry
     estimated scf accuracy    <       0.00124792 Ry

     iteration #  2     ecut=    80.00 Ry     beta= 0.70
     Davidson diagonalization with overlap
     ethr =  4.06E-07,  avg # of iterations =  3.0

     negative rho (up, down):  9.179E-05 0.000E+00

     total cpu time spent up to now is      197.4 secs

     total energy              =   -2205.55679790 Ry
     estimated scf accuracy    <       0.00022083 Ry

     iteration #  3     ecut=    80.00 Ry     beta= 0.70
     Davidson diagonalization with overlap
     ethr =  7.19E-08,  avg # of iterations =  6.0

     negative rho (up, down):  8.393E-05 0.000E+00

     total cpu time spent up to now is      211.8 secs

     total energy              =   -2205.55683272 Ry
     estimated scf accuracy    <       0.00002518 Ry

     iteration #  4     ecut=    80.00 Ry     beta= 0.70
     Davidson diagonalization with overlap
     ethr =  8.20E-09,  avg # of iterations = 10.0

     negative rho (up, down):  8.227E-05 0.000E+00

     total cpu time spent up to now is      230.6 secs

     total energy              =   -2205.55683970 Ry
     estimated scf accuracy    <       0.00000481 Ry

     iteration #  5     ecut=    80.00 Ry     beta= 0.70
     Davidson diagonalization with overlap
     ethr =  1.57E-09,  avg # of iterations =  2.0

     negative rho (up, down):  8.302E-05 0.000E+00

     total cpu time spent up to now is      246.6 secs

     total energy              =   -2205.55683994 Ry
     estimated scf accuracy    <       0.00000125 Ry

     iteration #  6     ecut=    80.00 Ry     beta= 0.70
     Davidson diagonalization with overlap
     ethr =  4.07E-10,  avg # of iterations =  5.0

     negative rho (up, down):  8.694E-05 0.000E+00

     total cpu time spent up to now is      264.3 secs

     total energy              =   -2205.55684010 Ry
     estimated scf accuracy    <       0.00000022 Ry

     iteration #  7     ecut=    80.00 Ry     beta= 0.70
     Davidson diagonalization with overlap
     ethr =  7.25E-11,  avg # of iterations =  4.0

     negative rho (up, down):  9.328E-05 0.000E+00

     total cpu time spent up to now is      278.7 secs

     total energy              =   -2205.55684007 Ry
     estimated scf accuracy    <       0.00000006 Ry

     iteration #  8     ecut=    80.00 Ry     beta= 0.70
     Davidson diagonalization with overlap
     ethr =  1.99E-11,  avg # of iterations =  5.0

     negative rho (up, down):  1.384E-04 0.000E+00

     total cpu time spent up to now is      280.9 secs

     End of self-consistent calculation

          k = 0.0000 0.0000 0.0000 (105382 PWs)   bands (ev):

   -62.8724 -62.8574 -62.8486 -62.8417 -62.8354 -62.8219 -62.8077 -62.7928
   -62.7782 -62.7187 -62.6918 -62.6538 -37.2031 -37.1422 -37.1311 -37.1238
   -37.1046 -37.0880 -37.0757 -37.0562 -37.0506 -37.0436 -37.0374 -37.0281
   -37.0245 -37.0200 -37.0085 -37.0015 -36.9946 -36.9912 -36.9862 -36.9702
   -36.9620 -36.9368 -36.9098 -36.8954 -36.8854 -36.8735 -36.8675 -36.8591
   -36.8515 -36.8430 -36.8233 -36.8190 -36.8065 -36.7955 -36.6705 -36.6416
   -16.0808 -15.5393 -15.1389 -15.0437 -14.8847 -14.8592 -14.6606 -14.5111
   -14.4298 -14.4187 -14.3855 -14.3107 -14.2926 -14.2732 -14.1852 -14.1331
   -14.1066 -14.0817 -14.0085 -13.8703 -13.8212 -13.8127 -13.8006  -8.6987
    -7.6095  -7.4400  -7.2922  -7.2343  -7.2085  -7.1676  -7.1368  -7.0523
    -6.8175  -6.7984  -6.7372  -6.6304  -6.5613  -6.4904  -6.3980  -6.3712
    -6.2595  -6.2420  -6.1214  -5.9891  -5.8953  -5.8513  -5.8218  -5.7989
    -5.7371  -5.7143  -5.6709  -5.6479  -5.6029  -5.5558  -5.5345  -5.4475
    -5.4119  -5.3660  -5.1196  -5.1052  -5.0151  -5.0086  -4.9571  -4.9324
    -4.9115  -4.8279  -4.6925  -4.5181  -4.3673  -4.3072  -4.2874  -4.2157
    -4.2007  -4.0484  -3.9936  -3.8732  -3.8106  -3.7690  -3.7333  -3.7033
    -3.6459  -3.5639  -3.5232  -3.5208  -3.4692  -3.4639  -3.4038  -3.3754
    -3.3531  -3.1924  -3.1817  -2.8947  -2.8290  -2.7654  -2.7597  -2.7239
    -2.6864  -2.6623  -2.6484  -2.6107  -2.5485  -2.2400  -2.0877  -1.9802
    -1.9478  -0.9235  -0.7516  -0.5992  -0.1409  -0.1179  -0.0566  -0.0332
     0.1047   0.1187   0.1563   0.2523   0.3061   0.3248   0.4142   0.4450
     0.5062   0.5535   0.5549   0.6055   0.6450   0.6551   0.7174   0.7514
     0.8029   0.8489   0.8749   0.9077   0.9692   1.0118   1.0787   1.2827
     1.4013

     the Fermi energy is    -0.9311 ev

!    total energy              =   -2205.55683990 Ry
     estimated scf accuracy    <       0.00000002 Ry
     smearing contrib. (-TS)   =      -0.00662862 Ry
     internal energy E=F+TS    =   -2205.55021128 Ry

     The total energy is F=E-TS. E is the sum of the following terms:
     one-electron contribution =  -18046.12741341 Ry
     hartree contribution      =    9009.99259604 Ry
     xc contribution           =    -385.29441777 Ry
     ewald contribution        =    7215.87902387 Ry

     convergence has been achieved in   8 iterations

     negative rho (up, down):  1.384E-04 0.000E+00

     Forces acting on atoms (cartesian axes, Ry/au):

     atom    1 type  1   force =    -0.00105644    0.00019209   -0.00249342
     atom    2 type  2   force =    -0.00444909    0.00288151   -0.00266415
     atom    3 type  2   force =    -0.00960305    0.00288472   -0.01276225
     atom    4 type  1   force =     0.00452637    0.00630325    0.00129709
     atom    5 type  2   force =     0.00569758    0.01631287    0.01769675
     atom    6 type  2   force =    -0.00002462    0.00186466    0.00054976
     atom    7 type  1   force =     0.00813683   -0.00985939   -0.00074002
     atom    8 type  2   force =     0.00163707   -0.00274605    0.00447641
     atom    9 type  2   force =     0.01167707    0.00633753   -0.00187138
     atom   10 type  1   force =     0.00041926    0.00544156   -0.00100390
     atom   11 type  2   force =     0.00443400   -0.00292392   -0.01142247
     atom   12 type  2   force =    -0.00415413    0.00147064   -0.00054136
     atom   13 type  1   force =     0.00412636    0.00152528   -0.00015531
     atom   14 type  2   force =     0.00452370   -0.00049016    0.00337482
     atom   15 type  2   force =    -0.00420849   -0.00014461   -0.00491291
     atom   16 type  1   force =     0.00338558    0.00655390    0.00697535
     atom   17 type  2   force =     0.00395114    0.00076986    0.00012218
     atom   18 type  2   force =    -0.00279196   -0.00063550    0.00657922
     atom   19 type  1   force =    -0.00228597   -0.00509322    0.00040338
     atom   20 type  2   force =     0.00227997   -0.00351643   -0.00235245
     atom   21 type  1   force =    -0.00291963    0.00124110    0.00203617
     atom   22 type  2   force =    -0.00162504   -0.00214543   -0.00032062
     atom   23 type  2   force =     0.00064369    0.00018872    0.00166277
     atom   24 type  1   force =    -0.00441355   -0.00154897   -0.00289535
     atom   25 type  2   force =     0.00695843    0.01025865   -0.00403526
     atom   26 type  2   force =    -0.00321400   -0.00082779   -0.00237012
     atom   27 type  1   force =    -0.00018518    0.00110000    0.00499594
     atom   28 type  2   force =    -0.00180357   -0.00253119   -0.00807586
     atom   29 type  2   force =     0.00751302   -0.00055898   -0.01046558
     atom   30 type  1   force =    -0.00290465   -0.00349266    0.00859511
     atom   31 type  2   force =     0.00178729    0.00061762    0.00857483
     atom   32 type  2   force =    -0.00608155    0.00344323    0.00414129
     atom   33 type  1   force =     0.00096847    0.00124541    0.00388484
     atom   34 type  2   force =     0.00015950   -0.01892576   -0.01313998
     atom   35 type  2   force =    -0.00245454    0.00550979    0.00340509
     atom   36 type  3   force =    -0.01864991   -0.02070230    0.00345138
     The non-local contrib.  to forces
     atom    1 type  1   force =     0.00419274    0.01593830   -0.03263304
     atom    2 type  2   force =    -0.00033193   -0.00888300   -0.26879748
     atom    3 type  2   force =    -0.01368842   -0.00775876    0.26287167
     atom    4 type  1   force =     0.00635450    0.00706488    0.00022448
     atom    5 type  2   force =     0.15120690    0.14724915   -0.08373694
     atom    6 type  2   force =     0.00353671    0.00548536    0.26894747
     atom    7 type  1   force =    -0.02671679    0.00408473   -0.01537573
     atom    8 type  2   force =     0.00527709   -0.04571556   -0.17609915
     atom    9 type  2   force =     0.00731050   -0.01334621    0.27103052
     atom   10 type  1   force =     0.00021287   -0.00015779   -0.00439398
     atom   11 type  2   force =     0.00944140    0.00161482   -0.26168445
     atom   12 type  2   force =    -0.01463553   -0.02022712    0.26200147
     atom   13 type  1   force =    -0.00313324    0.01601752   -0.00791583
     atom   14 type  2   force =     0.00508052   -0.00954930   -0.26482061
     atom   15 type  2   force =    -0.00658999   -0.00803015    0.26319280
     atom   16 type  1   force =     0.00817029    0.03730753   -0.02295956
     atom   17 type  2   force =    -0.00367923   -0.02540838   -0.24831129
     atom   18 type  2   force =    -0.00591101    0.00285061    0.27073798
     atom   19 type  1   force =     0.01832959    0.00320005   -0.01039240
     atom   20 type  2   force =     0.00126759   -0.02123125    0.26246598
     atom   21 type  1   force =    -0.00185840    0.02375530    0.00280183
     atom   22 type  2   force =    -0.00588616    0.00414503   -0.25527188
     atom   23 type  2   force =     0.00694574   -0.01626465    0.26330755
     atom   24 type  1   force =     0.00429465    0.01332431   -0.01047317
     atom   25 type  2   force =     0.00442026    0.00187226   -0.26712053
     atom   26 type  2   force =     0.00345577   -0.01023396    0.26526475
     atom   27 type  1   force =     0.00059467    0.01055830    0.00701720
     atom   28 type  2   force =    -0.00072795   -0.02149928   -0.26351098
     atom   29 type  2   force =     0.00849809   -0.00030712    0.26213404
     atom   30 type  1   force =     0.00490348    0.02515085    0.00002319
     atom   31 type  2   force =    -0.00792286    0.00004487   -0.25764334
     atom   32 type  2   force =    -0.00237222   -0.00709547    0.27378309
     atom   33 type  1   force =    -0.00038760    0.00711406    0.00353059
     atom   34 type  2   force =    -0.00246996   -0.01823506   -0.27434620
     atom   35 type  2   force =     0.00189153   -0.01291981    0.26585619
     atom   36 type  3   force =    -0.01680411   -0.01976880   -0.02037080
     The ionic contribution  to forces
     atom    1 type  1   force =    -0.38684769    0.98600391    5.61633808
     atom    2 type  2   force =    -0.35245353    0.11108935   39.42770920
     atom    3 type  2   force =    -0.04400752   -0.07170185  -36.37492495
     atom    4 type  1   force =    -0.13412717    0.17071360   -1.59968045
     atom    5 type  2   force =    -1.67498225    0.21461367   38.13754451
     atom    6 type  2   force =     0.07158647   -0.66094645  -37.89492450
     atom    7 type  1   force =    -2.87548205   -1.94573784    1.91268121
     atom    8 type  2   force =    -0.57936298    0.73203827   37.27935048
     atom    9 type  2   force =     0.34555388    0.11433522  -38.12192851
     atom   10 type  1   force =    -0.70201301   -0.30036929    5.19544542
     atom   11 type  2   force =    -0.56675817   -1.51310460   38.93207608
     atom   12 type  2   force =     0.25629858    0.59469452  -37.76758577
     atom   13 type  1   force =     0.45451404    0.78662847    2.81183198
     atom   14 type  2   force =    -0.02599655    0.04573978   38.62380895
     atom   15 type  2   force =     0.08933573   -0.01693758  -36.86001710
     atom   16 type  1   force =    -0.24366769    3.27095610    0.58861058
     atom   17 type  2   force =     0.78105865    1.36651365   37.87580939
     atom   18 type  2   force =    -0.08622565   -0.54868182  -38.38188930
     atom   19 type  1   force =     2.77100613   -2.35178740    0.43126199
     atom   20 type  2   force =     0.07987057   -0.15092246  -38.57392924
     atom   21 type  1   force =     0.07433966   -0.01934167    1.52550924
     atom   22 type  2   force =     0.47073020   -1.65888360   38.51446360
     atom   23 type  2   force =    -0.04153838    0.62090734  -38.25965141
     atom   24 type  1   force =     0.03935963    0.60329837    5.33199522
     atom   25 type  2   force =     0.44392603    0.15350852   39.18507185
[...]
     atom   27 type  1   force =    -0.00184336    0.01469799    0.00579789
     atom   28 type  2   force =    -0.00726086   -0.01159231   -0.26142646
     atom   29 type  2   force =    -0.00047744   -0.00658116    0.26661121
     atom   30 type  1   force =     0.00509033    0.02462668    0.00791010
     atom   31 type  2   force =    -0.01244805   -0.00469294   -0.26353242
     atom   32 type  2   force =     0.00568323   -0.01307257    0.27038280
     atom   33 type  1   force =     0.00102229    0.00223617    0.00345541
     atom   34 type  2   force =    -0.00400430   -0.00669485   -0.27173159
     atom   35 type  2   force =     0.00186919   -0.01515591    0.26570096
     atom   36 type  3   force =    -0.01032821   -0.00105239   -0.05990067
     The ionic contribution  to forces
     atom    1 type  1   force =    -0.28778553    0.59221101    3.53391327
     atom    2 type  2   force =    -0.03525808   -0.05900044   39.10504072
     atom    3 type  2   force =     0.02626889   -0.07199615  -37.35413439
     atom    4 type  1   force =    -0.29167391    0.63135815    0.03070924
     atom    5 type  2   force =    -1.24862589    1.17222369   36.12603021
     atom    6 type  2   force =     0.16242864   -0.43038489  -37.80135230
     atom    7 type  1   force =    -2.49125718   -1.72082004    3.35192502
     atom    8 type  2   force =    -1.09984452    0.34186775   38.15327864
     atom    9 type  2   force =     0.12258043    0.13980721  -37.82278811
     atom   10 type  1   force =    -0.62223187   -0.69513998    3.82057871
     atom   11 type  2   force =    -0.45535451   -1.46000682   38.56195569
     atom   12 type  2   force =     0.29555926    0.24080062  -37.56455180
     atom   13 type  1   force =     0.14510895    1.00519508    2.32614452
     atom   14 type  2   force =    -0.11791919   -0.03771013   38.75938292
     atom   15 type  2   force =     0.12212848    0.00886381  -37.48152973
     atom   16 type  1   force =    -0.84016052    3.55461624    0.89864133
     atom   17 type  2   force =     0.80431336    1.33799021   37.88961134
     atom   18 type  2   force =    -0.09706007   -0.26973062  -37.89327755
     atom   19 type  1   force =     2.61808262   -2.93198804    0.77219013
     atom   20 type  2   force =     0.00065407   -0.08442490  -38.62063657
     atom   21 type  1   force =     0.45169203   -0.36536020    1.27626956
     atom   22 type  2   force =     0.44519673   -1.53128204   38.78340240
     atom   23 type  2   force =    -0.12774832    0.43431195  -38.41362603
     atom   24 type  1   force =     0.04763145    0.25642373    2.66931955
     atom   25 type  2   force =     0.21151879    0.09811369   38.86755716
     atom   26 type  2   force =    -0.10021821    0.02208206  -37.42418935
     atom   27 type  1   force =     0.91517448    0.64317207    0.35525321
     atom   28 type  2   force =     0.28018694    0.47825017   38.28426898
     atom   29 type  2   force =     0.02666298   -0.23520980  -37.87291928
     atom   30 type  1   force =    -0.20141714   -0.59184514    1.79514044
     atom   31 type  2   force =     1.44323147    0.02030497   37.95847650
     atom   32 type  2   force =    -0.22420246   -0.11049073  -38.00113245
     atom   33 type  1   force =     0.14254533   -0.24103946    2.79181145
     atom   34 type  2   force =     0.02980963   -0.51966023   38.95323279
     atom   35 type  2   force =    -0.14227041    0.20024026  -37.44223061
     atom   36 type  3   force =     0.09225327    0.17825692    8.62823441
     The local contribution  to forces
     atom    1 type  1   force =     0.29355810   -0.59978869   -3.51877593
     atom    2 type  2   force =     0.04186964    0.06094299  -38.86783879
     atom    3 type  2   force =    -0.02314534    0.08227965   37.10565894
     atom    4 type  1   force =     0.28572452   -0.64827167   -0.02712453
     atom    5 type  2   force =     1.17354372   -1.15994169  -36.37299130
     atom    6 type  2   force =    -0.16404291    0.43439474   37.54648744
     atom    7 type  1   force =     2.52760648    1.72628444   -3.32728934
     atom    8 type  2   force =     1.09499498   -0.33573344  -37.91534667
     atom    9 type  2   force =    -0.12031104   -0.11729754   37.57554268
     atom   10 type  1   force =     0.61631085    0.70110630   -3.82117142
     atom   11 type  2   force =     0.45051818    1.46220835  -38.32237218
     atom   12 type  2   force =    -0.28417591   -0.22593709   37.31921647
     atom   13 type  1   force =    -0.14364153   -1.02766340   -2.31856296
     atom   14 type  2   force =     0.11169554    0.04091110  -38.51972284
     atom   15 type  2   force =    -0.12256950   -0.00039659   37.23890846
     atom   16 type  1   force =     0.84438946   -3.60958760   -0.88199765
     atom   17 type  2   force =    -0.80123435   -1.32250705  -37.66599287
     atom   18 type  2   force =     0.09537260    0.26990121   37.64760780
     atom   19 type  1   force =    -2.63762029    2.93999499   -0.76734683
     atom   20 type  2   force =    -0.00025336    0.09840809   38.37955662
     atom   21 type  1   force =    -0.44453663    0.35254085   -1.27598153
     atom   22 type  2   force =    -0.43856328    1.52439541  -38.54678820
     atom   23 type  2   force =     0.12274648   -0.42298557   38.17617911
     atom   24 type  1   force =    -0.05066978   -0.27140145   -2.66763864
     atom   25 type  2   force =    -0.21298633   -0.09172716  -38.62329196
     atom   26 type  2   force =     0.09733899   -0.01511792   37.17622446
     atom   27 type  1   force =    -0.91323576   -0.65834071   -0.36036733
     atom   28 type  2   force =    -0.27316763   -0.46773047  -38.04281209
     atom   29 type  2   force =    -0.02599514    0.24216115   37.62761872
     atom   30 type  1   force =     0.19574106    0.56683515   -1.80289399
     atom   31 type  2   force =    -1.43361543   -0.01763830  -37.71461463
     atom   32 type  2   force =     0.21877206    0.12256146   37.75222895
     atom   33 type  1   force =    -0.14272347    0.23919264   -2.79502383
     atom   34 type  2   force =    -0.02694251    0.52665453  -38.70384674
     atom   35 type  2   force =     0.14126229   -0.18599909   37.19834344
     atom   36 type  3   force =    -0.08029379   -0.17769744   -8.56842621
     The core correction contribution to forces
     atom    1 type  1   force =     0.00000000    0.00000000    0.00000000
     atom    2 type  2   force =     0.00053298   -0.00015228    0.02029567
     atom    3 type  2   force =     0.00025936    0.00042284   -0.02110542
     atom    4 type  1   force =     0.00000000    0.00000000    0.00000000
     atom    5 type  2   force =    -0.00504101    0.00062671   -0.01009322
     atom    6 type  2   force =     0.00010379   -0.00045207   -0.02124322
     atom    7 type  1   force =     0.00000000    0.00000000    0.00000000
     atom    8 type  2   force =    -0.00007980    0.00085838    0.02017153
     atom    9 type  2   force =     0.00030451    0.00141257   -0.02086448
     atom   10 type  1   force =     0.00000000    0.00000000    0.00000000
     atom   11 type  2   force =    -0.00015973   -0.00012903    0.02043598
     atom   12 type  2   force =     0.00086630    0.00095510   -0.02076950
     atom   13 type  1   force =     0.00000000    0.00000000    0.00000000
     atom   14 type  2   force =    -0.00057727   -0.00045387    0.02046797
     atom   15 type  2   force =    -0.00002014    0.00043418   -0.02078730
     atom   16 type  1   force =     0.00000000    0.00000000    0.00000000
     atom   17 type  2   force =     0.00015565    0.00091394    0.01966000
     atom   18 type  2   force =    -0.00005948   -0.00029908   -0.02074902
     atom   19 type  1   force =     0.00000000    0.00000000    0.00000000
     atom   20 type  2   force =    -0.00010680    0.00072078   -0.02110302
     atom   21 type  1   force =     0.00000000    0.00000000    0.00000000
     atom   22 type  2   force =     0.00008857   -0.00081002    0.02047232
     atom   23 type  2   force =    -0.00052565    0.00099149   -0.02068779
     atom   24 type  1   force =     0.00000000    0.00000000    0.00000000
     atom   25 type  2   force =     0.00010895    0.00017407    0.02068109
     atom   26 type  2   force =    -0.00013585    0.00030693   -0.02095770
     atom   27 type  1   force =     0.00000000    0.00000000    0.00000000
     atom   28 type  2   force =     0.00065718    0.00070916    0.02051695
     atom   29 type  2   force =     0.00012273   -0.00001732   -0.02087219
     atom   30 type  1   force =     0.00000000    0.00000000    0.00000000
     atom   31 type  2   force =     0.00088546    0.00053211    0.02061598
     atom   32 type  2   force =    -0.00041764    0.00072757   -0.02092090
     atom   33 type  1   force =     0.00000000    0.00000000    0.00000000
     atom   34 type  2   force =     0.00032746    0.00021453    0.02110057
     atom   35 type  2   force =    -0.00010189    0.00084757   -0.02091384
     atom   36 type  3   force =     0.00000000    0.00000000    0.00000000
     The Hubbard contrib.    to forces
     atom    1 type  1   force =     0.00000000    0.00000000    0.00000000
     atom    2 type  2   force =     0.00000000    0.00000000    0.00000000
     atom    3 type  2   force =     0.00000000    0.00000000    0.00000000
     atom    4 type  1   force =     0.00000000    0.00000000    0.00000000
     atom    5 type  2   force =     0.00000000    0.00000000    0.00000000
     atom    6 type  2   force =     0.00000000    0.00000000    0.00000000
     atom    7 type  1   force =     0.00000000    0.00000000    0.00000000
     atom    8 type  2   force =     0.00000000    0.00000000    0.00000000
     atom    9 type  2   force =     0.00000000    0.00000000    0.00000000
     atom   10 type  1   force =     0.00000000    0.00000000    0.00000000
     atom   11 type  2   force =     0.00000000    0.00000000    0.00000000
     atom   12 type  2   force =     0.00000000    0.00000000    0.00000000
     atom   13 type  1   force =     0.00000000    0.00000000    0.00000000
     atom   14 type  2   force =     0.00000000    0.00000000    0.00000000
     atom   15 type  2   force =     0.00000000    0.00000000    0.00000000
     atom   16 type  1   force =     0.00000000    0.00000000    0.00000000
     atom   17 type  2   force =     0.00000000    0.00000000    0.00000000
     atom   18 type  2   force =     0.00000000    0.00000000    0.00000000
     atom   19 type  1   force =     0.00000000    0.00000000    0.00000000
     atom   20 type  2   force =     0.00000000    0.00000000    0.00000000
     atom   21 type  1   force =     0.00000000    0.00000000    0.00000000
     atom   22 type  2   force =     0.00000000    0.00000000    0.00000000
     atom   23 type  2   force =     0.00000000    0.00000000    0.00000000
     atom   24 type  1   force =     0.00000000    0.00000000    0.00000000
     atom   25 type  2   force =     0.00000000    0.00000000    0.00000000
     atom   26 type  2   force =     0.00000000    0.00000000    0.00000000
     atom   27 type  1   force =     0.00000000    0.00000000    0.00000000
     atom   28 type  2   force =     0.00000000    0.00000000    0.00000000
     atom   29 type  2   force =     0.00000000    0.00000000    0.00000000
     atom   30 type  1   force =     0.00000000    0.00000000    0.00000000
     atom   31 type  2   force =     0.00000000    0.00000000    0.00000000
     atom   32 type  2   force =     0.00000000    0.00000000    0.00000000
     atom   33 type  1   force =     0.00000000    0.00000000    0.00000000
     atom   34 type  2   force =     0.00000000    0.00000000    0.00000000
     atom   35 type  2   force =     0.00000000    0.00000000    0.00000000
     atom   36 type  3   force =     0.00000000    0.00000000    0.00000000
     The SCF correction term to forces
     atom    1 type  1   force =     0.00000016   -0.00000994   -0.00001635
     atom    2 type  2   force =     0.00000884    0.00000180   -0.00000827
     atom    3 type  2   force =     0.00001499   -0.00001450   -0.00000608
     atom    4 type  1   force =     0.00004027    0.00001139   -0.00005233
     atom    5 type  2   force =     0.00000676    0.00000535   -0.00001365
     atom    6 type  2   force =     0.00000751    0.00002224   -0.00000705
     atom    7 type  1   force =    -0.00000123    0.00001490   -0.00009649
     atom    8 type  2   force =     0.00001218   -0.00000580   -0.00005264
     atom    9 type  2   force =     0.00000326    0.00000415   -0.00000874
     atom   10 type  1   force =     0.00000924   -0.00003134   -0.00006041
     atom   11 type  2   force =     0.00000343    0.00000777   -0.00004184
     atom   12 type  2   force =     0.00000058   -0.00001856   -0.00000859
     atom   13 type  1   force =    -0.00003056    0.00001070   -0.00001876
     atom   14 type  2   force =    -0.00001032    0.00000374   -0.00000651
     atom   15 type  2   force =    -0.00001662   -0.00001151   -0.00000798
     atom   16 type  1   force =    -0.00002770    0.00002572   -0.00006218
     atom   17 type  2   force =    -0.00001585   -0.00001379   -0.00002652
     atom   18 type  2   force =    -0.00001130    0.00000901   -0.00000303
     atom   19 type  1   force =    -0.00001586    0.00000494   -0.00008203
     atom   20 type  2   force =    -0.00000741    0.00001508   -0.00001049
     atom   21 type  1   force =    -0.00001346   -0.00003494   -0.00005953
     atom   22 type  2   force =    -0.00001085    0.00000121   -0.00003919
     atom   23 type  2   force =    -0.00000616   -0.00001766   -0.00001134
     atom   24 type  1   force =     0.00002528    0.00003070   -0.00001731
     atom   25 type  2   force =     0.00000206    0.00000772   -0.00002403
     atom   26 type  2   force =     0.00000244   -0.00000769    0.00000162
     atom   27 type  1   force =    -0.00001744    0.00001337   -0.00003882
     atom   28 type  2   force =     0.00000701   -0.00000496   -0.00003508
     atom   29 type  2   force =     0.00000291    0.00001505    0.00000821
     atom   30 type  1   force =     0.00002901   -0.00000299   -0.00008574
     atom   31 type  2   force =    -0.00000097   -0.00000241   -0.00003996
     atom   32 type  2   force =     0.00000203    0.00001062   -0.00000972
     atom   33 type  1   force =     0.00000123   -0.00001761   -0.00006066
     atom   34 type  2   force =     0.00000621    0.00000405   -0.00003449
     atom   35 type  2   force =     0.00000532   -0.00001293   -0.00001431
     atom   36 type  3   force =    -0.00000019   -0.00000248   -0.00000680

     Total force =     0.006781     Total SCF correction =     0.000266
     Energy error            =      9.5E-05 Ry
     Gradient error          =      2.0E-03 Ry/Bohr

     bfgs converged in  37 scf cycles and  36 bfgs steps
     (criteria: energy <  1.0E-04 Ry, force <  1.0E-02 Ry/Bohr)

     End of BFGS Geometry Optimization

     Final energy             =   -2205.5944340231 Ry

     File ./MoS2-V-O.bfgs deleted, as requested
Begin final coordinates

ATOMIC_POSITIONS (angstrom)
Mo            6.5824342788        1.7623571087        2.7797810546
S             8.1581811128        0.8638771036        4.3863395650
S             8.1550561619        0.8594615628        1.1810055941
Mo            8.1752914039        4.5269755836        2.7061084351
S             6.5607491856        3.6986571740        4.2503566478
S             6.5951181105        3.5710791609        1.1214821236
Mo            6.5099159708        7.1983842893        2.6771037380
S             8.1073723144        6.3433526146        4.3006186143
S             8.1539001787        6.3574707365        1.1084430887
Mo            8.1521883048        9.9609603248        2.7811801906
S             6.5218975798        8.9675956019        4.3294744879
S             6.6017767862        9.0600265584        1.1372193163
Mo            3.4490279117        1.7947911816        2.7495326236
S             4.9921571269        0.8336994866        4.3521977490
S             5.0145384640        0.8726836779        1.1662360051
Mo            5.0375769075        4.5752339009        2.6378802580
S             3.4858962990        3.7134228208        4.2755151782
S             3.4496681709        3.6034241580        1.1024293232
Mo            3.4749088882        7.2735553107        2.6282905878
S             4.9970140797        6.3487032772        1.0338744429
Mo            4.9954521634        9.9420061259        2.7280039835
S             3.4718507449        8.9888569014        4.3231407543
S             3.4035753490        9.1000210464        1.0944342800
Mo            0.2794920714        1.7779865913        2.7687130371
S             1.8810571799        0.8886807955        4.3624125641
S             1.8622512761        0.8862707675        1.1743437218
Mo            1.8737503133        4.5313885582        2.7008317106
S             0.3016310670        3.6467374240        4.3118481657
S             0.2876790042        3.5848418031        1.1299181935
Mo            0.2837038799        7.2522717775        2.7269633581
S             1.9385924242        6.3579019991        4.2774517277
S             1.8516246738        6.3583208894        1.0912117292
Mo            1.8640989650        9.9776980975        2.7584180444
S             0.2922741036        9.0515390526        4.3600522665
S             0.2705105159        9.0883354718        1.1698448480
H             6.7953918218        3.7196663652        5.6080901683
End final coordinates



     Writing all to output data dir ./MoS2-V-O.save/
 
     init_run     :      2.48s CPU      2.67s WALL (       1 calls)
     electrons    :   3447.03s CPU   3782.12s WALL (      37 calls)
     update_pot   :     50.63s CPU     52.78s WALL (      36 calls)
     forces       :     51.41s CPU     55.04s WALL (      37 calls)

     Called by init_run:
     wfcinit      :      0.40s CPU      0.44s WALL (       1 calls)
     potinit      :      1.36s CPU      1.45s WALL (       1 calls)
     hinit0       :      0.17s CPU      0.19s WALL (       1 calls)

     Called by electrons:
     c_bands      :    398.67s CPU    402.97s WALL (     315 calls)
     sum_band     :    104.97s CPU    113.90s WALL (     315 calls)
     v_of_rho     :    135.47s CPU    155.67s WALL (     337 calls)
     newd         :     55.84s CPU     62.59s WALL (     337 calls)
     mix_rho      :   2768.27s CPU   3061.26s WALL (     315 calls)

     Called by c_bands:
     init_us_2    :      6.94s CPU      7.18s WALL (     631 calls)
     init_us_2:cp :      6.94s CPU      7.18s WALL (     631 calls)
     regterg      :    375.04s CPU    379.06s WALL (     315 calls)

     Called by *egterg:
     rdiaghg      :     30.83s CPU     31.10s WALL (    1727 calls)
     h_psi        :    215.36s CPU    217.20s WALL (    1779 calls)
     s_psi        :     28.14s CPU     28.26s WALL (    1779 calls)
     g_psi        :      1.42s CPU      1.43s WALL (    1463 calls)

     Called by h_psi:
     h_psi:calbec :     30.65s CPU     30.76s WALL (    1779 calls)
     vloc_psi     :    153.43s CPU    155.01s WALL (    1779 calls)
     add_vuspsi   :     27.98s CPU     28.12s WALL (    1779 calls)

     General routines
     calbec       :     44.44s CPU     44.60s WALL (    2242 calls)
     fft          :     95.32s CPU    110.24s WALL (   22717 calls)
     ffts         :   1228.40s CPU   1511.82s WALL (  673765 calls)
     fftw         :    133.51s CPU    134.70s WALL (  192077 calls)
     interpolate  :      2.38s CPU      2.78s WALL (     337 calls)
 
     Parallel routines
 
     PWSCF        :  59m19.07s CPU      1h 5m WALL

 
   This run was terminated on:   3:57:55   4Nov2023            

=------------------------------------------------------------------------------=
   JOB DONE.
=------------------------------------------------------------------------------=
