
     Program PWSCF v.7.2 starts on  4Nov2023 at  2:46:43 

     This program is part of the open-source Quantum ESPRESSO suite
     for quantum simulation of materials; please cite
         "P. Giannozzi et al., J. Phys.:Condens. Matter 21 395502 (2009);
         "P. Giannozzi et al., J. Phys.:Condens. Matter 29 465901 (2017);
         "P. Giannozzi et al., J. Chem. Phys. 152 154105 (2020);
          URL http://www.quantum-espresso.org", 
     in publications or presentations arising from this work. More details at
     http://www.quantum-espresso.org/quote

     Parallel version (MPI & OpenMP), running on      48 processor cores
     Number of MPI processes:                48
     Threads/MPI process:                     1

     MPI processes distributed on     1 nodes
     116630 MiB available memory on the printing compute node when the environment starts
 
     Waiting for input...
     Reading input from standard input
Warning: card &CELL ignored
Warning: card CELL_DYNAMICS = 'BFGS', ignored
Warning: card CELL_DOFREE = '2DXY' ignored
Warning: card / ignored

     Current dimensions of program PWSCF are:
     Max number of different atomic species (ntypx) = 10
     Max number of k-points (npk) =  40000
     Max angular momentum in pseudopotentials (lmaxx) =  4

     IMPORTANT: XC functional enforced from input :
     Exchange-correlation= RVV10
                           (   1   4  13   4  26   0   0)
     Any further DFT definition will be discarded
     Please, verify this is what you really want


     gamma-point specific algorithms are used
     signal trapping enabled: kill the code with -SIGUSR1 to stop cleanly the simulation 
 
     R & G space division:  proc/nbgrp/npool/nimage =      48
     Subspace diagonalization in iterative solution of the eigenvalue problem:
     one sub-group per band group will be used
     scalapack distributed-memory algorithm (size of sub-group:  2*  2 procs)

 
     Parallelization info
     --------------------
     sticks:   dense  smooth     PW     G-vecs:    dense   smooth      PW
     Min         243     194     47                49060    35090    4376
     Max         246     196     50                49086    35128    4410
     Sum       11735    9389   2349              2355467  1685513  210763
 
     Using Slab Decomposition
 


     bravais-lattice index     =            0
     lattice parameter (alat)  =      17.8707  a.u.
     unit-cell volume          =   17436.2743 (a.u.)^3
     number of atoms/cell      =           36
     number of atomic types    =            3
     number of electrons       =       307.00
     number of Kohn-Sham states=          185
     kinetic-energy cutoff     =      80.0000  Ry
     charge density cutoff     =     400.0000  Ry
     scf convergence threshold =      1.0E-06
     mixing beta               =       0.7000
     number of iterations used =            8  local-TF  mixing
     energy convergence thresh.=      1.0E-04
     force convergence thresh. =      1.0E-02
     Exchange-correlation= RVV10
                           (   1   4  13   4  26   0   0)
     nstep                     =          200


     celldm(1)=  17.870686  celldm(2)=   0.000000  celldm(3)=   0.000000
     celldm(4)=   0.000000  celldm(5)=   0.000000  celldm(6)=   0.000000

     crystal axes: (cart. coord. in units of alat)
               a(1) = (   1.000000   0.000000   0.000000 )  
               a(2) = (   0.000000   1.155671   0.000000 )  
               a(3) = (   0.000000   0.000000   2.643601 )  

     reciprocal axes: (cart. coord. in units 2 pi/alat)
               b(1) = (  1.000000  0.000000  0.000000 )  
               b(2) = (  0.000000  0.865298  0.000000 )  
               b(3) = (  0.000000  0.000000  0.378272 )  


     PseudoPot. # 1 for Mo read from file:
     ../pseudo/Mo_ONCV_PBE-1.0.oncvpsp.upf
     MD5 check sum: 1b5d28e075c9ccadda658a603575cd1f
     Pseudo is Norm-conserving, Zval = 14.0
     Generated using ONCVPSP code by D. R. Hamann
     Using radial grid of 1526 points,  6 beta functions with: 
                l(1) =   0
                l(2) =   0
                l(3) =   1
                l(4) =   1
                l(5) =   2
                l(6) =   2

     PseudoPot. # 2 for S  read from file:
     ../pseudo/s_pbe_v1.4.uspp.F.UPF
     MD5 check sum: 88d86576ff6df21479756cfb9bdac1df
     Pseudo is Ultrasoft + core correction, Zval =  6.0
     Generated by new atomic code, or converted to UPF format
     Using radial grid of  907 points,  6 beta functions with: 
                l(1) =   0
                l(2) =   0
                l(3) =   1
                l(4) =   1
                l(5) =   2
                l(6) =   2
     Q(r) pseudized with  8 coefficients,  rinner =    1.300   1.300   1.300
                                                       1.300   1.300

     PseudoPot. # 3 for H  read from file:
     ../pseudo/H_ONCV_PBE-1.0.oncvpsp.upf
     MD5 check sum: 1790becc920ee074925cf490c71280fe
     Pseudo is Norm-conserving, Zval =  1.0
     Generated using ONCVPSP code by D. R. Hamann
     Using radial grid of 1166 points,  2 beta functions with: 
                l(1) =   0
                l(2) =   0

     atomic species   valence    mass     pseudopotential
        Mo            14.00    95.94000     Mo( 1.00)
        S              6.00    32.06500     S ( 1.00)
        H              1.00     1.00794     H ( 1.00)

     No symmetry found



   Cartesian axes

     site n.     atom                  positions (alat units)
         1           Mo  tau(   1) = (   0.6952221   0.1890506   0.2985846  )
         2           S   tau(   2) = (   0.8646417   0.0856217   0.4689279  )
         3           S   tau(   3) = (   0.8663890   0.0857843   0.1351291  )
         4           Mo  tau(   4) = (   0.8560186   0.4753274   0.2873942  )
         5           S   tau(   5) = (   0.6873294   0.3936244   0.4596353  )
         6           S   tau(   6) = (   0.6929804   0.3713468   0.1185692  )
         7           Mo  tau(   7) = (   0.6862796   0.7633098   0.2825370  )
         8           S   tau(   8) = (   0.8545980   0.6708292   0.4486168  )
         9           S   tau(   9) = (   0.8545123   0.6666874   0.1146125  )
        10           Mo  tau(  10) = (   0.8629403   1.0471007   0.3006803  )
        11           S   tau(  11) = (   0.6868280   0.9456650   0.4634891  )
        12           S   tau(  12) = (   0.6998113   0.9568511   0.1205389  )
        13           Mo  tau(  13) = (   0.3618216   0.1847309   0.2935964  )
        14           S   tau(  14) = (   0.5260962   0.0863870   0.4600448  )
        15           S   tau(  15) = (   0.5348379   0.0894875   0.1297123  )
        16           Mo  tau(  16) = (   0.5265817   0.4772436   0.2784130  )
        17           S   tau(  17) = (   0.3624753   0.3882513   0.4525556  )
        18           S   tau(  18) = (   0.3635411   0.3752055   0.1119148  )
        19           Mo  tau(  19) = (   0.3652268   0.7630864   0.2781795  )
        20           S   tau(  20) = (   0.5269494   0.6690381   0.1096838  )
        21           Mo  tau(  21) = (   0.5300192   1.0470394   0.2900995  )
        22           S   tau(  22) = (   0.3670346   0.9457522   0.4574073  )
        23           S   tau(  23) = (   0.3604225   0.9585725   0.1159032  )
        24           Mo  tau(  24) = (   0.0313099   0.1847895   0.3013130  )
        25           S   tau(  25) = (   0.1956761   0.0838230   0.4650863  )
        26           S   tau(  26) = (   0.1967693   0.0903508   0.1278874  )
        27           Mo  tau(  27) = (   0.1967578   0.4753919   0.2813011  )
        28           S   tau(  28) = (   0.0287851   0.3864324   0.4586755  )
        29           S   tau(  29) = (   0.0244514   0.3729871   0.1239344  )
        30           Mo  tau(  30) = (   0.0286728   0.7631204   0.2856894  )
        31           S   tau(  31) = (   0.2011512   0.6675435   0.4465001  )
        32           S   tau(  32) = (   0.1969214   0.6672839   0.1104564  )
        33           Mo  tau(  33) = (   0.1950294   1.0511147   0.2932237  )
        34           S   tau(  34) = (   0.0312912   0.9612169   0.4667423  )
        35           S   tau(  35) = (   0.0292670   0.9563028   0.1216485  )
        36           H   tau(  36) = (   0.6666667   0.5136314   0.5407634  )

     number of k points=     1  Gaussian smearing, width (Ry)=  0.0100
                       cart. coord. in units 2pi/alat
        k(    1) = (   0.0000000   0.0000000   0.0000000), wk =   2.0000000

     Dense  grid:  1177734 G-vectors     FFT dimensions: ( 120, 135, 320)

     Smooth grid:   842757 G-vectors     FFT dimensions: ( 108, 120, 270)

     Estimated max dynamical RAM per process >     146.59 MB

     Estimated total dynamical RAM >       6.87 GB

     Initial potential from superposition of free atoms

     starting charge     306.9873, renormalised to     307.0000

     negative rho (up, down):  1.414E-04 0.000E+00


---------------------------------------------------------------------------------
Carrying out rVV10 run using the following parameters:
Nqs =      20    Nr_points =    1024   r_max =   100.000
b_value =  6.30000    beta =  0.00901
     q_mesh =  0.00010000  0.00030000  0.00058939  0.00100810
               0.00161396  0.00249058  0.00375900  0.00559430
               0.00824984  0.01209221  0.01765183  0.02569619
               0.03733578  0.05417739  0.07854596  0.11380545
               0.16482331  0.23864234  0.34545298  0.50000000

Gradients computed in Reciprocal space

---------------------------------------------------------------------------------


     Starting wfcs are  213 randomized atomic wfcs

     total cpu time spent up to now is        2.7 secs

     Self-consistent Calculation

     iteration #  1     ecut=    80.00 Ry     beta= 0.70
     Davidson diagonalization with overlap
     ethr =  1.00E-02,  avg # of iterations =  2.0

     Threshold (ethr) on eigenvalues was too large:
     Diagonalizing with lowered threshold

     Davidson diagonalization with overlap
     ethr =  3.78E-04,  avg # of iterations =  4.0

     negative rho (up, down):  2.022E-08 0.000E+00

     total cpu time spent up to now is       20.5 secs

     total energy              =   -2205.61596500 Ry
     estimated scf accuracy    <       1.44633381 Ry

     iteration #  2     ecut=    80.00 Ry     beta= 0.70
     Davidson diagonalization with overlap
     ethr =  4.71E-04,  avg # of iterations =  2.0

     total cpu time spent up to now is       22.9 secs

     total energy              =   -2205.48751814 Ry
     estimated scf accuracy    <       0.60903107 Ry

     iteration #  3     ecut=    80.00 Ry     beta= 0.70
     Davidson diagonalization with overlap
     ethr =  1.98E-04,  avg # of iterations =  2.0

     total cpu time spent up to now is       25.2 secs

     total energy              =   -2205.52445921 Ry
     estimated scf accuracy    <       0.21955382 Ry

     iteration #  4     ecut=    80.00 Ry     beta= 0.70
     Davidson diagonalization with overlap
     ethr =  7.15E-05,  avg # of iterations = 19.0

     total cpu time spent up to now is       28.3 secs

     total energy              =   -2205.54652073 Ry
     estimated scf accuracy    <       0.03708979 Ry

     iteration #  5     ecut=    80.00 Ry     beta= 0.70
     Davidson diagonalization with overlap
     ethr =  1.21E-05,  avg # of iterations =  2.0

     total cpu time spent up to now is       30.6 secs

     total energy              =   -2205.54768313 Ry
     estimated scf accuracy    <       0.02080329 Ry

     iteration #  6     ecut=    80.00 Ry     beta= 0.70
     Davidson diagonalization with overlap
     ethr =  6.78E-06,  avg # of iterations =  2.0

     total cpu time spent up to now is       32.7 secs

     total energy              =   -2205.54654873 Ry
     estimated scf accuracy    <       0.01608576 Ry

     iteration #  7     ecut=    80.00 Ry     beta= 0.70
     Davidson diagonalization with overlap
     ethr =  5.24E-06,  avg # of iterations = 11.0

     total cpu time spent up to now is       35.2 secs

     total energy              =   -2205.54441326 Ry
     estimated scf accuracy    <       0.01002973 Ry

     iteration #  8     ecut=    80.00 Ry     beta= 0.70
     Davidson diagonalization with overlap
     ethr =  3.27E-06,  avg # of iterations =  2.0

     negative rho (up, down):  5.272E-03 0.000E+00

     total cpu time spent up to now is       39.7 secs

     total energy              =   -2205.54395441 Ry
     estimated scf accuracy    <       0.00457380 Ry

     iteration #  9     ecut=    80.00 Ry     beta= 0.70
     Davidson diagonalization with overlap
     ethr =  1.49E-06,  avg # of iterations =  2.0

     negative rho (up, down):  2.313E-02 0.000E+00

     total cpu time spent up to now is       44.0 secs

     total energy              =   -2205.54370738 Ry
     estimated scf accuracy    <       0.00285271 Ry

     iteration # 10     ecut=    80.00 Ry     beta= 0.70
     Davidson diagonalization with overlap
     ethr =  9.29E-07,  avg # of iterations =  2.0

     negative rho (up, down):  3.297E-02 0.000E+00

     total cpu time spent up to now is       48.5 secs

     total energy              =   -2205.54374760 Ry
     estimated scf accuracy    <       0.00135923 Ry

     iteration # 11     ecut=    80.00 Ry     beta= 0.70
     Davidson diagonalization with overlap
     ethr =  4.43E-07,  avg # of iterations =  2.0

     negative rho (up, down):  2.098E-02 0.000E+00

     total cpu time spent up to now is       53.2 secs

     total energy              =   -2205.54379243 Ry
     estimated scf accuracy    <       0.00038246 Ry

     iteration # 12     ecut=    80.00 Ry     beta= 0.70
     Davidson diagonalization with overlap
     ethr =  1.25E-07,  avg # of iterations =  2.0

     negative rho (up, down):  5.730E-03 0.000E+00

     total cpu time spent up to now is       59.0 secs

     total energy              =   -2205.54383130 Ry
     estimated scf accuracy    <       0.00011425 Ry

     iteration # 13     ecut=    80.00 Ry     beta= 0.70
     Davidson diagonalization with overlap
     c_bands:  1 eigenvalues not converged
     ethr =  3.72E-08,  avg # of iterations = 20.0

     negative rho (up, down):  2.265E-03 0.000E+00

     total cpu time spent up to now is       65.5 secs

     total energy              =   -2205.54387353 Ry
     estimated scf accuracy    <       0.00001422 Ry

     iteration # 14     ecut=    80.00 Ry     beta= 0.70
     Davidson diagonalization with overlap
     ethr =  4.63E-09,  avg # of iterations =  4.0

     negative rho (up, down):  4.583E-04 0.000E+00

     total cpu time spent up to now is       74.5 secs

     total energy              =   -2205.54387556 Ry
     estimated scf accuracy    <       0.00000339 Ry

     iteration # 15     ecut=    80.00 Ry     beta= 0.70
     Davidson diagonalization with overlap
     ethr =  1.10E-09,  avg # of iterations =  4.0

     negative rho (up, down):  2.606E-04 0.000E+00

     total cpu time spent up to now is       86.8 secs

     total energy              =   -2205.54387580 Ry
     estimated scf accuracy    <       0.00000144 Ry

     iteration # 16     ecut=    80.00 Ry     beta= 0.70
     Davidson diagonalization with overlap
     ethr =  4.68E-10,  avg # of iterations =  2.0

     negative rho (up, down):  1.374E-04 0.000E+00

     total cpu time spent up to now is       88.8 secs

     End of self-consistent calculation

          k = 0.0000 0.0000 0.0000 (105382 PWs)   bands (ev):

   -62.8552 -62.8306 -62.8206 -62.8145 -62.7866 -62.7752 -62.7675 -62.7586
   -62.7456 -62.7003 -62.6740 -62.6396 -37.1775 -37.1137 -37.1042 -37.0937
   -37.0824 -37.0573 -37.0440 -37.0310 -37.0257 -37.0175 -37.0123 -37.0054
   -36.9981 -36.9836 -36.9774 -36.9660 -36.9642 -36.9566 -36.9520 -36.9439
   -36.9185 -36.9040 -36.8846 -36.8681 -36.8649 -36.8503 -36.8433 -36.8330
   -36.8218 -36.8193 -36.8125 -36.7978 -36.7797 -36.7588 -36.6421 -36.6340
   -16.2022 -15.7025 -15.0826 -15.0488 -14.8737 -14.8577 -14.6796 -14.4620
   -14.4101 -14.4007 -14.3445 -14.2944 -14.2711 -14.2465 -14.1759 -14.0813
   -14.0639 -14.0606 -13.9812 -13.8460 -13.7962 -13.7852 -13.7597  -8.8569
    -7.6229  -7.4308  -7.2787  -7.2401  -7.1901  -7.1528  -7.1437  -7.0134
    -6.8248  -6.7923  -6.7133  -6.6439  -6.5161  -6.4972  -6.4346  -6.3954
    -6.3441  -6.2195  -6.1651  -5.9689  -5.8780  -5.8670  -5.8329  -5.7425
    -5.7097  -5.6973  -5.6476  -5.6203  -5.5789  -5.5397  -5.4951  -5.4294
    -5.3799  -5.3666  -5.1270  -5.0880  -5.0657  -4.9852  -4.9394  -4.9055
    -4.8868  -4.8104  -4.6615  -4.5641  -4.3921  -4.2951  -4.2488  -4.1847
    -4.1275  -4.0121  -3.9590  -3.9226  -3.7918  -3.7434  -3.7126  -3.6528
    -3.5885  -3.5505  -3.5062  -3.4720  -3.4424  -3.4239  -3.3999  -3.3540
    -3.3157  -3.1651  -3.1360  -2.8788  -2.8375  -2.7857  -2.7500  -2.6858
    -2.6742  -2.6247  -2.5983  -2.5914  -2.5297  -2.2528  -1.9949  -1.9608
    -1.8712  -0.8524  -0.7241  -0.6413  -0.1298  -0.0903  -0.0545   0.0232
     0.0882   0.1504   0.1987   0.2587   0.3048   0.3383   0.4404   0.5026
     0.5230   0.5685   0.5921   0.6118   0.6585   0.6982   0.7456   0.7823
     0.8283   0.8640   0.8939   0.9373   0.9485   1.0344   1.0941   1.3035
     1.4220

     the Fermi energy is    -0.8701 ev

!    total energy              =   -2205.54387641 Ry
     estimated scf accuracy    <       0.00000042 Ry
     smearing contrib. (-TS)   =      -0.00766235 Ry
     internal energy E=F+TS    =   -2205.53621406 Ry

     The total energy is F=E-TS. E is the sum of the following terms:
     one-electron contribution =  -18052.94234347 Ry
     hartree contribution      =    9013.63294228 Ry
     xc contribution           =    -385.35959542 Ry
     ewald contribution        =    7219.13278255 Ry

     convergence has been achieved in  16 iterations

     negative rho (up, down):  1.374E-04 0.000E+00

     Forces acting on atoms (cartesian axes, Ry/au):

     atom    1 type  1   force =     0.01724406   -0.05790072   -0.03362242
     atom    2 type  2   force =    -0.01184082    0.01489521    0.00448211
     atom    3 type  2   force =    -0.01452633    0.01070893   -0.00111630
     atom    4 type  1   force =     0.00780694    0.00189571   -0.00489329
     atom    5 type  2   force =     0.00825344    0.02033788    0.02511433
     atom    6 type  2   force =     0.00320002    0.00850986    0.00299957
     atom    7 type  1   force =     0.00177658   -0.00306738   -0.01282274
     atom    8 type  2   force =     0.00044516   -0.00606511    0.01904845
     atom    9 type  2   force =     0.01345171    0.00428074    0.00953456
     atom   10 type  1   force =    -0.01108095    0.00745962   -0.02812735
     atom   11 type  2   force =     0.00312706   -0.00292161   -0.00652166
     atom   12 type  2   force =     0.00041761    0.00130529    0.00613772
     atom   13 type  1   force =     0.00961982    0.00427345   -0.00758066
     atom   14 type  2   force =     0.00573898   -0.00107644    0.01224257
     atom   15 type  2   force =    -0.00888312    0.00293646   -0.00739756
     atom   16 type  1   force =    -0.01286660    0.01175018   -0.00846629
     atom   17 type  2   force =     0.00669430    0.00256514    0.00185614
     atom   18 type  2   force =    -0.00330751   -0.00574768    0.01629349
     atom   19 type  1   force =     0.00690682   -0.00497464   -0.00439691
     atom   20 type  2   force =     0.00300853   -0.00531473    0.00115941
     atom   21 type  1   force =    -0.00617011    0.00251233   -0.00016945
     atom   22 type  2   force =    -0.00265701   -0.00222928   -0.00361642
     atom   23 type  2   force =    -0.00005843    0.00166241    0.01085559
     atom   24 type  1   force =    -0.01554525   -0.00315755   -0.02182769
     atom   25 type  2   force =     0.01593792    0.01841201    0.00752098
     atom   26 type  2   force =    -0.01153601   -0.00094610   -0.00438835
     atom   27 type  1   force =    -0.00268233   -0.00360485    0.00849243
     atom   28 type  2   force =     0.00517306   -0.00069400   -0.00585611
     atom   29 type  2   force =     0.00422395   -0.00047122   -0.00369282
     atom   30 type  1   force =    -0.00322970    0.01107964   -0.00585615
     atom   31 type  2   force =     0.00040032    0.00127820    0.01563676
     atom   32 type  2   force =    -0.01093943    0.00698804    0.00777734
     atom   33 type  1   force =     0.01267028   -0.00441225   -0.00806352
     atom   34 type  2   force =     0.00387755   -0.04211741   -0.01055711
     atom   35 type  2   force =    -0.00842816    0.00682486    0.01465589
     atom   36 type  3   force =    -0.00622237    0.00502501    0.01516548
     The non-local contrib.  to forces
     atom    1 type  1   force =    -0.00048322    0.04267625   -0.02239027
     atom    2 type  2   force =    -0.00633601   -0.00129942   -0.26766812
     atom    3 type  2   force =    -0.01611476   -0.00162505    0.27306210
     atom    4 type  1   force =    -0.00725911    0.00610299    0.00604039
     atom    5 type  2   force =    -0.04280670    0.23740253   -0.02808565
     atom    6 type  2   force =     0.00030982    0.01281166    0.26470680
     atom    7 type  1   force =    -0.02417371   -0.00052113   -0.01516328
     atom    8 type  2   force =    -0.00500645    0.00652678   -0.23281676
     atom    9 type  2   force =     0.00945398   -0.01139966    0.27928075
     atom   10 type  1   force =     0.00541245   -0.00052997   -0.00135298
     atom   11 type  2   force =     0.01363549    0.00443210   -0.25926460
     atom   12 type  2   force =    -0.01217463   -0.01539381    0.26309862
     atom   13 type  1   force =    -0.00234645    0.01556801   -0.00897923
     atom   14 type  2   force =     0.00838081   -0.01450388   -0.25916380
     atom   15 type  2   force =    -0.00832988   -0.00320336    0.26169611
     atom   16 type  1   force =     0.00386964    0.03411057   -0.02700360
     atom   17 type  2   force =     0.00557348   -0.02179436   -0.24018802
     atom   18 type  2   force =    -0.00385423   -0.00163281    0.27326994
     atom   19 type  1   force =     0.01602341   -0.00208557   -0.00934473
     atom   20 type  2   force =    -0.00012544   -0.02261780    0.26442367
     atom   21 type  1   force =     0.00473884    0.02079813    0.00660985
     atom   22 type  2   force =    -0.00978599    0.00133175   -0.25833412
     atom   23 type  2   force =     0.00629449   -0.01442581    0.26661923
     atom   24 type  1   force =     0.00601395    0.01114313   -0.01147068
     atom   25 type  2   force =     0.00820205    0.00543676   -0.25718020
     atom   26 type  2   force =    -0.00260105   -0.01322617    0.26423692
     atom   27 type  1   force =    -0.00036741    0.01326367    0.01048936
     atom   28 type  2   force =    -0.00304945   -0.02402240   -0.27118104
     atom   29 type  2   force =     0.00879619    0.00294802    0.26232090
     atom   30 type  1   force =     0.00384401    0.02083048    0.00734920
     atom   31 type  2   force =    -0.00700059    0.00156633   -0.25163605
     atom   32 type  2   force =    -0.00524772   -0.01146778    0.27232186
     atom   33 type  1   force =    -0.00546901    0.00810850    0.00677857
     atom   34 type  2   force =     0.00042762   -0.03838311   -0.27213773
     atom   35 type  2   force =    -0.00312586   -0.01222012    0.27154254
     atom   36 type  3   force =     0.00772534   -0.04691595   -0.03144327
     The ionic contribution  to forces
     atom    1 type  1   force =     0.41791825   -0.11741768    5.50322682
     atom    2 type  2   force =    -0.61302259    0.30850080   39.28416629
     atom    3 type  2   force =    -0.14683285   -0.01560014  -36.09241853
     atom    4 type  1   force =     0.53551157    0.48498636    0.11084702
     atom    5 type  2   force =    -0.72250998    0.06913663   37.80776320
     atom    6 type  2   force =     0.35372079   -0.55002459  -38.13529709
     atom    7 type  1   force =    -2.58427623   -2.36116794    2.21270472
     atom    8 type  2   force =    -0.62348306    0.34660391   37.22916821
     atom    9 type  2   force =     0.38078920    0.00396160  -38.07435129
     atom   10 type  1   force =    -1.04596020   -0.27106521    5.66732048
     atom   11 type  2   force =    -0.55539978   -1.47552066   39.13425534
     atom   12 type  2   force =     0.44591882    0.72534202  -37.86577760
     atom   13 type  1   force =     0.36809975    0.82304583    2.80131590
     atom   14 type  2   force =     0.01654125   -0.11952495   38.51535625
     atom   15 type  2   force =     0.14452580   -0.09873946  -36.81712976
     atom   16 type  1   force =    -0.42906971    3.83812831   -0.23875458
     atom   17 type  2   force =     0.58189759    1.38627287   37.87884011
     atom   18 type  2   force =    -0.19685041   -0.67188234  -38.60764330
     atom   19 type  1   force =     2.56362831   -2.26618465    0.54672320
     atom   20 type  2   force =     0.19663957   -0.15374889  -38.55890567
     atom   21 type  1   force =    -0.00229912    0.09953058    1.15812234
     atom   22 type  2   force =     0.41416130   -1.65032893   38.43863007
     atom   23 type  2   force =    -0.10032628    0.68705562  -38.28627670
     atom   24 type  1   force =    -0.46400873    1.00134782    5.81186153
     atom   25 type  2   force =     0.64923974    0.23886853   39.28261212
     atom   26 type  2   force =    -0.29184556    0.04486602  -37.32443195
     atom   27 type  1   force =    -0.01971985    0.38115769   -2.33916075
     atom   28 type  2   force =     0.20006136    0.92931753   38.18277925
     atom   29 type  2   force =    -0.23533436   -0.45192038  -37.29799317
     atom   30 type  1   force =    -0.22333748   -0.75453984   -0.10117943
     atom   31 type  2   force =     1.19520787    0.00251991   37.31947482
     atom   32 type  2   force =    -0.48712034    0.01521858  -38.65217237
     atom   33 type  1   force =     0.78376077   -0.83176430    2.09875799
     atom   34 type  2   force =     0.26924351   -1.39325685   39.36660180
     atom   35 type  2   force =    -0.28923687    0.49784193  -37.80808082
     atom   36 type  3   force =    -0.48623205    1.29898428    7.84904554
     The local contribution  to forces
     atom    1 type  1   force =    -0.40023614    0.01660275   -5.51368899
     atom    2 type  2   force =     0.60742168   -0.29226354  -39.03225389
     atom    3 type  2   force =     0.14769405    0.02796212   35.83956425
     atom    4 type  1   force =    -0.52032507   -0.48918111   -0.12101124
     atom    5 type  2   force =     0.77104211   -0.27026668  -37.75992112
     atom    6 type  2   force =    -0.35097153    0.54686033   37.89481988
     atom    7 type  1   force =     2.61024918    2.35875918   -2.20958927
     atom    8 type  2   force =     0.62839880   -0.35951070  -36.99610512
     atom    9 type  2   force =    -0.37645239    0.01101987   37.82595504
     atom   10 type  1   force =     1.02952653    0.27909530   -5.69318232
     atom   11 type  2   force =     0.54555419    1.46873258  -38.90172645
     atom   12 type  2   force =    -0.43446756   -0.70987784   37.62988514
     atom   13 type  1   force =    -0.35611462   -0.83445659   -2.79909377
     atom   14 type  2   force =    -0.01867615    0.13283451  -38.26408984
     atom   15 type  2   force =    -0.14559912    0.10462372   36.56893004
     atom   16 type  1   force =     0.41223956   -3.86056387    0.25805708
     atom   17 type  2   force =    -0.58040283   -1.36308608  -37.65616172
     atom   18 type  2   force =     0.19729812    0.66829290   38.37192230
     atom   19 type  1   force =    -2.57289174    2.26343544   -0.54100072
     atom   20 type  2   force =    -0.19372083    0.17020440   38.31701640
     atom   21 type  1   force =    -0.00868096   -0.11776979   -1.16410240
     atom   22 type  2   force =    -0.40737786    1.64715417  -38.20409939
     atom   23 type  2   force =     0.09449373   -0.67222796   38.05167909
     atom   24 type  1   force =     0.44246827   -1.01576134   -5.82132030
     atom   25 type  2   force =    -0.64147432   -0.22549712  -39.03809654
     atom   26 type  2   force =     0.28308427   -0.03330496   37.07700741
     atom   27 type  1   force =     0.01739213   -0.39796444    2.33790292
     atom   28 type  2   force =    -0.19213847   -0.90776976  -37.93788692
     atom   29 type  2   force =     0.23145496    0.44912890   37.05280347
     atom   30 type  1   force =     0.21635540    0.74485817    0.08875705
     atom   31 type  2   force =    -1.18821507   -0.00279078  -37.07233604
     atom   32 type  2   force =     0.48144269    0.00258727   38.40889714
     atom   33 type  1   force =    -0.76559822    0.81917819   -2.11272356
     atom   34 type  2   force =    -0.26610873    1.38833703  -39.12572729
     atom   35 type  2   force =     0.28400989   -0.47985977   37.57259582
     atom   36 type  3   force =     0.47228652   -1.24705310   -7.80238292
     The core correction contribution to forces
     atom    1 type  1   force =     0.00000000    0.00000000    0.00000000
     atom    2 type  2   force =     0.00011593   -0.00010112    0.02055972
     atom    3 type  2   force =     0.00071720   -0.00005271   -0.02099794
     atom    4 type  1   force =     0.00000000    0.00000000    0.00000000
     atom    5 type  2   force =     0.00253835   -0.01596514    0.00571254
     atom    6 type  2   force =     0.00013916   -0.00117206   -0.02097792
     atom    7 type  1   force =     0.00000000    0.00000000    0.00000000
     atom    8 type  2   force =     0.00061247    0.00033873    0.01913034
     atom    9 type  2   force =    -0.00027332    0.00070302   -0.02110123
     atom   10 type  1   force =     0.00000000    0.00000000    0.00000000
     atom   11 type  2   force =    -0.00064759   -0.00048151    0.02056094
     atom   12 type  2   force =     0.00112653    0.00128668   -0.02080684
     atom   13 type  1   force =     0.00000000    0.00000000    0.00000000
     atom   14 type  2   force =    -0.00050730    0.00007638    0.02044142
     atom   15 type  2   force =     0.00051828    0.00021953   -0.02057145
     atom   16 type  1   force =     0.00000000    0.00000000    0.00000000
     atom   17 type  2   force =    -0.00038602    0.00112716    0.01967077
     atom   18 type  2   force =     0.00008757   -0.00054331   -0.02099895
     atom   19 type  1   force =     0.00000000    0.00000000    0.00000000
     atom   20 type  2   force =     0.00013818    0.00087927   -0.02114107
     atom   21 type  1   force =     0.00000000    0.00000000    0.00000000
     atom   22 type  2   force =     0.00031469   -0.00036875    0.02047544
     atom   23 type  2   force =    -0.00053134    0.00123171   -0.02083310
     atom   24 type  1   force =     0.00000000    0.00000000    0.00000000
     atom   25 type  2   force =    -0.00004437   -0.00045353    0.02052259
     atom   26 type  2   force =    -0.00015741    0.00069325   -0.02088658
     atom   27 type  1   force =     0.00000000    0.00000000    0.00000000
     atom   28 type  2   force =     0.00029944    0.00173778    0.02073725
     atom   29 type  2   force =    -0.00068338   -0.00062915   -0.02054334
     atom   30 type  1   force =     0.00000000    0.00000000    0.00000000
     atom   31 type  2   force =     0.00041304    0.00005853    0.02040919
     atom   32 type  2   force =     0.00000422    0.00070361   -0.02096838
     atom   33 type  1   force =     0.00000000    0.00000000    0.00000000
     atom   34 type  2   force =     0.00032680    0.00122602    0.02105182
     atom   35 type  2   force =    -0.00005000    0.00104447   -0.02110208
     atom   36 type  3   force =     0.00000000    0.00000000    0.00000000
     The Hubbard contrib.    to forces
     atom    1 type  1   force =     0.00000000    0.00000000    0.00000000
     atom    2 type  2   force =     0.00000000    0.00000000    0.00000000
     atom    3 type  2   force =     0.00000000    0.00000000    0.00000000
     atom    4 type  1   force =     0.00000000    0.00000000    0.00000000
     atom    5 type  2   force =     0.00000000    0.00000000    0.00000000
     atom    6 type  2   force =     0.00000000    0.00000000    0.00000000
     atom    7 type  1   force =     0.00000000    0.00000000    0.00000000
     atom    8 type  2   force =     0.00000000    0.00000000    0.00000000
     atom    9 type  2   force =     0.00000000    0.00000000    0.00000000
     atom   10 type  1   force =     0.00000000    0.00000000    0.00000000
     atom   11 type  2   force =     0.00000000    0.00000000    0.00000000
     atom   12 type  2   force =     0.00000000    0.00000000    0.00000000
     atom   13 type  1   force =     0.00000000    0.00000000    0.00000000
     atom   14 type  2   force =     0.00000000    0.00000000    0.00000000
     atom   15 type  2   force =     0.00000000    0.00000000    0.00000000
     atom   16 type  1   force =     0.00000000    0.00000000    0.00000000
     atom   17 type  2   force =     0.00000000    0.00000000    0.00000000
     atom   18 type  2   force =     0.00000000    0.00000000    0.00000000
     atom   19 type  1   force =     0.00000000    0.00000000    0.00000000
     atom   20 type  2   force =     0.00000000    0.00000000    0.00000000
     atom   21 type  1   force =     0.00000000    0.00000000    0.00000000
     atom   22 type  2   force =     0.00000000    0.00000000    0.00000000
     atom   23 type  2   force =     0.00000000    0.00000000    0.00000000
     atom   24 type  1   force =     0.00000000    0.00000000    0.00000000
     atom   25 type  2   force =     0.00000000    0.00000000    0.00000000
     atom   26 type  2   force =     0.00000000    0.00000000    0.00000000
     atom   27 type  1   force =     0.00000000    0.00000000    0.00000000
     atom   28 type  2   force =     0.00000000    0.00000000    0.00000000
     atom   29 type  2   force =     0.00000000    0.00000000    0.00000000
     atom   30 type  1   force =     0.00000000    0.00000000    0.00000000
     atom   31 type  2   force =     0.00000000    0.00000000    0.00000000
     atom   32 type  2   force =     0.00000000    0.00000000    0.00000000
     atom   33 type  1   force =     0.00000000    0.00000000    0.00000000
     atom   34 type  2   force =     0.00000000    0.00000000    0.00000000
     atom   35 type  2   force =     0.00000000    0.00000000    0.00000000
     atom   36 type  3   force =     0.00000000    0.00000000    0.00000000
     The SCF correction term to forces
     atom    1 type  1   force =     0.00004530    0.00023396   -0.00075136
     atom    2 type  2   force =    -0.00001970    0.00005451   -0.00030327
     atom    3 type  2   force =     0.00001015    0.00002071   -0.00030756
     atom    4 type  1   force =    -0.00012032   -0.00001653   -0.00075083
     atom    5 type  2   force =    -0.00001021    0.00002653   -0.00033602
     atom    6 type  2   force =     0.00000190    0.00003053   -0.00023349
     atom    7 type  1   force =    -0.00002254   -0.00014150   -0.00075628
     atom    8 type  2   force =    -0.00007647   -0.00002782   -0.00030961
     atom    9 type  2   force =    -0.00006563   -0.00000808   -0.00023008
     atom   10 type  1   force =    -0.00005960   -0.00004449   -0.00089391
     atom   11 type  2   force =    -0.00001511   -0.00008812   -0.00032828
     atom   12 type  2   force =     0.00001458   -0.00005575   -0.00024298
     atom   13 type  1   force =    -0.00001873    0.00011220   -0.00080494
     atom   14 type  2   force =     0.00000051    0.00003750   -0.00028284
     atom   15 type  2   force =     0.00000193    0.00003203   -0.00030388
     atom   16 type  1   force =     0.00009404    0.00007118   -0.00074656
     atom   17 type  2   force =     0.00001221    0.00004155   -0.00028638
     atom   18 type  2   force =     0.00001158    0.00001388   -0.00023787
     atom   19 type  1   force =     0.00014697   -0.00014386   -0.00075605
     atom   20 type  2   force =     0.00007718   -0.00003570   -0.00021530
     atom   21 type  1   force =     0.00007124   -0.00005059   -0.00078062
     atom   22 type  2   force =     0.00003098   -0.00002153   -0.00026980
     atom   23 type  2   force =     0.00001109    0.00002486   -0.00031431
     atom   24 type  1   force =    -0.00001861    0.00010885   -0.00087962
     atom   25 type  2   force =     0.00001495    0.00005337   -0.00031837
     atom   26 type  2   force =    -0.00001613    0.00002176   -0.00029552
     atom   27 type  1   force =     0.00001292   -0.00006577   -0.00072049
     atom   28 type  2   force =     0.00000030    0.00003885   -0.00028603
     atom   29 type  2   force =    -0.00000933   -0.00000261   -0.00026206
     atom   30 type  1   force =    -0.00009150   -0.00007316   -0.00076435
     atom   31 type  2   force =    -0.00000480   -0.00007978   -0.00025653
     atom   32 type  2   force =    -0.00001814   -0.00005764   -0.00028230
     atom   33 type  1   force =    -0.00002313    0.00006137   -0.00085790
     atom   34 type  2   force =    -0.00001151   -0.00004450   -0.00032709
     atom   35 type  2   force =    -0.00002519    0.00001435   -0.00028095
     atom   36 type  3   force =    -0.00000205    0.00000578   -0.00003525

     Total force =     0.124115     Total SCF correction =     0.003105

     BFGS Geometry Optimization
     Energy error            =      0.0E+00 Ry
     Gradient error          =      5.8E-02 Ry/Bohr

     number of scf cycles    =   1
     number of bfgs steps    =   0

     energy             new  =   -2205.5438764140 Ry

     new trust radius        =       0.0691398412 bohr
     new conv_thr            =       0.0000010000 Ry


ATOMIC_POSITIONS (angstrom)
Mo            6.5836735727        1.7571664905        2.8058508133
S             8.1704434488        0.8175862323        4.4369101830
S             8.1855460834        0.8169086653        1.2772927068
Mo            8.0992938215        4.4960601136        2.7152289782
S             6.5042767906        3.7331738278        4.3599505792
S             6.5550431772        3.5162407772        1.1228675294
Mo            6.4909218196        7.2168140943        2.6650989834
S             8.0819632987        6.3406614730        4.2525415666
S             8.0880359849        6.3069675891        1.0889084721
Mo            8.1547552616        9.9061278752        2.8285774059
S             6.4968223654        8.9413807636        4.3796544205
S             6.6181681910        9.0494019452        1.1431552417
Mo            3.4267502527        1.7492172636        2.7724596483
S             4.9782024305        0.8163715817        4.3570115806
S             5.0531330117        0.8478160148        1.2227438399
Mo            4.9729479705        4.5193959308        2.6284043821
S             3.4313841314        3.6729571017        4.2806918067
S             3.4361703244        3.5451871568        1.0669738257
Mo            3.4575166716        7.2136920733        2.6283501162
S             4.9848262385        6.3241198506        1.0378672658
Mo            5.0089988363        9.9029295175        2.7433112914
S             3.4695520882        8.9425715825        4.3236775867
S             3.4083982460        9.0658696949        1.1018128288
Mo            0.2878642951        1.7458386257        2.8378939937
S             1.8588961964        0.8024372209        4.4021893674
S             1.8546954418        0.8539252638        1.2070786398
Mo            1.8592718799        4.4937591591        2.6646913783
S             0.2749513135        3.6540315760        4.3344851778
S             0.2334664267        3.5269998675        1.1700637253
Mo            0.2694430667        7.2225091889        2.6985974894
S             1.9024500865        6.3134752270        4.2307187398
S             1.8564493188        6.3140417234        1.0486748722
Mo            1.8510514853        9.9378042907        2.7686792214
S             0.2979648107        9.0677102541        4.4082828828
S             0.2723114072        9.0471372755        1.1581563431
H             6.3012139328        4.8599480115        5.1218946931



     Writing config-only to output data dir ./MoS2-V-O.save/
     NEW-OLD atomic charge density approx. for the potential

     negative rho (up, down):  1.425E-04 0.000E+00

     total cpu time spent up to now is       92.0 secs

     Self-consistent Calculation

     iteration #  1     ecut=    80.00 Ry     beta= 0.70
     Davidson diagonalization with overlap
     ethr =  1.00E-06,  avg # of iterations = 10.0

     negative rho (up, down):  1.577E-04 0.000E+00

     total cpu time spent up to now is      107.4 secs

     total energy              =   -2205.55600567 Ry
     estimated scf accuracy    <       0.00204761 Ry

     iteration #  2     ecut=    80.00 Ry     beta= 0.70
     Davidson diagonalization with overlap
     ethr =  6.67E-07,  avg # of iterations =  2.0

     negative rho (up, down):  1.567E-04 0.000E+00

     total cpu time spent up to now is      119.8 secs

     total energy              =   -2205.55608426 Ry
     estimated scf accuracy    <       0.00075118 Ry

     iteration #  3     ecut=    80.00 Ry     beta= 0.70
     Davidson diagonalization with overlap
     ethr =  2.45E-07,  avg # of iterations =  2.0

     negative rho (up, down):  1.656E-04 0.000E+00

     total cpu time spent up to now is      139.3 secs

     total energy              =   -2205.55611699 Ry
     estimated scf accuracy    <       0.00022645 Ry

     iteration #  4     ecut=    80.00 Ry     beta= 0.70
     Davidson diagonalization with overlap
     ethr =  7.38E-08,  avg # of iterations =  4.0

     negative rho (up, down):  1.645E-04 0.000E+00

     total cpu time spent up to now is      152.7 secs

     total energy              =   -2205.55615011 Ry
     estimated scf accuracy    <       0.00001055 Ry

     iteration #  5     ecut=    80.00 Ry     beta= 0.70
     Davidson diagonalization with overlap
     ethr =  3.44E-09,  avg # of iterations =  7.0

     negative rho (up, down):  1.592E-04 0.000E+00

     total cpu time spent up to now is      169.6 secs

     total energy              =   -2205.55615652 Ry
     estimated scf accuracy    <       0.00000573 Ry

     iteration #  6     ecut=    80.00 Ry     beta= 0.70
     Davidson diagonalization with overlap
     ethr =  1.87E-09,  avg # of iterations =  2.0

     negative rho (up, down):  1.379E-04 0.000E+00

     total cpu time spent up to now is      171.5 secs

     End of self-consistent calculation

          k = 0.0000 0.0000 0.0000 (105382 PWs)   bands (ev):

   -62.8597 -62.8373 -62.8198 -62.8114 -62.7860 -62.7712 -62.7607 -62.7491
   -62.7457 -62.7123 -62.6801 -62.6535 -37.1792 -37.1176 -37.1038 -37.0924
   -37.0795 -37.0587 -37.0469 -37.0289 -37.0265 -37.0201 -37.0129 -37.0073
   -36.9967 -36.9838 -36.9676 -36.9627 -36.9594 -36.9520 -36.9487 -36.9400
   -36.9219 -36.9079 -36.8891 -36.8739 -36.8653 -36.8567 -36.8468 -36.8401
   -36.8262 -36.8210 -36.8167 -36.7998 -36.7829 -36.7592 -36.6541 -36.6419
   -16.1681 -15.6878 -15.0857 -15.0538 -14.8826 -14.8485 -14.6767 -14.4658
   -14.4051 -14.3965 -14.3542 -14.2959 -14.2734 -14.2524 -14.1822 -14.0872
   -14.0763 -14.0566 -13.9854 -13.8321 -13.8055 -13.7933 -13.7739  -8.7898
    -7.6192  -7.4336  -7.2594  -7.2468  -7.1928  -7.1549  -7.1507  -7.0163
    -6.8198  -6.7929  -6.7211  -6.6398  -6.5187  -6.5002  -6.4419  -6.3922
    -6.3415  -6.2205  -6.1572  -5.9582  -5.8663  -5.8636  -5.8230  -5.7386
    -5.7168  -5.6999  -5.6494  -5.6288  -5.5841  -5.5467  -5.4988  -5.4299
    -5.3686  -5.3520  -5.1043  -5.0842  -5.0631  -4.9850  -4.9486  -4.9070
    -4.8951  -4.8244  -4.6578  -4.5814  -4.3925  -4.2895  -4.2493  -4.1900
    -4.1459  -4.0276  -3.9601  -3.9364  -3.7824  -3.7474  -3.7106  -3.6555
    -3.5998  -3.5394  -3.5214  -3.4886  -3.4398  -3.4269  -3.3972  -3.3562
    -3.3180  -3.1828  -3.1425  -2.8776  -2.8346  -2.7734  -2.7425  -2.6864
    -2.6589  -2.6333  -2.6181  -2.6001  -2.5332  -2.2455  -1.9906  -1.9711
    -1.8946  -0.8706  -0.7184  -0.6525  -0.1225  -0.0933  -0.0544   0.0283
     0.1089   0.1477   0.1917   0.2807   0.3130   0.3389   0.4336   0.5029
     0.5418   0.5710   0.5907   0.6152   0.6617   0.6987   0.7485   0.7718
     0.8230   0.8686   0.8900   0.9331   0.9676   1.0440   1.0885   1.3150
     1.4279

     the Fermi energy is    -0.8831 ev

!    total energy              =   -2205.55615669 Ry
     estimated scf accuracy    <       0.00000097 Ry
     smearing contrib. (-TS)   =      -0.00721713 Ry
     internal energy E=F+TS    =   -2205.54893956 Ry

     The total energy is F=E-TS. E is the sum of the following terms:
     one-electron contribution =  -18053.01457406 Ry
     hartree contribution      =    9013.66032748 Ry
     xc contribution           =    -385.36361728 Ry
     ewald contribution        =    7219.16892429 Ry

     convergence has been achieved in   6 iterations

     negative rho (up, down):  1.379E-04 0.000E+00

     Forces acting on atoms (cartesian axes, Ry/au):

     atom    1 type  1   force =     0.00842226   -0.03149478   -0.01902936
     atom    2 type  2   force =    -0.00827616    0.00883828   -0.00034635
     atom    3 type  2   force =    -0.00969106    0.00517426   -0.01266206
     atom    4 type  1   force =     0.00619055    0.00289919    0.00183594
     atom    5 type  2   force =     0.00464694    0.00817488    0.01389809
     atom    6 type  2   force =     0.00239947    0.00438275    0.00392631
     atom    7 type  1   force =     0.00297396   -0.00314398   -0.00448102
     atom    8 type  2   force =     0.00086340   -0.00401863    0.01110383
     atom    9 type  2   force =     0.01181206    0.00375652    0.00519842
     atom   10 type  1   force =    -0.00356825    0.00679922   -0.00917643
     atom   11 type  2   force =     0.00255350   -0.00259012   -0.00886090
     atom   12 type  2   force =    -0.00193923    0.00092113    0.00021645
     atom   13 type  1   force =     0.00682419    0.00295735   -0.00137122
     atom   14 type  2   force =     0.00623290   -0.00048688    0.00597083
     atom   15 type  2   force =    -0.00968322   -0.00159300   -0.01139545
     atom   16 type  1   force =    -0.00630228    0.00696939    0.00031688
     atom   17 type  2   force =     0.00640500    0.00236134    0.00123520
     atom   18 type  2   force =    -0.00322126   -0.00399794    0.01090507
     atom   19 type  1   force =     0.00426569   -0.00582176    0.00028864
     atom   20 type  2   force =     0.00225284   -0.00359725   -0.00404210
     atom   21 type  1   force =    -0.00486884    0.00210573    0.00263857
     atom   22 type  2   force =    -0.00147666   -0.00240210   -0.00356219
     atom   23 type  2   force =     0.00085078    0.00048909    0.00584639
     atom   24 type  1   force =    -0.00936856   -0.00266923   -0.00823512
     atom   25 type  2   force =     0.01078101    0.01458230   -0.00044481
     atom   26 type  2   force =    -0.00779399   -0.00113823   -0.00497435
     atom   27 type  1   force =    -0.00138278   -0.00125373    0.00824636
     atom   28 type  2   force =     0.00321154   -0.00237668   -0.00652478
     atom   29 type  2   force =     0.00340923    0.00065634   -0.00543628
     atom   30 type  1   force =    -0.00249144    0.00267976    0.00291614
     atom   31 type  2   force =     0.00021506    0.00147198    0.00974113
     atom   32 type  2   force =    -0.00887526    0.00570737    0.00651999
     atom   33 type  1   force =     0.00548309   -0.00135603    0.00079915
     atom   34 type  2   force =     0.00097734   -0.03063270   -0.01491988
     atom   35 type  2   force =    -0.00598733    0.00760196    0.00740826
     atom   36 type  3   force =    -0.00584450    0.01004420    0.01645063
     The non-local contrib.  to forces
     atom    1 type  1   force =     0.00080411    0.03516088   -0.02101127
     atom    2 type  2   force =    -0.00272931   -0.00670361   -0.26798020
     atom    3 type  2   force =    -0.01193116   -0.00700553    0.26457314
     atom    4 type  1   force =    -0.00667408    0.00664950    0.00422331
     atom    5 type  2   force =    -0.04142862    0.23961927   -0.04463488
     atom    6 type  2   force =    -0.00087734    0.00733050    0.26782597
     atom    7 type  1   force =    -0.02326334   -0.00135059   -0.01705996
     atom    8 type  2   force =    -0.00441722    0.00846890   -0.23811280
     atom    9 type  2   force =     0.00761467   -0.01125691    0.27731020
     atom   10 type  1   force =     0.00372410   -0.00016191   -0.00304444
     atom   11 type  2   force =     0.01207241    0.00431991   -0.26074108
     atom   12 type  2   force =    -0.01332011   -0.01552955    0.25993936
     atom   13 type  1   force =    -0.00032959    0.01679352   -0.00983391
     atom   14 type  2   force =     0.00712237   -0.01593529   -0.26156888
     atom   15 type  2   force =    -0.00813162   -0.00679285    0.25798657
     atom   16 type  1   force =     0.00277495    0.03473256   -0.03103084
     atom   17 type  2   force =     0.00474714   -0.02133783   -0.24076059
     atom   18 type  2   force =    -0.00370762   -0.00043767    0.27027557
     atom   19 type  1   force =     0.01759682   -0.00013304   -0.01117439
     atom   20 type  2   force =    -0.00086627   -0.02050731    0.26175470
     atom   21 type  1   force =     0.00413313    0.02194183    0.00445531
     atom   22 type  2   force =    -0.00818881    0.00042142   -0.25841252
     atom   23 type  2   force =     0.00683935   -0.01565472    0.26374583
     atom   24 type  1   force =     0.00253178    0.01177380   -0.01184485
     atom   25 type  2   force =     0.00445778    0.00197741   -0.26245717
     atom   26 type  2   force =     0.00004557   -0.01302495    0.26430010
     atom   27 type  1   force =    -0.00059138    0.01180425    0.00894377
     atom   28 type  2   force =    -0.00404867   -0.02422289   -0.27192783
     atom   29 type  2   force =     0.00797834    0.00190434    0.26198147
     atom   30 type  1   force =     0.00336066    0.02174853    0.00613047
     atom   31 type  2   force =    -0.00662510    0.00132566   -0.25585514
     atom   32 type  2   force =    -0.00301322   -0.01228875    0.27202919
     atom   33 type  1   force =    -0.00371401    0.00687914    0.00469572
     atom   34 type  2   force =    -0.00174775   -0.02968878   -0.27592687
     atom   35 type  2   force =    -0.00179639   -0.01158590    0.26773931
     atom   36 type  3   force =     0.00843620   -0.04792209   -0.03235934
     The ionic contribution  to forces
     atom    1 type  1   force =     0.08543058    0.75565580    4.98738902
     atom    2 type  2   force =    -0.48143158    0.26191776   39.41948419
     atom    3 type  2   force =     0.00551829   -0.02248088  -36.27186194
     atom    4 type  1   force =     0.26592313    0.34620466    0.17758585
     atom    5 type  2   force =    -0.76348863   -0.13075371   37.67966431
     atom    6 type  2   force =     0.29831609   -0.52297407  -37.92588725
     atom    7 type  1   force =    -2.51787766   -2.43605839    2.06683697
     atom    8 type  2   force =    -0.65062367    0.34654513   37.31429262
     atom    9 type  2   force =     0.36439871   -0.04896152  -38.02866297
     atom   10 type  1   force =    -0.72319468   -0.36877717    5.41979337
     atom   11 type  2   force =    -0.50916010   -1.49156952   39.12745534
     atom   12 type  2   force =     0.36484346    0.65423733  -37.87855630
     atom   13 type  1   force =     0.30457299    0.82995734    2.81846270
     atom   14 type  2   force =     0.00645970    0.00609890   38.61661490
     atom   15 type  2   force =     0.02447016   -0.06883963  -36.91266868
     atom   16 type  1   force =    -0.06023014    3.47540138   -0.21337892
     atom   17 type  2   force =     0.63617297    1.32992381   37.90403604
     atom   18 type  2   force =    -0.21061831   -0.64784960  -38.52890802
     atom   19 type  1   force =     2.45895223   -2.30472591    0.54331454
     atom   20 type  2   force =     0.19008604   -0.15839760  -38.61252677
     atom   21 type  1   force =    -0.08005758    0.02493674    1.36749583
     atom   22 type  2   force =     0.40085034   -1.64856914   38.47781349
     atom   23 type  2   force =    -0.10157527    0.64611321  -38.27053666
     atom   24 type  1   force =    -0.17664443    0.92985809    5.59669414
     atom   25 type  2   force =     0.53112464    0.21400582   39.24416537
     atom   26 type  2   force =    -0.24423346    0.05865673  -37.27071147
     atom   27 type  1   force =    -0.02812765    0.43159804   -2.02319427
     atom   28 type  2   force =     0.16513237    0.84047905   38.16929796
     atom   29 type  2   force =    -0.20205997   -0.38837739  -37.31696609
     atom   30 type  1   force =    -0.17233616   -0.92162460   -0.09153380
     atom   31 type  2   force =     1.18595754    0.01180755   37.37504408
     atom   32 type  2   force =    -0.46040784   -0.03325509  -38.58032466
     atom   33 type  1   force =     0.59123335   -0.59184245    2.22303037
     atom   34 type  2   force =     0.21326543   -1.18436153   39.29153416
     atom   35 type  2   force =    -0.21167348    0.50046758  -37.74563752
     atom   36 type  3   force =    -0.49896738    1.30555330    7.85135008
     The local contribution  to forces
     atom    1 type  1   force =    -0.07771389   -0.82327505   -4.98521083
     atom    2 type  2   force =     0.47597761   -0.24661008  -39.17249071
     atom    3 type  2   force =    -0.00387623    0.03441340   36.01540351
     atom    4 type  1   force =    -0.25345313   -0.34993898   -0.17994941
     atom    5 type  2   force =     0.80712287   -0.08478149  -37.62755879
     atom    6 type  2   force =    -0.29520206    0.52081814   37.68306871
     atom    7 type  1   force =     2.54426311    2.43474516   -2.05425452
     atom    8 type  2   force =     0.65527652   -0.35900728  -37.08461468
     atom    9 type  2   force =    -0.36018375    0.06342682   37.77770225
     atom   10 type  1   force =     0.71582320    0.37590589   -5.42552510
     atom   11 type  2   force =     0.50031425    1.48518210  -38.89648710
     atom   12 type  2   force =    -0.35470401   -0.63909550   37.63957536
     atom   13 type  1   force =    -0.29718224   -0.84437542   -2.80988830
     atom   14 type  2   force =    -0.00684294    0.00919555  -38.36969260
     atom   15 type  2   force =    -0.02651261    0.07354875   36.66369352
     atom   16 type  1   force =     0.05146367   -3.50326784    0.24447154
     atom   17 type  2   force =    -0.63412458   -1.30762899  -37.68179992
     atom   18 type  2   force =     0.21106362    0.64464784   38.29039811
     atom   19 type  1   force =    -2.47200457    2.29956679   -0.53189211
     atom   20 type  2   force =    -0.18692958    0.17469596   38.36769555
     atom   21 type  1   force =     0.07111169   -0.04473728   -1.36935922
     atom   22 type  2   force =    -0.39435511    1.64629246  -38.24363635
     atom   23 type  2   force =     0.09626050   -0.63104436   38.03330044
     atom   24 type  1   force =     0.16459484   -0.94526242   -5.59286696
     atom   25 type  2   force =    -0.52506458   -0.20122120  -39.00305379
     atom   26 type  2   force =     0.23665671   -0.04757728   37.02232961
     atom   27 type  1   force =     0.02715444   -0.44481887    2.02256772
     atom   28 type  2   force =    -0.15824639   -0.82060348  -37.92479783
     atom   29 type  2   force =     0.19815172    0.38750789   37.06997247
     atom   30 type  1   force =     0.16614965    0.90298998    0.08850820
     atom   31 type  2   force =    -1.17959530   -0.01161955  -37.13003914
     atom   32 type  2   force =     0.45460067    0.05061413   38.33573042
     atom   33 type  1   force =    -0.58209454    0.58417167   -2.22678491
     atom   34 type  2   force =    -0.21108397    1.18289118  -39.05189293
     atom   35 type  2   force =     0.20758475   -0.48211196   37.50630941
     atom   36 type  3   force =     0.48470175   -1.24757435   -7.80254197
     The core correction contribution to forces
     atom    1 type  1   force =     0.00000000    0.00000000    0.00000000
     atom    2 type  2   force =     0.00001931    0.00008848    0.02063183
     atom    3 type  2   force =     0.00064903    0.00015917   -0.02083794
     atom    4 type  1   force =     0.00000000    0.00000000    0.00000000
     atom    5 type  2   force =     0.00252056   -0.01634480    0.00614463
     atom    6 type  2   force =     0.00016372   -0.00090757   -0.02101160
     atom    7 type  1   force =     0.00000000    0.00000000    0.00000000
     atom    8 type  2   force =     0.00057020    0.00024810    0.01930310
     atom    9 type  2   force =    -0.00017270    0.00066594   -0.02107830
     atom   10 type  1   force =     0.00000000    0.00000000    0.00000000
     atom   11 type  2   force =    -0.00052112   -0.00048188    0.02060031
     atom   12 type  2   force =     0.00109946    0.00128444   -0.02071142
     atom   13 type  1   force =     0.00000000    0.00000000    0.00000000
     atom   14 type  2   force =    -0.00043968    0.00023546    0.02054445
     atom   15 type  2   force =     0.00042608    0.00036944   -0.02047803
     atom   16 type  1   force =     0.00000000    0.00000000    0.00000000
     atom   17 type  2   force =    -0.00031133    0.00106784    0.01971006
     atom   18 type  2   force =     0.00003047   -0.00058931   -0.02094411
     atom   19 type  1   force =     0.00000000    0.00000000    0.00000000
     atom   20 type  2   force =     0.00017663    0.00080818   -0.02109302
     atom   21 type  1   force =     0.00000000    0.00000000    0.00000000
     atom   22 type  2   force =     0.00023416   -0.00034954    0.02051176
     atom   23 type  2   force =    -0.00052941    0.00127123   -0.02078165
     atom   24 type  1   force =     0.00000000    0.00000000    0.00000000
     atom   25 type  2   force =     0.00006698   -0.00029930    0.02064288
     atom   26 type  2   force =    -0.00024660    0.00068922   -0.02085127
     atom   27 type  1   force =     0.00000000    0.00000000    0.00000000
     atom   28 type  2   force =     0.00032310    0.00166417    0.02080059
     atom   29 type  2   force =    -0.00060688   -0.00053528   -0.02055676
     atom   30 type  1   force =     0.00000000    0.00000000    0.00000000
     atom   31 type  2   force =     0.00037479    0.00010756    0.02050625
     atom   32 type  2   force =    -0.00010486    0.00068766   -0.02094489
     atom   33 type  1   force =     0.00000000    0.00000000    0.00000000
     atom   34 type  2   force =     0.00035610    0.00095780    0.02117346
     atom   35 type  2   force =    -0.00007198    0.00103351   -0.02099968
     atom   36 type  3   force =     0.00000000    0.00000000    0.00000000
     The Hubbard contrib.    to forces
     atom    1 type  1   force =     0.00000000    0.00000000    0.00000000
     atom    2 type  2   force =     0.00000000    0.00000000    0.00000000
     atom    3 type  2   force =     0.00000000    0.00000000    0.00000000
     atom    4 type  1   force =     0.00000000    0.00000000    0.00000000
     atom    5 type  2   force =     0.00000000    0.00000000    0.00000000
     atom    6 type  2   force =     0.00000000    0.00000000    0.00000000
     atom    7 type  1   force =     0.00000000    0.00000000    0.00000000
     atom    8 type  2   force =     0.00000000    0.00000000    0.00000000
     atom    9 type  2   force =     0.00000000    0.00000000    0.00000000
     atom   10 type  1   force =     0.00000000    0.00000000    0.00000000
     atom   11 type  2   force =     0.00000000    0.00000000    0.00000000
     atom   12 type  2   force =     0.00000000    0.00000000    0.00000000
     atom   13 type  1   force =     0.00000000    0.00000000    0.00000000
     atom   14 type  2   force =     0.00000000    0.00000000    0.00000000
     atom   15 type  2   force =     0.00000000    0.00000000    0.00000000
     atom   16 type  1   force =     0.00000000    0.00000000    0.00000000
     atom   17 type  2   force =     0.00000000    0.00000000    0.00000000
     atom   18 type  2   force =     0.00000000    0.00000000    0.00000000
     atom   19 type  1   force =     0.00000000    0.00000000    0.00000000
     atom   20 type  2   force =     0.00000000    0.00000000    0.00000000
     atom   21 type  1   force =     0.00000000    0.00000000    0.00000000
     atom   22 type  2   force =     0.00000000    0.00000000    0.00000000
     atom   23 type  2   force =     0.00000000    0.00000000    0.00000000
     atom   24 type  1   force =     0.00000000    0.00000000    0.00000000
     atom   25 type  2   force =     0.00000000    0.00000000    0.00000000
     atom   26 type  2   force =     0.00000000    0.00000000    0.00000000
     atom   27 type  1   force =     0.00000000    0.00000000    0.00000000
     atom   28 type  2   force =     0.00000000    0.00000000    0.00000000
     atom   29 type  2   force =     0.00000000    0.00000000    0.00000000
     atom   30 type  1   force =     0.00000000    0.00000000    0.00000000
     atom   31 type  2   force =     0.00000000    0.00000000    0.00000000
     atom   32 type  2   force =     0.00000000    0.00000000    0.00000000
     atom   33 type  1   force =     0.00000000    0.00000000    0.00000000
     atom   34 type  2   force =     0.00000000    0.00000000    0.00000000
     atom   35 type  2   force =     0.00000000    0.00000000    0.00000000
     atom   36 type  3   force =     0.00000000    0.00000000    0.00000000
     The SCF correction term to forces
     atom    1 type  1   force =    -0.00009600    0.00095862   -0.00018553
     atom    2 type  2   force =    -0.00010965    0.00014077    0.00001930
     atom    3 type  2   force =    -0.00004844    0.00008313    0.00007192
     atom    4 type  1   force =     0.00039717   -0.00002096   -0.00001306
     atom    5 type  2   force =    -0.00007670    0.00043064    0.00029356
     atom    6 type  2   force =     0.00000161    0.00011079   -0.00005877
     atom    7 type  1   force =    -0.00014560   -0.00048512    0.00000723
     atom    8 type  2   force =     0.00006012   -0.00027843    0.00024635
     atom    9 type  2   force =     0.00015768   -0.00012277   -0.00006201
     atom   10 type  1   force =     0.00008167   -0.00017256   -0.00038952
     atom   11 type  2   force =    -0.00014940   -0.00004569    0.00032238
     atom   12 type  2   force =     0.00014451    0.00001944   -0.00001980
     atom   13 type  1   force =    -0.00023442    0.00057694   -0.00010096
     atom   14 type  2   force =    -0.00006399   -0.00008647    0.00008371
     atom   15 type  2   force =     0.00006732    0.00011633    0.00008191
     atom   16 type  1   force =    -0.00030822    0.00009833    0.00026585
     atom   17 type  2   force =    -0.00007667    0.00033153    0.00006036
     atom   18 type  2   force =     0.00001312    0.00022584    0.00009427
     atom   19 type  1   force =    -0.00027624   -0.00053457    0.00005135
     atom   20 type  2   force =    -0.00021143   -0.00020144    0.00013819
     atom   21 type  1   force =    -0.00005355   -0.00004052    0.00005739
     atom   22 type  2   force =    -0.00001470   -0.00020228    0.00017217
     atom   23 type  2   force =    -0.00014185   -0.00020124    0.00012919
     atom   24 type  1   force =     0.00015180    0.00095633   -0.00020670
     atom   25 type  2   force =     0.00019873    0.00011460    0.00026865
     atom   26 type  2   force =    -0.00001366    0.00011308   -0.00003057
     atom   27 type  1   force =     0.00018436    0.00015788   -0.00006011
     atom   28 type  2   force =     0.00005366    0.00030150    0.00011308
     atom   29 type  2   force =    -0.00005144    0.00015181    0.00014338
     atom   30 type  1   force =     0.00033696   -0.00043913   -0.00017798
     atom   31 type  2   force =     0.00010568   -0.00015420    0.00009583
     atom   32 type  2   force =     0.00005254   -0.00005553    0.00004067
     atom   33 type  1   force =     0.00006083   -0.00056937   -0.00013128
     atom   34 type  2   force =     0.00019007   -0.00043634    0.00020305
     atom   35 type  2   force =    -0.00002768   -0.00020624    0.00000747
     atom   36 type  3   force =    -0.00001253   -0.00001763    0.00001260

     Total force =     0.080081     Total SCF correction =     0.002458
     Energy error            =      1.2E-02 Ry
     Gradient error          =      3.1E-02 Ry/Bohr

     number of scf cycles    =   2
     number of bfgs steps    =   1

     energy             old  =   -2205.5438764140 Ry
     energy             new  =   -2205.5561566862 Ry

     CASE: energy            _new < energy            _old

     new trust radius        =       0.0760538253 bohr
     new conv_thr            =       0.0000000315 Ry


ATOMIC_POSITIONS (angstrom)
Mo            6.5928936453        1.7235568341        2.7857232739
S             8.1620567303        0.8268394580        4.4372159407
S             8.1756383323        0.8225882339        1.2667043567
Mo            8.1054285378        4.4987008828        2.7160972844
S             6.5091975663        3.7425981026        4.3747243679
S             6.5574439692        3.5209775325        1.1265008988
Mo            6.4936085275        7.2138168867        2.6597121677
S             8.0827339877        6.3365475239        4.2642109180
S             8.0995509229        6.3106299869        1.0944530196
Mo            8.1503509159        9.9127186773        2.8172995430
S             6.4993405391        8.9388594948        4.3714873262
S             6.6166242137        9.0503337191        1.1441435126
Mo            3.4336466533        1.7522197032        2.7703287809
S             4.9840992338        0.8158280777        4.3635503419
S             5.0439762723        0.8468898605        1.2123712015
Mo            4.9660535680        4.5266931357        2.6275486675
S             3.4375488849        3.6752426843        4.2819552394
S             3.4330777120        3.5411321488        1.0781157988
Mo            3.4619454029        7.2082351402        2.6280080109
S             4.9870808523        6.3204523695        1.0346871420
Mo            5.0041699490        9.9049973632        2.7454646850
S             3.4679838820        8.9402966969        4.3202630841
S             3.4090920882        9.0664923284        1.1080659809
Mo            0.2780880418        1.7432209926        2.8282234829
S             1.8698889556        0.8168909267        4.4028148743
S             1.8467465365        0.8528618629        1.2023978342
Mo            1.8577777512        4.4922497265        2.6726117491
S             0.2782820464        3.6519802144        4.3283322399
S             0.2368349512        3.5274789129        1.1650937796
Mo            0.2669625265        7.2261807122        2.7002294845
S             1.9026802423        6.3148576509        4.2408142860
S             1.8476875104        6.3196699713        1.0550773368
Mo            1.8572444824        9.9361039749        2.7682743277
S             0.2992823128        9.0368938626        4.3945871594
S             0.2662623005        9.0543062592        1.1661988002
H             6.2955736345        4.8688933915        5.1374606795



     Writing config-only to output data dir ./MoS2-V-O.save/
     NEW-OLD atomic charge density approx. for the potential

     negative rho (up, down):  1.474E-04 0.000E+00

     total cpu time spent up to now is      174.8 secs

     Self-consistent Calculation

     iteration #  1     ecut=    80.00 Ry     beta= 0.70
     Davidson diagonalization with overlap
     ethr =  1.00E-06,  avg # of iterations = 15.0

     negative rho (up, down):  1.642E-04 0.000E+00

     total cpu time spent up to now is      188.6 secs

     total energy              =   -2205.56515661 Ry
     estimated scf accuracy    <       0.00232108 Ry

     iteration #  2     ecut=    80.00 Ry     beta= 0.70
     Davidson diagonalization with overlap
     ethr =  7.56E-07,  avg # of iterations =  2.0

     negative rho (up, down):  1.651E-04 0.000E+00

     total cpu time spent up to now is      205.4 secs

     total energy              =   -2205.56527038 Ry
     estimated scf accuracy    <       0.00078531 Ry

     iteration #  3     ecut=    80.00 Ry     beta= 0.70
     Davidson diagonalization with overlap
     ethr =  2.56E-07,  avg # of iterations =  2.0

     negative rho (up, down):  1.757E-04 0.000E+00

     total cpu time spent up to now is      222.6 secs

     total energy              =   -2205.56531395 Ry
     estimated scf accuracy    <       0.00020191 Ry

     iteration #  4     ecut=    80.00 Ry     beta= 0.70
     Davidson diagonalization with overlap
     ethr =  6.58E-08,  avg # of iterations =  3.0

     negative rho (up, down):  1.735E-04 0.000E+00

     total cpu time spent up to now is      234.4 secs

     total energy              =   -2205.56534509 Ry
     estimated scf accuracy    <       0.00000618 Ry

     iteration #  5     ecut=    80.00 Ry     beta= 0.70
     Davidson diagonalization with overlap
     ethr =  2.01E-09,  avg # of iterations =  6.0

     negative rho (up, down):  1.679E-04 0.000E+00

     total cpu time spent up to now is      251.9 secs

     total energy              =   -2205.56535150 Ry
     estimated scf accuracy    <       0.00000404 Ry

     iteration #  6     ecut=    80.00 Ry     beta= 0.70
     Davidson diagonalization with overlap
     ethr =  1.32E-09,  avg # of iterations =  2.0

     negative rho (up, down):  1.574E-04 0.000E+00

     total cpu time spent up to now is      265.3 secs

     total energy              =   -2205.56535168 Ry
     estimated scf accuracy    <       0.00000080 Ry

     iteration #  7     ecut=    80.00 Ry     beta= 0.70
     Davidson diagonalization with overlap
     ethr =  2.61E-10,  avg # of iterations =  5.0

     negative rho (up, down):  1.540E-04 0.000E+00

     total cpu time spent up to now is      277.5 secs

     total energy              =   -2205.56535184 Ry
     estimated scf accuracy    <       0.00000008 Ry

     iteration #  8     ecut=    80.00 Ry     beta= 0.70
     Davidson diagonalization with overlap
     ethr =  2.67E-11,  avg # of iterations =  5.0

     negative rho (up, down):  1.385E-04 0.000E+00

     total cpu time spent up to now is      279.6 secs

     End of self-consistent calculation

          k = 0.0000 0.0000 0.0000 (105382 PWs)   bands (ev):

   -62.8648 -62.8445 -62.8191 -62.8099 -62.7865 -62.7694 -62.7583 -62.7451
   -62.7283 -62.7256 -62.6904 -62.6726 -37.1829 -37.1248 -37.1081 -37.0913
   -37.0795 -37.0581 -37.0504 -37.0300 -37.0284 -37.0214 -37.0155 -37.0082
   -36.9953 -36.9854 -36.9664 -36.9598 -36.9557 -36.9458 -36.9443 -36.9281
   -36.9222 -36.9117 -36.8967 -36.8839 -36.8730 -36.8632 -36.8518 -36.8455
   -36.8332 -36.8227 -36.8203 -36.7997 -36.7875 -36.7554 -36.6682 -36.6527
   -16.1218 -15.6573 -15.0919 -15.0571 -14.8905 -14.8376 -14.6721 -14.4689
   -14.4096 -14.3894 -14.3682 -14.2970 -14.2718 -14.2597 -14.1848 -14.0958
   -14.0845 -14.0543 -13.9877 -13.8330 -13.8191 -13.7992 -13.7767  -8.6874
    -7.6172  -7.4372  -7.2577  -7.2418  -7.1958  -7.1641  -7.1489  -7.0135
    -6.8156  -6.7946  -6.7280  -6.6346  -6.5263  -6.5008  -6.4498  -6.3886
    -6.3386  -6.2230  -6.1495  -5.9519  -5.8619  -5.8615  -5.8066  -5.7336
    -5.7311  -5.7003  -5.6471  -5.6272  -5.5971  -5.5488  -5.5015  -5.4304
    -5.3580  -5.3422  -5.0894  -5.0811  -5.0598  -4.9840  -4.9564  -4.9176
    -4.8953  -4.8401  -4.6489  -4.5977  -4.3890  -4.2874  -4.2550  -4.1962
    -4.1669  -4.0401  -3.9642  -3.9389  -3.7824  -3.7439  -3.7039  -3.6566
    -3.6147  -3.5349  -3.5248  -3.5007  -3.4406  -3.4311  -3.3940  -3.3602
    -3.3221  -3.2047  -3.1527  -2.8760  -2.8350  -2.7608  -2.7375  -2.6886
    -2.6686  -2.6411  -2.6161  -2.6028  -2.5361  -2.2434  -1.9885  -1.9755
    -1.9146  -0.8950  -0.7131  -0.6688  -0.1283  -0.0942  -0.0535   0.0278
     0.1253   0.1530   0.1770   0.3004   0.3080   0.3524   0.4241   0.4945
     0.5476   0.5717   0.5966   0.6162   0.6646   0.7077   0.7443   0.7639
     0.8189   0.8818   0.8912   0.9237   0.9728   1.0540   1.0823   1.3255
     1.4322

     the Fermi energy is    -0.9027 ev

!    total energy              =   -2205.56535187 Ry
     estimated scf accuracy    <       0.00000003 Ry
     smearing contrib. (-TS)   =      -0.00672569 Ry
     internal energy E=F+TS    =   -2205.55862618 Ry

     The total energy is F=E-TS. E is the sum of the following terms:
     one-electron contribution =  -18052.58696162 Ry
     hartree contribution      =    9013.42783902 Ry
     xc contribution           =    -385.36188801 Ry
     ewald contribution        =    7218.96238443 Ry

     convergence has been achieved in   8 iterations

     negative rho (up, down):  1.385E-04 0.000E+00

     Forces acting on atoms (cartesian axes, Ry/au):

     atom    1 type  1   force =    -0.00205728   -0.00558505   -0.00731673
     atom    2 type  2   force =    -0.00441304    0.00283924   -0.00308602
     atom    3 type  2   force =    -0.00236699   -0.00120044   -0.01990318
     atom    4 type  1   force =     0.00356266    0.00253468    0.00474915
     atom    5 type  2   force =     0.00026255    0.00371048    0.00831542
     atom    6 type  2   force =     0.00148473    0.00094852    0.00542278
     atom    7 type  1   force =     0.00349490   -0.00331185   -0.00002160
     atom    8 type  2   force =     0.00072601   -0.00217409    0.00514256
     atom    9 type  2   force =     0.00858516    0.00260043    0.00176667
     atom   10 type  1   force =     0.00122118    0.00508658    0.00199491
     atom   11 type  2   force =     0.00191038   -0.00174773   -0.00827541
     atom   12 type  2   force =    -0.00353225    0.00064774   -0.00255967
     atom   13 type  1   force =     0.00295377    0.00088494    0.00120709
     atom   14 type  2   force =     0.00600584   -0.00013136    0.00047287
     atom   15 type  2   force =    -0.00943442   -0.00545143   -0.01188665
     atom   16 type  1   force =     0.00106128    0.00261135    0.00549248
     atom   17 type  2   force =     0.00526077    0.00204887    0.00227178
     atom   18 type  2   force =    -0.00244717   -0.00125036    0.00589081
     atom   19 type  1   force =     0.00160526   -0.00514582    0.00222079
     atom   20 type  2   force =     0.00154518   -0.00195375   -0.00605616
     atom   21 type  1   force =    -0.00273192    0.00099095    0.00125742
     atom   22 type  2   force =    -0.00037777   -0.00243017   -0.00143748
     atom   23 type  2   force =     0.00092235   -0.00114082    0.00257719
     atom   24 type  1   force =    -0.00374982   -0.00141057   -0.00141077
     atom   25 type  2   force =     0.00503547    0.00929539   -0.00498469
     atom   26 type  2   force =    -0.00306883   -0.00107518   -0.00254382
     atom   27 type  1   force =     0.00020772    0.00066433    0.00469637
     atom   28 type  2   force =     0.00107794   -0.00361802   -0.00418460
     atom   29 type  2   force =     0.00223744    0.00164597   -0.00410811
     atom   30 type  1   force =    -0.00121945   -0.00367837    0.00568659
     atom   31 type  2   force =     0.00055067    0.00062434    0.00538287
     atom   32 type  2   force =    -0.00546658    0.00363507    0.00596716
     atom   33 type  1   force =    -0.00073501    0.00092998    0.00386539
     atom   34 type  2   force =    -0.00124773   -0.01581421   -0.01260847
     atom   35 type  2   force =    -0.00265452    0.00624911    0.00224793
     atom   36 type  3   force =    -0.00420851    0.00917126    0.01375514
     The non-local contrib.  to forces
     atom    1 type  1   force =     0.00222310    0.02752402   -0.01818972
     atom    2 type  2   force =     0.00196472   -0.01263057   -0.26626431
     atom    3 type  2   force =    -0.00499170   -0.01288063    0.25666959
     atom    4 type  1   force =    -0.00563808    0.00713104    0.00285620
     atom    5 type  2   force =    -0.04053764    0.24893152   -0.05744065
     atom    6 type  2   force =    -0.00229970    0.00193532    0.27181097
     atom    7 type  1   force =    -0.02145994   -0.00173879   -0.01840664
     atom    8 type  2   force =    -0.00379652    0.01025156   -0.24181166
     atom    9 type  2   force =     0.00400399   -0.01138488    0.27536660
     atom   10 type  1   force =     0.00248692    0.00071799   -0.00358041
     atom   11 type  2   force =     0.01059141    0.00428560   -0.26064840
     atom   12 type  2   force =    -0.01400391   -0.01584308    0.25873453
     atom   13 type  1   force =     0.00178105    0.01814811   -0.00980653
     atom   14 type  2   force =     0.00448175   -0.01755567   -0.26308577
     atom   15 type  2   force =    -0.00729918   -0.00970664    0.25560790
     atom   16 type  1   force =     0.00136439    0.03468414   -0.03468586
     atom   17 type  2   force =     0.00315477   -0.02103444   -0.24018289
     atom   18 type  2   force =    -0.00319144    0.00156302    0.26739685
     atom   19 type  1   force =     0.01880491    0.00214578   -0.01271357
     atom   20 type  2   force =    -0.00141152   -0.01793010    0.26037554
     atom   21 type  1   force =     0.00303914    0.02314364    0.00296532
     atom   22 type  2   force =    -0.00659318   -0.00074820   -0.25728674
     atom   23 type  2   force =     0.00674781   -0.01764582    0.26203510
     atom   24 type  1   force =    -0.00131551    0.01213432   -0.01113808
     atom   25 type  2   force =     0.00004323   -0.00281716   -0.26625070
     atom   26 type  2   force =     0.00357632   -0.01216117    0.26622297
     atom   27 type  1   force =    -0.00089881    0.01022419    0.00797003
     atom   28 type  2   force =    -0.00513800   -0.02400469   -0.27103857
     atom   29 type  2   force =     0.00713299    0.00055412    0.26348492
     atom   30 type  1   force =     0.00263478    0.02261652    0.00572768
     atom   31 type  2   force =    -0.00620785    0.00041216   -0.25910546
     atom   32 type  2   force =     0.00074315   -0.01355264    0.27221155
     atom   33 type  1   force =    -0.00216807    0.00593626    0.00355896
     atom   34 type  2   force =    -0.00356347   -0.01754544   -0.27583378
     atom   35 type  2   force =     0.00047187   -0.01294293    0.26532851
     atom   36 type  3   force =     0.00901162   -0.04759732   -0.03243698
     The ionic contribution  to forces
     atom    1 type  1   force =    -0.27589030    1.65134529    4.25175944
     atom    2 type  2   force =    -0.35261427    0.23051710   39.55444728
     atom    3 type  2   force =     0.18462309   -0.02714206  -36.57165357
     atom    4 type  1   force =    -0.07021697    0.12928144    0.30840795
     atom    5 type  2   force =    -0.79750101   -0.32562380   37.56291946
     atom    6 type  2   force =     0.23800851   -0.47607526  -37.67056045
     atom    7 type  1   force =    -2.50446466   -2.47325332    1.85982087
     atom    8 type  2   force =    -0.70944978    0.34917682   37.43791263
     atom    9 type  2   force =     0.32637572   -0.10479341  -37.99906679
     atom   10 type  1   force =    -0.44827859   -0.48322256    5.24725813
     atom   11 type  2   force =    -0.47390909   -1.50103589   39.06820463
     atom   12 type  2   force =     0.28911525    0.57063012  -37.87911106
     atom   13 type  1   force =     0.23777764    0.81791004    2.84542926
     atom   14 type  2   force =     0.00009516    0.13390696   38.71535009
     atom   15 type  2   force =    -0.09728591   -0.02684893  -37.07416233
     atom   16 type  1   force =     0.34993134    3.11387483   -0.12271421
[...]
     atom   27 type  1   force =    -0.00051318    0.00660131    0.00333777
     atom   28 type  2   force =    -0.00615361   -0.00579457   -0.27122315
     atom   29 type  2   force =     0.00601548   -0.01013137    0.26885881
     atom   30 type  1   force =     0.00175238    0.02284650    0.00304302
     atom   31 type  2   force =    -0.00638608   -0.00283155   -0.26410562
     atom   32 type  2   force =     0.00458169   -0.01220620    0.27048010
     atom   33 type  1   force =    -0.00201880    0.00891310    0.00172503
     atom   34 type  2   force =     0.00115877   -0.01334542   -0.26908799
     atom   35 type  2   force =    -0.00039536   -0.01348197    0.26510133
     atom   36 type  3   force =     0.00209004   -0.04538709   -0.03474673
     The ionic contribution  to forces
     atom    1 type  1   force =    -0.35841955    2.54521648   -1.20803416
     atom    2 type  2   force =    -0.46645290    0.21780568   38.55004157
     atom    3 type  2   force =     0.40631465    0.16175768  -38.20312787
     atom    4 type  1   force =    -0.14342121   -1.03566870    4.17068625
     atom    5 type  2   force =    -0.80760864   -1.37480490   38.78814420
     atom    6 type  2   force =     0.23189161   -0.03253871  -37.18666655
     atom    7 type  1   force =    -2.86814776   -1.62819881    1.43154470
     atom    8 type  2   force =    -0.67333066    0.71270239   38.19637615
     atom    9 type  2   force =     0.49346443   -0.38027729  -37.77312974
     atom   10 type  1   force =    -0.28448519   -0.30281095    1.86124898
     atom   11 type  2   force =    -0.52330669   -1.02631605   38.29125985
     atom   12 type  2   force =     0.12202413    0.12935501  -38.23654172
     atom   13 type  1   force =     0.23909372    0.71435654    1.76651256
     atom   14 type  2   force =     0.20037306    0.10219243   37.94147978
     atom   15 type  2   force =    -0.34257235    0.10920951  -38.15782974
     atom   16 type  1   force =     0.18151720    2.23684050    3.27044380
     atom   17 type  2   force =     0.64003149    0.66504597   38.21783817
     atom   18 type  2   force =    -0.16638029   -0.18326913  -37.72249122
     atom   19 type  1   force =     2.55727887   -1.76306752    3.37494586
     atom   20 type  2   force =    -0.04993564   -0.19653468  -38.41654794
     atom   21 type  1   force =    -0.21879204   -0.12209994    0.01023621
     atom   22 type  2   force =     0.47959662   -1.13072107   38.47029035
     atom   23 type  2   force =    -0.28003868    0.13285661  -37.97535190
     atom   24 type  1   force =     0.18271027    0.81593398    2.53992235
     atom   25 type  2   force =     0.22443434    0.04635211   38.59606429
     atom   26 type  2   force =    -0.06774152    0.19335123  -37.45131950
     atom   27 type  1   force =    -0.11475479    0.10987492    1.47183775
     atom   28 type  2   force =     0.08119939    0.11111090   38.23517186
     atom   29 type  2   force =    -0.12919497    0.11894888  -36.87998049
     atom   30 type  1   force =     0.28172054   -0.76774119    1.98458607
     atom   31 type  2   force =     1.15289887    0.24591746   38.38390756
     atom   32 type  2   force =    -0.32190907   -0.21219311  -37.70418065
     atom   33 type  1   force =     0.57775060   -0.17164557    2.27487147
     atom   34 type  2   force =     0.00796965   -0.21496572   38.75515860
     atom   35 type  2   force =     0.11238357   -0.00421744  -37.68741621
     atom   36 type  3   force =    -0.35616105    1.17824250    8.02004934
     The local contribution  to forces
     atom    1 type  1   force =     0.35572409   -2.57194269    1.21825057
     atom    2 type  2   force =     0.45723214   -0.20236560  -38.31120994
     atom    3 type  2   force =    -0.39993220   -0.15046734   37.95831759
     atom    4 type  1   force =     0.15046648    1.03678388   -4.16583026
     atom    5 type  2   force =     0.78617273    1.07729799  -38.73162087
     atom    6 type  2   force =    -0.22998429    0.04239075   36.93756438
     atom    7 type  1   force =     2.88146691    1.62081668   -1.41657684
     atom    8 type  2   force =     0.67071875   -0.71685524  -37.97315384
     atom    9 type  2   force =    -0.48888782    0.38432579   37.52477609
     atom   10 type  1   force =     0.28279741    0.29476949   -1.86130244
     atom   11 type  2   force =     0.51734939    1.02793060  -38.05524303
     atom   12 type  2   force =    -0.11227811   -0.11668004   37.99427907
     atom   13 type  1   force =    -0.24388439   -0.73015172   -1.76292724
     atom   14 type  2   force =    -0.19181638   -0.08374125  -37.70108589
     atom   15 type  2   force =     0.33716366   -0.10044841   37.91618786
     atom   16 type  1   force =    -0.18111149   -2.25646562   -3.22920594
     atom   17 type  2   force =    -0.64024621   -0.64980158  -37.98668719
     atom   18 type  2   force =     0.17077085    0.18598551   37.47804694
     atom   19 type  1   force =    -2.57160627    1.75392914   -3.35095253
     atom   20 type  2   force =     0.05092704    0.20530578   38.17336831
     atom   21 type  1   force =     0.21540013    0.09315853   -0.01397811
     atom   22 type  2   force =    -0.47316494    1.13582400  -38.23671964
     atom   23 type  2   force =     0.27328680   -0.12123294   37.73303847
     atom   24 type  1   force =    -0.17776839   -0.82702733   -2.53928295
     atom   25 type  2   force =    -0.22531414   -0.03799045  -38.35047381
     atom   26 type  2   force =     0.06472035   -0.18093013   37.20619932
     atom   27 type  1   force =     0.11575607   -0.11619667   -1.47559198
     atom   28 type  2   force =    -0.07545256   -0.10473604  -37.98552097
     atom   29 type  2   force =     0.12382480   -0.10917532   36.63087011
     atom   30 type  1   force =    -0.28329562    0.74475810   -1.98773525
     atom   31 type  2   force =    -1.14740820   -0.24243393  -38.14160370
     atom   32 type  2   force =     0.31679891    0.22311475   37.45534529
     atom   33 type  1   force =    -0.57618533    0.16315232   -2.27621561
     atom   34 type  2   force =    -0.00885027    0.22667790  -38.50647072
     atom   35 type  2   force =    -0.11183647    0.01697079   37.44287184
     atom   36 type  3   force =     0.35669504   -1.13367597   -7.98409610
     The core correction contribution to forces
     atom    1 type  1   force =     0.00000000    0.00000000    0.00000000
     atom    2 type  2   force =    -0.00074316    0.00064955    0.02055711
     atom    3 type  2   force =     0.00066323    0.00040668   -0.02086693
     atom    4 type  1   force =     0.00000000    0.00000000    0.00000000
     atom    5 type  2   force =    -0.00099613   -0.02067112    0.00537591
     atom    6 type  2   force =     0.00027810    0.00047682   -0.02113779
     atom    7 type  1   force =     0.00000000    0.00000000    0.00000000
     atom    8 type  2   force =     0.00007667    0.00061775    0.01960671
     atom    9 type  2   force =     0.00065559    0.00003762   -0.02099846
     atom   10 type  1   force =     0.00000000    0.00000000    0.00000000
     atom   11 type  2   force =    -0.00008680    0.00009555    0.02046926
     atom   12 type  2   force =     0.00074956    0.00091916   -0.02072911
     atom   13 type  1   force =     0.00000000    0.00000000    0.00000000
     atom   14 type  2   force =     0.00073030    0.00063031    0.02058619
     atom   15 type  2   force =    -0.00051859    0.00030420   -0.02067948
     atom   16 type  1   force =     0.00000000    0.00000000    0.00000000
     atom   17 type  2   force =     0.00015172    0.00043732    0.02013228
     atom   18 type  2   force =     0.00009093   -0.00014517   -0.02079227
     atom   19 type  1   force =     0.00000000    0.00000000    0.00000000
     atom   20 type  2   force =     0.00003201    0.00031246   -0.02118139
     atom   21 type  1   force =     0.00000000    0.00000000    0.00000000
     atom   22 type  2   force =     0.00022034    0.00032828    0.02031634
     atom   23 type  2   force =    -0.00068591    0.00070192   -0.02079294
     atom   24 type  1   force =     0.00000000    0.00000000    0.00000000
     atom   25 type  2   force =    -0.00000582    0.00031006    0.02074911
     atom   26 type  2   force =    -0.00025966    0.00060529   -0.02074926
     atom   27 type  1   force =     0.00000000    0.00000000    0.00000000
     atom   28 type  2   force =     0.00038564    0.00022727    0.02084078
     atom   29 type  2   force =    -0.00055543    0.00048673   -0.02078014
     atom   30 type  1   force =     0.00000000    0.00000000    0.00000000
     atom   31 type  2   force =     0.00029274    0.00047930    0.02071222
     atom   32 type  2   force =    -0.00046804    0.00059202   -0.02103000
     atom   33 type  1   force =     0.00000000    0.00000000    0.00000000
     atom   34 type  2   force =    -0.00012107    0.00072326    0.02098042
     atom   35 type  2   force =     0.00004005    0.00074380   -0.02085903
     atom   36 type  3   force =     0.00000000    0.00000000    0.00000000
     The Hubbard contrib.    to forces
     atom    1 type  1   force =     0.00000000    0.00000000    0.00000000
     atom    2 type  2   force =     0.00000000    0.00000000    0.00000000
     atom    3 type  2   force =     0.00000000    0.00000000    0.00000000
     atom    4 type  1   force =     0.00000000    0.00000000    0.00000000
     atom    5 type  2   force =     0.00000000    0.00000000    0.00000000
     atom    6 type  2   force =     0.00000000    0.00000000    0.00000000
     atom    7 type  1   force =     0.00000000    0.00000000    0.00000000
     atom    8 type  2   force =     0.00000000    0.00000000    0.00000000
     atom    9 type  2   force =     0.00000000    0.00000000    0.00000000
     atom   10 type  1   force =     0.00000000    0.00000000    0.00000000
     atom   11 type  2   force =     0.00000000    0.00000000    0.00000000
     atom   12 type  2   force =     0.00000000    0.00000000    0.00000000
     atom   13 type  1   force =     0.00000000    0.00000000    0.00000000
     atom   14 type  2   force =     0.00000000    0.00000000    0.00000000
     atom   15 type  2   force =     0.00000000    0.00000000    0.00000000
     atom   16 type  1   force =     0.00000000    0.00000000    0.00000000
     atom   17 type  2   force =     0.00000000    0.00000000    0.00000000
     atom   18 type  2   force =     0.00000000    0.00000000    0.00000000
     atom   19 type  1   force =     0.00000000    0.00000000    0.00000000
     atom   20 type  2   force =     0.00000000    0.00000000    0.00000000
     atom   21 type  1   force =     0.00000000    0.00000000    0.00000000
     atom   22 type  2   force =     0.00000000    0.00000000    0.00000000
     atom   23 type  2   force =     0.00000000    0.00000000    0.00000000
     atom   24 type  1   force =     0.00000000    0.00000000    0.00000000
     atom   25 type  2   force =     0.00000000    0.00000000    0.00000000
     atom   26 type  2   force =     0.00000000    0.00000000    0.00000000
     atom   27 type  1   force =     0.00000000    0.00000000    0.00000000
     atom   28 type  2   force =     0.00000000    0.00000000    0.00000000
     atom   29 type  2   force =     0.00000000    0.00000000    0.00000000
     atom   30 type  1   force =     0.00000000    0.00000000    0.00000000
     atom   31 type  2   force =     0.00000000    0.00000000    0.00000000
     atom   32 type  2   force =     0.00000000    0.00000000    0.00000000
     atom   33 type  1   force =     0.00000000    0.00000000    0.00000000
     atom   34 type  2   force =     0.00000000    0.00000000    0.00000000
     atom   35 type  2   force =     0.00000000    0.00000000    0.00000000
     atom   36 type  3   force =     0.00000000    0.00000000    0.00000000
     The SCF correction term to forces
     atom    1 type  1   force =    -0.00000598    0.00001519    0.00000716
     atom    2 type  2   force =    -0.00000148    0.00000698    0.00000370
     atom    3 type  2   force =    -0.00000577    0.00000801   -0.00000386
     atom    4 type  1   force =    -0.00002388   -0.00003896    0.00001205
     atom    5 type  2   force =    -0.00000493   -0.00000793   -0.00001432
     atom    6 type  2   force =     0.00000284   -0.00001530    0.00001027
     atom    7 type  1   force =    -0.00000484    0.00000301    0.00001325
     atom    8 type  2   force =     0.00000579   -0.00000808    0.00001572
     atom    9 type  2   force =     0.00000175   -0.00000906   -0.00000047
     atom   10 type  1   force =     0.00000510    0.00003276    0.00001128
     atom   11 type  2   force =    -0.00000660    0.00001206    0.00000798
     atom   12 type  2   force =    -0.00000540    0.00001633   -0.00000260
     atom   13 type  1   force =     0.00001224   -0.00001877    0.00000108
     atom   14 type  2   force =    -0.00000168    0.00000036   -0.00000324
     atom   15 type  2   force =     0.00000291    0.00000434    0.00000827
     atom   16 type  1   force =     0.00002486   -0.00004755    0.00001188
     atom   17 type  2   force =     0.00000265   -0.00001040    0.00000471
     atom   18 type  2   force =     0.00000950   -0.00001193   -0.00000064
     atom   19 type  1   force =    -0.00000175    0.00001990    0.00001466
     atom   20 type  2   force =     0.00000332   -0.00000907   -0.00000518
     atom   21 type  1   force =    -0.00001136    0.00003773    0.00001792
     atom   22 type  2   force =    -0.00000536    0.00001633    0.00000202
     atom   23 type  2   force =     0.00000075    0.00001346    0.00001264
     atom   24 type  1   force =    -0.00000741   -0.00000432    0.00001220
     atom   25 type  2   force =     0.00000431   -0.00000727    0.00000345
     atom   26 type  2   force =     0.00000318   -0.00000223    0.00001431
     atom   27 type  1   force =    -0.00000855   -0.00002665    0.00001794
     atom   28 type  2   force =    -0.00000475   -0.00000380    0.00001131
     atom   29 type  2   force =    -0.00000821   -0.00001173   -0.00000150
     atom   30 type  1   force =    -0.00000622    0.00000604    0.00002526
     atom   31 type  2   force =    -0.00000487    0.00000159    0.00001602
     atom   32 type  2   force =     0.00000052   -0.00000237   -0.00000286
     atom   33 type  1   force =     0.00000969    0.00002352    0.00002715
     atom   34 type  2   force =     0.00001187    0.00000905    0.00000865
     atom   35 type  2   force =     0.00000534    0.00001348    0.00000512
     atom   36 type  3   force =    -0.00000071    0.00000042    0.00000129

     Total force =     0.007562     Total SCF correction =     0.000134
     Energy error            =      9.4E-05 Ry
     Gradient error          =      2.6E-03 Ry/Bohr

     bfgs converged in  21 scf cycles and  20 bfgs steps
     (criteria: energy <  1.0E-04 Ry, force <  1.0E-02 Ry/Bohr)

     End of BFGS Geometry Optimization

     Final energy             =   -2205.5830107915 Ry

     File ./MoS2-V-O.bfgs deleted, as requested
Begin final coordinates

ATOMIC_POSITIONS (angstrom)
Mo            6.5763532554        1.7061100114        2.6577364589
S             8.1082514608        0.8463135669        4.3336916406
S             8.1634971487        0.8232328711        1.1191104761
Mo            8.0834990537        4.5065514600        2.7878696348
S             6.4585179676        3.8524528540        4.5515302318
S             6.5460176933        3.5813294677        1.1509120504
Mo            6.5341889120        7.1893320648        2.6541133575
S             8.1000123757        6.3500748658        4.3206387624
S             8.1462670360        6.2960739496        1.1257264952
Mo            8.1459187214        9.9310345904        2.7327257574
S             6.5262598358        8.9616606845        4.2943097001
S             6.6036918651        9.0203401747        1.0962696674
Mo            3.4368695892        1.7444449090        2.7376002159
S             5.0246780457        0.8218164476        4.2905470430
S             4.9869132018        0.8163440308        1.1041697924
Mo            4.9775391580        4.5403715882        2.6955088537
S             3.4401374809        3.6252659401        4.3141459377
S             3.4182301838        3.5645752736        1.1252849864
Mo            3.4760858778        7.1728384399        2.6815266269
S             4.9976529578        6.2910847890        1.0611924728
Mo            4.9945683348        9.8954247619        2.6938522213
S             3.4734384732        8.9617978609        4.3106078767
S             3.3988247347        9.0029859051        1.1120501512
Mo            0.2496111217        1.7319682720        2.7617019133
S             1.8623210748        0.8366801512        4.3461913697
S             1.8397642456        0.8398509169        1.1604697881
Mo            1.8519607064        4.4830452334        2.7360951260
S             0.2589128744        3.5850960659        4.3426958636
S             0.2282580473        3.5711139817        1.1859151732
Mo            0.2752522003        7.2134030803        2.7393776787
S             1.9085189152        6.3026970268        4.3179750164
S             1.8568910816        6.3090397559        1.1250097966
Mo            1.8558036743        9.9289876822        2.7465858411
S             0.2723984766        9.0419898936        4.3420383479
S             0.2763636359        9.0290593027        1.1505885349
H             6.4233842613        4.9638474300        5.3849827163
End final coordinates



     Writing all to output data dir ./MoS2-V-O.save/
 
     init_run     :      2.39s CPU      2.57s WALL (       1 calls)
     electrons    :   1679.93s CPU   1838.14s WALL (      21 calls)
     update_pot   :     27.90s CPU     29.07s WALL (      20 calls)
     forces       :     28.31s CPU     30.36s WALL (      21 calls)

     Called by init_run:
     wfcinit      :      0.38s CPU      0.43s WALL (       1 calls)
     potinit      :      1.33s CPU      1.41s WALL (       1 calls)
     hinit0       :      0.17s CPU      0.18s WALL (       1 calls)

     Called by electrons:
     c_bands      :    210.96s CPU    213.31s WALL (     168 calls)
     sum_band     :     54.13s CPU     59.19s WALL (     168 calls)
     v_of_rho     :     69.46s CPU     80.17s WALL (     178 calls)
     newd         :     28.45s CPU     32.10s WALL (     178 calls)
     mix_rho      :   1326.25s CPU   1461.76s WALL (     168 calls)

     Called by c_bands:
     init_us_2    :      3.69s CPU      3.84s WALL (     337 calls)
     init_us_2:cp :      3.69s CPU      3.84s WALL (     337 calls)
     regterg      :    198.77s CPU    200.96s WALL (     168 calls)

     Called by *egterg:
     rdiaghg      :     16.79s CPU     16.94s WALL (     942 calls)
     h_psi        :    113.93s CPU    114.91s WALL (     974 calls)
     s_psi        :     14.54s CPU     14.60s WALL (     974 calls)
     g_psi        :      0.78s CPU      0.79s WALL (     805 calls)

     Called by h_psi:
     h_psi:calbec :     15.64s CPU     15.70s WALL (     974 calls)
     vloc_psi     :     82.23s CPU     83.06s WALL (     974 calls)
     add_vuspsi   :     14.16s CPU     14.25s WALL (     974 calls)

     General routines
     calbec       :     22.34s CPU     22.41s WALL (    1226 calls)
     fft          :     46.71s CPU     54.49s WALL (   12086 calls)
     ffts         :    596.14s CPU    727.00s WALL (  321272 calls)
     fftw         :     72.09s CPU     72.71s WALL (  105464 calls)
     interpolate  :      1.23s CPU      1.44s WALL (     178 calls)
 
     Parallel routines
 
     PWSCF        :  29m 2.76s CPU  31m46.06s WALL

 
   This run was terminated on:   3:18:29   4Nov2023            

=------------------------------------------------------------------------------=
   JOB DONE.
=------------------------------------------------------------------------------=
