
     Program PWSCF v.7.2 starts on  3Nov2023 at 23:50:42 

     This program is part of the open-source Quantum ESPRESSO suite
     for quantum simulation of materials; please cite
         "P. Giannozzi et al., J. Phys.:Condens. Matter 21 395502 (2009);
         "P. Giannozzi et al., J. Phys.:Condens. Matter 29 465901 (2017);
         "P. Giannozzi et al., J. Chem. Phys. 152 154105 (2020);
          URL http://www.quantum-espresso.org", 
     in publications or presentations arising from this work. More details at
     http://www.quantum-espresso.org/quote

     Parallel version (MPI & OpenMP), running on      48 processor cores
     Number of MPI processes:                48
     Threads/MPI process:                     1

     MPI processes distributed on     1 nodes
     91458 MiB available memory on the printing compute node when the environment starts
 
     Waiting for input...
     Reading input from standard input
Warning: card &CELL ignored
Warning: card CELL_DYNAMICS = 'BFGS', ignored
Warning: card CELL_DOFREE = '2DXY' ignored
Warning: card / ignored

     Current dimensions of program PWSCF are:
     Max number of different atomic species (ntypx) = 10
     Max number of k-points (npk) =  40000
     Max angular momentum in pseudopotentials (lmaxx) =  4

     IMPORTANT: XC functional enforced from input :
     Exchange-correlation= RVV10
                           (   1   4  13   4  26   0   0)
     Any further DFT definition will be discarded
     Please, verify this is what you really want


     gamma-point specific algorithms are used
     signal trapping enabled: kill the code with -SIGUSR1 to stop cleanly the simulation 
 
     R & G space division:  proc/nbgrp/npool/nimage =      48
     Subspace diagonalization in iterative solution of the eigenvalue problem:
     one sub-group per band group will be used
     scalapack distributed-memory algorithm (size of sub-group:  2*  2 procs)

 
     Parallelization info
     --------------------
     sticks:   dense  smooth     PW     G-vecs:    dense   smooth      PW
     Min         243     194     47                49060    35090    4376
     Max         246     196     50                49086    35128    4410
     Sum       11735    9389   2349              2355467  1685513  210763
 
     Using Slab Decomposition
 


     bravais-lattice index     =            0
     lattice parameter (alat)  =      17.8707  a.u.
     unit-cell volume          =   17436.2743 (a.u.)^3
     number of atoms/cell      =           36
     number of atomic types    =            3
     number of electrons       =       307.00
     number of Kohn-Sham states=          185
     kinetic-energy cutoff     =      80.0000  Ry
     charge density cutoff     =     400.0000  Ry
     scf convergence threshold =      1.0E-06
     mixing beta               =       0.7000
     number of iterations used =            8  local-TF  mixing
     energy convergence thresh.=      1.0E-04
     force convergence thresh. =      1.0E-02
     Exchange-correlation= RVV10
                           (   1   4  13   4  26   0   0)
     nstep                     =          200


     celldm(1)=  17.870686  celldm(2)=   0.000000  celldm(3)=   0.000000
     celldm(4)=   0.000000  celldm(5)=   0.000000  celldm(6)=   0.000000

     crystal axes: (cart. coord. in units of alat)
               a(1) = (   1.000000   0.000000   0.000000 )  
               a(2) = (   0.000000   1.155671   0.000000 )  
               a(3) = (   0.000000   0.000000   2.643601 )  

     reciprocal axes: (cart. coord. in units 2 pi/alat)
               b(1) = (  1.000000  0.000000  0.000000 )  
               b(2) = (  0.000000  0.865298  0.000000 )  
               b(3) = (  0.000000  0.000000  0.378272 )  


     PseudoPot. # 1 for Mo read from file:
     ../pseudo/Mo_ONCV_PBE-1.0.oncvpsp.upf
     MD5 check sum: 1b5d28e075c9ccadda658a603575cd1f
     Pseudo is Norm-conserving, Zval = 14.0
     Generated using ONCVPSP code by D. R. Hamann
     Using radial grid of 1526 points,  6 beta functions with: 
                l(1) =   0
                l(2) =   0
                l(3) =   1
                l(4) =   1
                l(5) =   2
                l(6) =   2

     PseudoPot. # 2 for S  read from file:
     ../pseudo/s_pbe_v1.4.uspp.F.UPF
     MD5 check sum: 88d86576ff6df21479756cfb9bdac1df
     Pseudo is Ultrasoft + core correction, Zval =  6.0
     Generated by new atomic code, or converted to UPF format
     Using radial grid of  907 points,  6 beta functions with: 
                l(1) =   0
                l(2) =   0
                l(3) =   1
                l(4) =   1
                l(5) =   2
                l(6) =   2
     Q(r) pseudized with  8 coefficients,  rinner =    1.300   1.300   1.300
                                                       1.300   1.300

     PseudoPot. # 3 for H  read from file:
     ../pseudo/H_ONCV_PBE-1.0.oncvpsp.upf
     MD5 check sum: 1790becc920ee074925cf490c71280fe
     Pseudo is Norm-conserving, Zval =  1.0
     Generated using ONCVPSP code by D. R. Hamann
     Using radial grid of 1166 points,  2 beta functions with: 
                l(1) =   0
                l(2) =   0

     atomic species   valence    mass     pseudopotential
        Mo            14.00    95.94000     Mo( 1.00)
        S              6.00    32.06500     S ( 1.00)
        H              1.00     1.00794     H ( 1.00)

     No symmetry found



   Cartesian axes

     site n.     atom                  positions (alat units)
         1           Mo  tau(   1) = (   0.6952221   0.1890506   0.2985846  )
         2           S   tau(   2) = (   0.8646417   0.0856217   0.4689279  )
         3           S   tau(   3) = (   0.8663890   0.0857843   0.1351291  )
         4           Mo  tau(   4) = (   0.8560186   0.4753274   0.2873942  )
         5           S   tau(   5) = (   0.6873294   0.3936244   0.4596353  )
         6           S   tau(   6) = (   0.6929804   0.3713468   0.1185692  )
         7           Mo  tau(   7) = (   0.6862796   0.7633098   0.2825370  )
         8           S   tau(   8) = (   0.8545980   0.6708292   0.4486168  )
         9           S   tau(   9) = (   0.8545123   0.6666874   0.1146125  )
        10           Mo  tau(  10) = (   0.8629403   1.0471007   0.3006803  )
        11           S   tau(  11) = (   0.6868280   0.9456650   0.4634891  )
        12           S   tau(  12) = (   0.6998113   0.9568511   0.1205389  )
        13           Mo  tau(  13) = (   0.3618216   0.1847309   0.2935964  )
        14           S   tau(  14) = (   0.5260962   0.0863870   0.4600448  )
        15           S   tau(  15) = (   0.5348379   0.0894875   0.1297123  )
        16           Mo  tau(  16) = (   0.5265817   0.4772436   0.2784130  )
        17           S   tau(  17) = (   0.3624753   0.3882513   0.4525556  )
        18           S   tau(  18) = (   0.3635411   0.3752055   0.1119148  )
        19           Mo  tau(  19) = (   0.3652268   0.7630864   0.2781795  )
        20           S   tau(  20) = (   0.5269494   0.6690381   0.1096838  )
        21           Mo  tau(  21) = (   0.5300192   1.0470394   0.2900995  )
        22           S   tau(  22) = (   0.3670346   0.9457522   0.4574073  )
        23           S   tau(  23) = (   0.3604225   0.9585725   0.1159032  )
        24           Mo  tau(  24) = (   0.0313099   0.1847895   0.3013130  )
        25           S   tau(  25) = (   0.1956761   0.0838230   0.4650863  )
        26           S   tau(  26) = (   0.1967693   0.0903508   0.1278874  )
        27           Mo  tau(  27) = (   0.1967578   0.4753919   0.2813011  )
        28           S   tau(  28) = (   0.0287851   0.3864324   0.4586755  )
        29           S   tau(  29) = (   0.0244514   0.3729871   0.1239344  )
        30           Mo  tau(  30) = (   0.0286728   0.7631204   0.2856894  )
        31           S   tau(  31) = (   0.2011512   0.6675435   0.4465001  )
        32           S   tau(  32) = (   0.1969214   0.6672839   0.1104564  )
        33           Mo  tau(  33) = (   0.1950294   1.0511147   0.2932237  )
        34           S   tau(  34) = (   0.0312912   0.9612169   0.4667423  )
        35           S   tau(  35) = (   0.0292670   0.9563028   0.1216485  )
        36           H   tau(  36) = (   0.2222222   0.0000000   0.5650415  )

     number of k points=     1  Gaussian smearing, width (Ry)=  0.0100
                       cart. coord. in units 2pi/alat
        k(    1) = (   0.0000000   0.0000000   0.0000000), wk =   2.0000000

     Dense  grid:  1177734 G-vectors     FFT dimensions: ( 120, 135, 320)

     Smooth grid:   842757 G-vectors     FFT dimensions: ( 108, 120, 270)

     Estimated max dynamical RAM per process >     146.59 MB

     Estimated total dynamical RAM >       6.87 GB

     Initial potential from superposition of free atoms

     starting charge     306.9873, renormalised to     307.0000

     negative rho (up, down):  1.411E-04 0.000E+00


---------------------------------------------------------------------------------
Carrying out rVV10 run using the following parameters:
Nqs =      20    Nr_points =    1024   r_max =   100.000
b_value =  6.30000    beta =  0.00901
     q_mesh =  0.00010000  0.00030000  0.00058939  0.00100810
               0.00161396  0.00249058  0.00375900  0.00559430
               0.00824984  0.01209221  0.01765183  0.02569619
               0.03733578  0.05417739  0.07854596  0.11380545
               0.16482331  0.23864234  0.34545298  0.50000000

Gradients computed in Reciprocal space

---------------------------------------------------------------------------------


     Starting wfcs are  213 randomized atomic wfcs

     total cpu time spent up to now is        2.7 secs

     Self-consistent Calculation

     iteration #  1     ecut=    80.00 Ry     beta= 0.70
     Davidson diagonalization with overlap
     ethr =  1.00E-02,  avg # of iterations =  2.0

     Threshold (ethr) on eigenvalues was too large:
     Diagonalizing with lowered threshold

     Davidson diagonalization with overlap
     ethr =  3.96E-04,  avg # of iterations =  4.0

     negative rho (up, down):  2.167E-08 0.000E+00

     total cpu time spent up to now is       16.1 secs

     total energy              =   -2205.60599546 Ry
     estimated scf accuracy    <       1.50014111 Ry

     iteration #  2     ecut=    80.00 Ry     beta= 0.70
     Davidson diagonalization with overlap
     ethr =  4.89E-04,  avg # of iterations =  1.0

     total cpu time spent up to now is       18.4 secs

     total energy              =   -2205.43129641 Ry
     estimated scf accuracy    <       0.61520868 Ry

     iteration #  3     ecut=    80.00 Ry     beta= 0.70
     Davidson diagonalization with overlap
     ethr =  2.00E-04,  avg # of iterations =  5.0

     total cpu time spent up to now is       20.9 secs

     total energy              =   -2205.52573182 Ry
     estimated scf accuracy    <       0.06682828 Ry

     iteration #  4     ecut=    80.00 Ry     beta= 0.70
     Davidson diagonalization with overlap
     ethr =  2.18E-05,  avg # of iterations = 10.0

     total cpu time spent up to now is       23.7 secs

     total energy              =   -2205.53022378 Ry
     estimated scf accuracy    <       0.03246303 Ry

     iteration #  5     ecut=    80.00 Ry     beta= 0.70
     Davidson diagonalization with overlap
     ethr =  1.06E-05,  avg # of iterations =  2.0

     total cpu time spent up to now is       25.8 secs

     total energy              =   -2205.52876127 Ry
     estimated scf accuracy    <       0.02013918 Ry

     iteration #  6     ecut=    80.00 Ry     beta= 0.70
     Davidson diagonalization with overlap
     ethr =  6.56E-06,  avg # of iterations =  2.0

     total cpu time spent up to now is       28.0 secs

     total energy              =   -2205.52852288 Ry
     estimated scf accuracy    <       0.01233158 Ry

     iteration #  7     ecut=    80.00 Ry     beta= 0.70
     Davidson diagonalization with overlap
     ethr =  4.02E-06,  avg # of iterations =  1.0

     total cpu time spent up to now is       30.1 secs

     total energy              =   -2205.52671115 Ry
     estimated scf accuracy    <       0.00948802 Ry

     iteration #  8     ecut=    80.00 Ry     beta= 0.70
     Davidson diagonalization with overlap
     ethr =  3.09E-06,  avg # of iterations =  2.0

     negative rho (up, down):  3.705E-03 0.000E+00

     total cpu time spent up to now is       34.1 secs

     total energy              =   -2205.52600736 Ry
     estimated scf accuracy    <       0.00480414 Ry

     iteration #  9     ecut=    80.00 Ry     beta= 0.70
     Davidson diagonalization with overlap
     c_bands:  1 eigenvalues not converged
     ethr =  1.56E-06,  avg # of iterations = 20.0

     negative rho (up, down):  2.000E-02 0.000E+00

     total cpu time spent up to now is       39.0 secs

     total energy              =   -2205.52569069 Ry
     estimated scf accuracy    <       0.00289528 Ry

     iteration # 10     ecut=    80.00 Ry     beta= 0.70
     Davidson diagonalization with overlap
     ethr =  9.43E-07,  avg # of iterations = 11.0

     negative rho (up, down):  3.133E-02 0.000E+00

     total cpu time spent up to now is       43.3 secs

     total energy              =   -2205.52570623 Ry
     estimated scf accuracy    <       0.00155227 Ry

     iteration # 11     ecut=    80.00 Ry     beta= 0.70
     Davidson diagonalization with overlap
     ethr =  5.06E-07,  avg # of iterations =  2.0

     negative rho (up, down):  2.291E-02 0.000E+00

     total cpu time spent up to now is       48.2 secs

     total energy              =   -2205.52570529 Ry
     estimated scf accuracy    <       0.00063855 Ry

     iteration # 12     ecut=    80.00 Ry     beta= 0.70
     Davidson diagonalization with overlap
     ethr =  2.08E-07,  avg # of iterations =  2.0

     negative rho (up, down):  1.215E-02 0.000E+00

     total cpu time spent up to now is       54.6 secs

     total energy              =   -2205.52578874 Ry
     estimated scf accuracy    <       0.00013094 Ry

     iteration # 13     ecut=    80.00 Ry     beta= 0.70
     Davidson diagonalization with overlap
     ethr =  4.27E-08,  avg # of iterations =  5.0

     negative rho (up, down):  3.090E-03 0.000E+00

     total cpu time spent up to now is       62.6 secs

     total energy              =   -2205.52584134 Ry
     estimated scf accuracy    <       0.00002463 Ry

     iteration # 14     ecut=    80.00 Ry     beta= 0.70
     Davidson diagonalization with overlap
     ethr =  8.02E-09,  avg # of iterations =  4.0

     negative rho (up, down):  6.891E-04 0.000E+00

     total cpu time spent up to now is       70.2 secs

     total energy              =   -2205.52583767 Ry
     estimated scf accuracy    <       0.00000546 Ry

     iteration # 15     ecut=    80.00 Ry     beta= 0.70
     Davidson diagonalization with overlap
     ethr =  1.78E-09,  avg # of iterations =  5.0

     negative rho (up, down):  3.373E-04 0.000E+00

     total cpu time spent up to now is       78.4 secs

     total energy              =   -2205.52584231 Ry
     estimated scf accuracy    <       0.00000147 Ry

     iteration # 16     ecut=    80.00 Ry     beta= 0.70
     Davidson diagonalization with overlap
     ethr =  4.80E-10,  avg # of iterations =  4.0

     negative rho (up, down):  1.370E-04 0.000E+00

     total cpu time spent up to now is       80.5 secs

     End of self-consistent calculation

          k = 0.0000 0.0000 0.0000 (105382 PWs)   bands (ev):

   -62.8955 -62.8486 -62.8118 -62.7962 -62.7938 -62.7876 -62.7779 -62.7650
   -62.7175 -62.5750 -62.5461 -62.4960 -37.1999 -37.1548 -37.1184 -37.0938
   -37.0912 -37.0691 -37.0620 -37.0441 -37.0225 -37.0095 -36.9969 -36.9893
   -36.9761 -36.9750 -36.9654 -36.9596 -36.9538 -36.9443 -36.9403 -36.9354
   -36.9047 -36.8756 -36.8641 -36.8429 -36.8300 -36.8043 -36.7928 -36.7862
   -36.7541 -36.7326 -36.7204 -36.7007 -36.6767 -36.6424 -36.5250 -36.5212
   -16.7993 -15.7395 -15.1036 -15.0217 -14.8606 -14.7827 -14.6594 -14.4224
   -14.3891 -14.3567 -14.3174 -14.2884 -14.2700 -14.2117 -14.1166 -14.0615
   -14.0346 -14.0321 -13.9473 -13.8876 -13.7501 -13.7367 -13.7130  -9.5825
    -7.5821  -7.4273  -7.3328  -7.2505  -7.1937  -7.1536  -7.0999  -7.0657
    -6.7952  -6.7379  -6.7145  -6.6296  -6.5358  -6.4710  -6.4444  -6.3646
    -6.2978  -6.2129  -6.1581  -5.9396  -5.8987  -5.8430  -5.7450  -5.7287
    -5.7058  -5.6476  -5.5938  -5.5838  -5.5313  -5.4894  -5.4702  -5.4133
    -5.4026  -5.3024  -5.2724  -5.1136  -5.0073  -4.9446  -4.9077  -4.8942
    -4.8505  -4.7536  -4.6001  -4.5784  -4.4184  -4.3035  -4.2197  -4.1605
    -4.0962  -4.0149  -3.9695  -3.8235  -3.7858  -3.7252  -3.6965  -3.6528
    -3.6213  -3.5198  -3.4883  -3.4626  -3.4447  -3.3857  -3.3685  -3.3183
    -3.2991  -3.1407  -3.0753  -2.8794  -2.8211  -2.7649  -2.6922  -2.6886
    -2.6595  -2.6056  -2.5806  -2.5339  -2.4522  -2.1970  -1.9503  -1.9242
    -1.8076  -0.6489  -0.6237  -0.5174  -0.1491  -0.0867  -0.0656  -0.0110
     0.1014   0.1874   0.2053   0.2848   0.3228   0.3291   0.4266   0.5332
     0.5419   0.6325   0.6349   0.6770   0.6812   0.7430   0.7645   0.8045
     0.8335   0.8670   0.9060   0.9495   1.0007   1.0342   1.1190   1.2386
     1.4333

     the Fermi energy is    -0.7057 ev

!    total energy              =   -2205.52584284 Ry
     estimated scf accuracy    <       0.00000066 Ry
     smearing contrib. (-TS)   =      -0.00949802 Ry
     internal energy E=F+TS    =   -2205.51634482 Ry

     The total energy is F=E-TS. E is the sum of the following terms:
     one-electron contribution =  -18050.74543818 Ry
     hartree contribution      =    9012.74819819 Ry
     xc contribution           =    -385.43414472 Ry
     ewald contribution        =    7217.91503989 Ry

     convergence has been achieved in  16 iterations

     negative rho (up, down):  1.370E-04 0.000E+00

     Forces acting on atoms (cartesian axes, Ry/au):

     atom    1 type  1   force =     0.01063533   -0.02216672    0.01067824
     atom    2 type  2   force =    -0.02191476    0.01767918   -0.00061659
     atom    3 type  2   force =    -0.00763654    0.00953289   -0.00334931
     atom    4 type  1   force =     0.00795370   -0.00194016    0.00090452
     atom    5 type  2   force =    -0.00173736   -0.00510301   -0.00631082
     atom    6 type  2   force =     0.00445551    0.01095232    0.00112017
     atom    7 type  1   force =     0.00293906   -0.00529936   -0.00807567
     atom    8 type  2   force =     0.00046692   -0.00496013    0.01785050
     atom    9 type  2   force =     0.01395626    0.00445065    0.01112204
     atom   10 type  1   force =    -0.00882535    0.01148549   -0.02849879
     atom   11 type  2   force =     0.00436924   -0.00155593   -0.00482097
     atom   12 type  2   force =    -0.00003962    0.00184942    0.00483195
     atom   13 type  1   force =     0.01726623    0.00386967   -0.00237958
     atom   14 type  2   force =     0.01326420    0.00106032    0.00828935
     atom   15 type  2   force =    -0.01453318    0.00151349   -0.00890096
     atom   16 type  1   force =     0.00078331    0.00187096    0.00180971
     atom   17 type  2   force =     0.00806076    0.00757772    0.00099677
     atom   18 type  2   force =    -0.00448611   -0.00652063    0.01507771
     atom   19 type  1   force =     0.00680890   -0.00325320   -0.00504822
     atom   20 type  2   force =     0.00269538   -0.00518487    0.00095761
     atom   21 type  1   force =    -0.00778967    0.00674061   -0.00230897
     atom   22 type  2   force =    -0.00048910   -0.00349301    0.00120342
     atom   23 type  2   force =    -0.00159474    0.00223766    0.00894467
     atom   24 type  1   force =    -0.03300061    0.00285950   -0.02629491
     atom   25 type  2   force =     0.00981562    0.08728826   -0.08616585
     atom   26 type  2   force =    -0.01187865   -0.00118608   -0.00367126
     atom   27 type  1   force =    -0.00536226   -0.00865333    0.00891255
     atom   28 type  2   force =    -0.00153801    0.00571616   -0.00708077
     atom   29 type  2   force =     0.00175130   -0.00177742   -0.00273377
     atom   30 type  1   force =    -0.00252998    0.01352490   -0.00642940
     atom   31 type  2   force =     0.00136545   -0.00169624    0.01713433
     atom   32 type  2   force =    -0.01098074    0.00556880    0.00812129
     atom   33 type  1   force =     0.00936805   -0.01738479   -0.03323761
     atom   34 type  2   force =     0.00138338   -0.04575228   -0.00991766
     atom   35 type  2   force =    -0.00700611    0.00612795    0.01464783
     atom   36 type  3   force =     0.02400419   -0.06597879    0.11323847
     The non-local contrib.  to forces
     atom    1 type  1   force =    -0.00182116    0.03943518   -0.01019997
     atom    2 type  2   force =    -0.01189636    0.00694688   -0.26604666
     atom    3 type  2   force =    -0.00751613    0.00382800    0.27315562
     atom    4 type  1   force =    -0.00710662    0.01380634    0.00436389
     atom    5 type  2   force =     0.00672212   -0.03411328   -0.25431367
     atom    6 type  2   force =     0.00092476    0.00898932    0.26198991
     atom    7 type  1   force =    -0.02905904   -0.01119459   -0.01603748
     atom    8 type  2   force =     0.00556525   -0.00418265   -0.25300604
     atom    9 type  2   force =     0.01107967   -0.01115472    0.27585450
     atom   10 type  1   force =     0.00018949   -0.00562407   -0.00128071
     atom   11 type  2   force =     0.01520314    0.00809096   -0.25695809
     atom   12 type  2   force =    -0.01181825   -0.01202757    0.26336187
     atom   13 type  1   force =     0.00160899    0.02325080   -0.01647867
     atom   14 type  2   force =     0.00686180   -0.00586885   -0.25753914
     atom   15 type  2   force =    -0.01831036    0.00014258    0.26162689
     atom   16 type  1   force =     0.00311437    0.04850788   -0.01829483
     atom   17 type  2   force =     0.00122856   -0.02741103   -0.24802119
     atom   18 type  2   force =    -0.00418093   -0.00850690    0.27394531
     atom   19 type  1   force =     0.02600408   -0.01305818   -0.01177504
     atom   20 type  2   force =    -0.00024590   -0.02136178    0.26367177
     atom   21 type  1   force =     0.00415991    0.01510897    0.00539759
     atom   22 type  2   force =    -0.01319908    0.00569578   -0.24013177
     atom   23 type  2   force =     0.00344594   -0.01324450    0.26893988
     atom   24 type  1   force =     0.00367992    0.01395363   -0.02677182
     atom   25 type  2   force =     0.04576296   -0.11732578    0.03056404
     atom   26 type  2   force =    -0.00103779   -0.01466196    0.27148779
     atom   27 type  1   force =     0.00182982    0.02185015    0.00894588
     atom   28 type  2   force =    -0.00377172   -0.02270634   -0.26941168
     atom   29 type  2   force =     0.00501578   -0.00224806    0.26574422
     atom   30 type  1   force =    -0.00179757    0.01112540    0.00738312
     atom   31 type  2   force =    -0.00703182   -0.00139557   -0.25153620
     atom   32 type  2   force =    -0.00647879   -0.01305648    0.27229616
     atom   33 type  1   force =    -0.00118832   -0.00460495    0.00070885
     atom   34 type  2   force =     0.00351236   -0.03976686   -0.25990963
     atom   35 type  2   force =    -0.00002429   -0.01108157    0.27358323
     atom   36 type  3   force =    -0.01653735    0.05286988   -0.05968970
     The ionic contribution  to forces
     atom    1 type  1   force =     0.41608467    0.32262718    5.63520514
     atom    2 type  2   force =    -0.83163140    0.46108233   39.23706505
     atom    3 type  2   force =    -0.19460160    0.03022757  -36.12166002
     atom    4 type  1   force =     0.05116405    0.63926268    0.67291010
     atom    5 type  2   force =    -0.95635727    1.54584316   38.75020735
     atom    6 type  2   force =     0.34846173   -0.47992302  -38.02203766
     atom    7 type  1   force =    -2.59958158   -2.85358017    2.56456979
     atom    8 type  2   force =    -1.00985521   -0.00138081   37.39281643
     atom    9 type  2   force =     0.33316728   -0.04614265  -37.99501726
     atom   10 type  1   force =    -1.28223808   -0.40602503    5.52186598
     atom   11 type  2   force =    -0.53713430   -1.66890064   39.12844811
     atom   12 type  2   force =     0.44640819    0.67175287  -37.86562722
     atom   13 type  1   force =     0.70580809    1.30262162    2.45291526
     atom   14 type  2   force =     0.30880790    0.07631640   38.43643026
     atom   15 type  2   force =     0.19396773   -0.04732240  -36.84924732
     atom   16 type  1   force =     0.02870420    4.01319751    0.47691518
     atom   17 type  2   force =     0.86480908    1.63833504   37.90571662
     atom   18 type  2   force =    -0.14754769   -0.61171243  -38.58340260
     atom   19 type  1   force =     2.78594637   -2.60921346    0.57050537
     atom   20 type  2   force =     0.24010044   -0.20866780  -38.47254244
     atom   21 type  1   force =     0.27227589   -0.05856481    0.96452048
     atom   22 type  2   force =     0.69217446   -2.06606413   38.26975107
     atom   23 type  2   force =    -0.06118856    0.62446419  -38.35146562
     atom   24 type  1   force =    -0.80735668    1.41061834    5.51764212
     atom   25 type  2   force =     0.23861562    1.60790411   37.70668681
     atom   26 type  2   force =    -0.29670215    0.09542355  -37.44779678
     atom   27 type  1   force =     0.01457359    0.51531901   -2.30236594
     atom   28 type  2   force =    -0.01082446    1.12683609   38.18730424
     atom   29 type  2   force =    -0.28283710   -0.39441667  -37.28069880
     atom   30 type  1   force =    -0.42163424   -1.05219248   -0.10096365
     atom   31 type  2   force =     1.22098583   -0.12221655   37.31568070
     atom   32 type  2   force =    -0.48278952   -0.02275088  -38.64069983
     atom   33 type  1   force =     0.70654371   -1.19763217    1.24691270
     atom   34 type  2   force =    -0.02555202   -1.72366623   39.22981339
     atom   35 type  2   force =    -0.33142804    0.43952912  -37.86699638
     atom   36 type  3   force =     0.41066106   -0.95098845    8.71663939
     The local contribution  to forces
     atom    1 type  1   force =    -0.40348126   -0.38422838   -5.61334064
     atom    2 type  2   force =     0.82156800   -0.44994172  -38.99168027
     atom    3 type  2   force =     0.19425487   -0.02419690   35.86658608
     atom    4 type  1   force =    -0.03586327   -0.65505196   -0.67535733
     atom    5 type  2   force =     0.94870158   -1.51885327  -38.52206054
     atom    6 type  2   force =    -0.34486118    0.48275254   37.78225344
     atom    7 type  1   force =     2.63186711    2.85953524   -2.55556968
     atom    8 type  2   force =     1.00502832    0.00006077  -37.14181316
     atom    9 type  2   force =    -0.32985790    0.06103170   37.75156230
     atom   10 type  1   force =     1.27339015    0.42318522   -5.54806319
     atom   11 type  2   force =     0.52708253    1.65998503  -38.89631347
     atom   12 type  2   force =    -0.43568187   -0.65893891   37.62826597
     atom   13 type  1   force =    -0.69024880   -1.32208934   -2.43777627
     atom   14 type  2   force =    -0.30234703   -0.06919595  -38.19044349
     atom   15 type  2   force =    -0.19119230    0.04864289   36.59967943
     atom   16 type  1   force =    -0.03099065   -4.06000652   -0.45579778
     atom   17 type  2   force =    -0.85824604   -1.60506690  -37.67624049
     atom   18 type  2   force =     0.14697313    0.61374707   38.34583754
     atom   19 type  1   force =    -2.80534574    2.61911857   -0.56277384
     atom   20 type  2   force =    -0.23726497    0.22410965   38.23112988
     atom   21 type  1   force =    -0.28426244    0.05027770   -0.97126098
     atom   22 type  2   force =    -0.68028948    2.05796356  -38.04727437
     atom   23 type  2   force =     0.05646971   -0.61002347   38.11272845
     atom   24 type  1   force =     0.77064041   -1.42167439   -5.51609495
     atom   25 type  2   force =    -0.27159420   -1.41250988  -37.82500868
     atom   26 type  2   force =     0.28604385   -0.08273064   37.19435126
     atom   27 type  1   force =    -0.02205585   -0.54590649    2.30329680
     atom   28 type  2   force =     0.01287460   -1.10031731  -37.94520409
     atom   29 type  2   force =     0.28005830    0.39516750   37.03333136
     atom   30 type  1   force =     0.42082637    1.05455715    0.08813896
     atom   31 type  2   force =    -1.21312234    0.12172171  -37.06692193
     atom   32 type  2   force =     0.47810265    0.04053608   38.39778365
     atom   33 type  1   force =    -0.69611696    1.18494632   -1.27976220
     atom   34 type  2   force =     0.02355072    1.71684492  -38.99965169
     atom   35 type  2   force =     0.32465319   -0.42325890   37.62965045
     atom   36 type  3   force =    -0.37012954    0.83214329   -8.54364939
     The core correction contribution to forces
     atom    1 type  1   force =     0.00000000    0.00000000    0.00000000
     atom    2 type  2   force =     0.00013209   -0.00038393    0.02043399
     atom    3 type  2   force =     0.00028084   -0.00030164   -0.02103423
     atom    4 type  1   force =     0.00000000    0.00000000    0.00000000
     atom    5 type  2   force =    -0.00066955    0.00198756    0.02035939
     atom    6 type  2   force =     0.00006208   -0.00091579   -0.02080169
     atom    7 type  1   force =     0.00000000    0.00000000    0.00000000
     atom    8 type  2   force =    -0.00025301    0.00050513    0.02029669
     atom    9 type  2   force =    -0.00038990    0.00068464   -0.02092264
     atom   10 type  1   force =     0.00000000    0.00000000    0.00000000
     atom   11 type  2   force =    -0.00072821   -0.00076534    0.02042812
     atom   12 type  2   force =     0.00109268    0.00104457   -0.02081139
     atom   13 type  1   force =     0.00000000    0.00000000    0.00000000
     atom   14 type  2   force =    -0.00010501   -0.00018346    0.02026575
     atom   15 type  2   force =     0.00098768    0.00005723   -0.02060507
     atom   16 type  1   force =     0.00000000    0.00000000    0.00000000
     atom   17 type  2   force =     0.00016341    0.00164515    0.02004802
     atom   18 type  2   force =     0.00016113   -0.00011306   -0.02103120
     atom   19 type  1   force =     0.00000000    0.00000000    0.00000000
     atom   20 type  2   force =     0.00014826    0.00079087   -0.02108111
     atom   21 type  1   force =     0.00000000    0.00000000    0.00000000
     atom   22 type  2   force =     0.00074682   -0.00102185    0.01930986
     atom   23 type  2   force =    -0.00036159    0.00108550   -0.02092503
     atom   24 type  1   force =     0.00000000    0.00000000    0.00000000
     atom   25 type  2   force =    -0.00302479    0.00919894    0.00202290
     atom   26 type  2   force =    -0.00022331    0.00078658   -0.02131975
     atom   27 type  1   force =     0.00000000    0.00000000    0.00000000
     atom   28 type  2   force =     0.00015607    0.00188025    0.02062933
     atom   29 type  2   force =    -0.00050327   -0.00027931   -0.02071218
     atom   30 type  1   force =     0.00000000    0.00000000    0.00000000
     atom   31 type  2   force =     0.00045828    0.00016213    0.02038731
     atom   32 type  2   force =     0.00010374    0.00079565   -0.02095293
     atom   33 type  1   force =     0.00000000    0.00000000    0.00000000
     atom   34 type  2   force =    -0.00010191    0.00087831    0.02024928
     atom   35 type  2   force =    -0.00020644    0.00095402   -0.02121634
     atom   36 type  3   force =     0.00000000    0.00000000    0.00000000
     The Hubbard contrib.    to forces
     atom    1 type  1   force =     0.00000000    0.00000000    0.00000000
     atom    2 type  2   force =     0.00000000    0.00000000    0.00000000
     atom    3 type  2   force =     0.00000000    0.00000000    0.00000000
     atom    4 type  1   force =     0.00000000    0.00000000    0.00000000
     atom    5 type  2   force =     0.00000000    0.00000000    0.00000000
     atom    6 type  2   force =     0.00000000    0.00000000    0.00000000
     atom    7 type  1   force =     0.00000000    0.00000000    0.00000000
     atom    8 type  2   force =     0.00000000    0.00000000    0.00000000
     atom    9 type  2   force =     0.00000000    0.00000000    0.00000000
     atom   10 type  1   force =     0.00000000    0.00000000    0.00000000
     atom   11 type  2   force =     0.00000000    0.00000000    0.00000000
     atom   12 type  2   force =     0.00000000    0.00000000    0.00000000
     atom   13 type  1   force =     0.00000000    0.00000000    0.00000000
     atom   14 type  2   force =     0.00000000    0.00000000    0.00000000
     atom   15 type  2   force =     0.00000000    0.00000000    0.00000000
     atom   16 type  1   force =     0.00000000    0.00000000    0.00000000
     atom   17 type  2   force =     0.00000000    0.00000000    0.00000000
     atom   18 type  2   force =     0.00000000    0.00000000    0.00000000
     atom   19 type  1   force =     0.00000000    0.00000000    0.00000000
     atom   20 type  2   force =     0.00000000    0.00000000    0.00000000
     atom   21 type  1   force =     0.00000000    0.00000000    0.00000000
     atom   22 type  2   force =     0.00000000    0.00000000    0.00000000
     atom   23 type  2   force =     0.00000000    0.00000000    0.00000000
     atom   24 type  1   force =     0.00000000    0.00000000    0.00000000
     atom   25 type  2   force =     0.00000000    0.00000000    0.00000000
     atom   26 type  2   force =     0.00000000    0.00000000    0.00000000
     atom   27 type  1   force =     0.00000000    0.00000000    0.00000000
     atom   28 type  2   force =     0.00000000    0.00000000    0.00000000
     atom   29 type  2   force =     0.00000000    0.00000000    0.00000000
     atom   30 type  1   force =     0.00000000    0.00000000    0.00000000
     atom   31 type  2   force =     0.00000000    0.00000000    0.00000000
     atom   32 type  2   force =     0.00000000    0.00000000    0.00000000
     atom   33 type  1   force =     0.00000000    0.00000000    0.00000000
     atom   34 type  2   force =     0.00000000    0.00000000    0.00000000
     atom   35 type  2   force =     0.00000000    0.00000000    0.00000000
     atom   36 type  3   force =     0.00000000    0.00000000    0.00000000
     The SCF correction term to forces
     atom    1 type  1   force =    -0.00014695   -0.00000501   -0.00095908
     atom    2 type  2   force =    -0.00008712   -0.00002868   -0.00036150
     atom    3 type  2   force =    -0.00005455   -0.00002845   -0.00036955
     atom    4 type  1   force =    -0.00024050    0.00003848   -0.00098493
     atom    5 type  2   force =    -0.00013427    0.00002851   -0.00047615
     atom    6 type  2   force =    -0.00013193    0.00004497   -0.00025662
     atom    7 type  1   force =    -0.00028747   -0.00006415   -0.00101109
     atom    8 type  2   force =    -0.00001848    0.00003311   -0.00041621
     atom    9 type  2   force =    -0.00004293    0.00002738   -0.00032765
     atom   10 type  1   force =    -0.00016696   -0.00005494   -0.00099366
     atom   11 type  2   force =    -0.00005396    0.00002975   -0.00039843
     atom   12 type  2   force =    -0.00004042    0.00001415   -0.00033006
     atom   13 type  1   force =     0.00009790    0.00008229   -0.00101269
     atom   14 type  2   force =     0.00004650   -0.00001212   -0.00039683
     atom   15 type  2   force =     0.00001402   -0.00001112   -0.00032768
     atom   16 type  1   force =    -0.00004465    0.00016779   -0.00098564
     atom   17 type  2   force =     0.00010571    0.00007115   -0.00047898
     atom   18 type  2   force =     0.00010821    0.00006038   -0.00024414
     atom   19 type  1   force =     0.00020415   -0.00010444   -0.00097749
     atom   20 type  2   force =    -0.00004248   -0.00006011   -0.00019328
     atom   21 type  1   force =     0.00003693   -0.00008555   -0.00093885
     atom   22 type  2   force =     0.00007815   -0.00007068   -0.00042417
     atom   23 type  2   force =     0.00003973   -0.00004837   -0.00030580
     atom   24 type  1   force =     0.00003570   -0.00004237   -0.00104306
     atom   25 type  2   force =     0.00005599    0.00001655   -0.00040370
     atom   26 type  2   force =     0.00004071   -0.00000791   -0.00036657
     atom   27 type  1   force =     0.00029014    0.00007970   -0.00093697
     atom   28 type  2   force =     0.00002746    0.00001917   -0.00037136
     atom   29 type  2   force =     0.00001755   -0.00000518   -0.00037117
     atom   30 type  1   force =     0.00007543    0.00003052   -0.00096061
     atom   31 type  2   force =     0.00007546    0.00002774   -0.00044833
     atom   32 type  2   force =     0.00008115    0.00004013   -0.00027855
     atom   33 type  1   force =     0.00012959   -0.00009829   -0.00106975
     atom   34 type  2   force =    -0.00002581   -0.00004672   -0.00039180
     atom   35 type  2   force =    -0.00000056   -0.00001902   -0.00034594
     atom   36 type  3   force =     0.00000999   -0.00000781   -0.00003462

     Total force =     0.212816     Total SCF correction =     0.003929

     BFGS Geometry Optimization
     Energy error            =      0.0E+00 Ry
     Gradient error          =      1.1E-01 Ry/Bohr

     number of scf cycles    =   1
     number of bfgs steps    =   0

     energy             new  =   -2205.5258428419 Ry

     new trust radius        =       0.1332379578 bohr
     new conv_thr            =       0.0000010000 Ry


ATOMIC_POSITIONS (angstrom)
Mo            6.5801763849        1.7760761044        2.8292937126
S             8.1651125485        0.8190594430        4.4342120677
S             8.1891920056        0.8162863344        1.2761110495
Mo            8.0993714797        4.4940302584        2.7182970457
S             6.4989898867        3.7197110911        4.3433211058
S             6.5557075531        3.5175332761        1.1218729942
Mo            6.4915369803        7.2156329812        2.6676110222
S             8.0819748135        6.3412462028        4.2519076409
S             8.0883029794        6.3070574976        1.0897485262
Mo            8.1559488736        9.9082582727        2.8283808520
S             6.4974796963        8.9421034499        4.3805543862
S             6.6179262321        9.0496898854        1.1424642630
Mo            3.4307965570        1.7490035908        2.7752119427
S             4.9821846012        0.8175023067        4.3549196265
S             5.0501431244        0.8470630156        1.2219482747
Mo            4.9801711918        4.5141680735        2.6338422057
S             3.4321072328        3.6756096447        4.2802370471
S             3.4355466356        3.5447781266        1.0663304600
Mo            3.4574648558        7.2146030212        2.6280054601
S             4.9846605268        6.3241885734        1.0377604770
Mo            5.0081418029        9.9051670260        2.7421791059
S             3.4706992946        8.9419028453        4.3262281326
S             3.4075852666        9.0661741003        1.1008016141
Mo            0.2786273149        1.7490227161        2.8355300394
S             1.8556564162        0.8388849641        4.3526124321
S             1.8545141217        0.8537982729        1.2074581051
Mo            1.8578537247        4.4910876147        2.6649136999
S             0.2713999689        3.6574236880        4.3338371161
S             0.2321579536        3.5263086571        1.1705712341
Mo            0.2698133459        7.2238031606        2.6982941372
S             1.9029608117        6.3119012245        4.2315112206
S             1.8564274572        6.3132906961        1.0488568868
Mo            1.8493040199        9.9309395185        2.7553576654
S             0.2966449548        9.0657867630        4.4086212660
S             0.2730639273        9.0467684840        1.1581520761
H             2.1142046942       -0.0349144702        5.4033849805



     Writing config-only to output data dir ./MoS2-V-O.save/
     NEW-OLD atomic charge density approx. for the potential

     negative rho (up, down):  1.497E-04 0.000E+00

     total cpu time spent up to now is       83.8 secs

     Self-consistent Calculation

     iteration #  1     ecut=    80.00 Ry     beta= 0.70
     Davidson diagonalization with overlap
     ethr =  1.00E-06,  avg # of iterations = 15.0

     negative rho (up, down):  2.548E-04 0.000E+00

     total cpu time spent up to now is       97.0 secs

     total energy              =   -2205.54875481 Ry
     estimated scf accuracy    <       0.00558508 Ry

     iteration #  2     ecut=    80.00 Ry     beta= 0.70
     Davidson diagonalization with overlap
     ethr =  1.82E-06,  avg # of iterations =  2.0

     negative rho (up, down):  3.650E-04 0.000E+00

     total cpu time spent up to now is      115.2 secs

     total energy              =   -2205.54884680 Ry
     estimated scf accuracy    <       0.00092063 Ry

     iteration #  3     ecut=    80.00 Ry     beta= 0.70
     Davidson diagonalization with overlap
     ethr =  3.00E-07,  avg # of iterations =  5.0

     negative rho (up, down):  4.439E-04 0.000E+00

     total cpu time spent up to now is      132.8 secs

     total energy              =   -2205.54894407 Ry
     estimated scf accuracy    <       0.00037065 Ry

     iteration #  4     ecut=    80.00 Ry     beta= 0.70
     Davidson diagonalization with overlap
     ethr =  1.21E-07,  avg # of iterations =  2.0

     negative rho (up, down):  4.715E-04 0.000E+00

     total cpu time spent up to now is      148.9 secs

     total energy              =   -2205.54896704 Ry
     estimated scf accuracy    <       0.00001875 Ry

     iteration #  5     ecut=    80.00 Ry     beta= 0.70
     Davidson diagonalization with overlap
     ethr =  6.11E-09,  avg # of iterations =  5.0

     negative rho (up, down):  4.614E-04 0.000E+00

     total cpu time spent up to now is      162.3 secs

     total energy              =   -2205.54897396 Ry
     estimated scf accuracy    <       0.00001124 Ry

     iteration #  6     ecut=    80.00 Ry     beta= 0.70
     Davidson diagonalization with overlap
     ethr =  3.66E-09,  avg # of iterations =  2.0

     negative rho (up, down):  4.138E-04 0.000E+00

     total cpu time spent up to now is      172.9 secs

     total energy              =   -2205.54897469 Ry
     estimated scf accuracy    <       0.00000304 Ry

     iteration #  7     ecut=    80.00 Ry     beta= 0.70
     Davidson diagonalization with overlap
     ethr =  9.91E-10,  avg # of iterations =  6.0

     negative rho (up, down):  1.368E-04 0.000E+00

     total cpu time spent up to now is      175.0 secs

     End of self-consistent calculation

          k = 0.0000 0.0000 0.0000 (105382 PWs)   bands (ev):

   -62.8784 -62.8454 -62.8142 -62.7991 -62.7960 -62.7889 -62.7765 -62.7749
   -62.7198 -62.5967 -62.5696 -62.5236 -37.1861 -37.1532 -37.1162 -37.0950
   -37.0884 -37.0708 -37.0639 -37.0483 -37.0196 -37.0115 -37.0017 -36.9857
   -36.9803 -36.9773 -36.9728 -36.9599 -36.9566 -36.9512 -36.9484 -36.9436
   -36.9075 -36.8815 -36.8702 -36.8422 -36.8329 -36.8093 -36.8040 -36.7934
   -36.7711 -36.7517 -36.7414 -36.7248 -36.7022 -36.6689 -36.5508 -36.5431
   -16.4267 -15.6805 -15.1191 -15.0253 -14.8707 -14.7879 -14.6538 -14.4327
   -14.3881 -14.3590 -14.3263 -14.3075 -14.2836 -14.2239 -14.1213 -14.0747
   -14.0455 -14.0409 -13.9601 -13.8868 -13.7619 -13.7494 -13.7259  -9.1717
    -7.5888  -7.4054  -7.3389  -7.2694  -7.2046  -7.1650  -7.1162  -7.0703
    -6.8067  -6.7426  -6.7222  -6.6458  -6.5350  -6.4798  -6.4485  -6.3729
    -6.2935  -6.2309  -6.1493  -5.9346  -5.9024  -5.8551  -5.7610  -5.7407
    -5.7149  -5.6614  -5.6069  -5.5967  -5.5502  -5.4929  -5.4869  -5.4157
    -5.3966  -5.2961  -5.2665  -5.1134  -5.0108  -4.9534  -4.9233  -4.9058
    -4.8658  -4.7705  -4.6058  -4.5476  -4.4268  -4.3281  -4.2279  -4.1711
    -4.1224  -4.0222  -3.9896  -3.8324  -3.7962  -3.7311  -3.6967  -3.6541
    -3.6238  -3.5380  -3.4901  -3.4725  -3.4629  -3.3972  -3.3861  -3.3252
    -3.3140  -3.1485  -3.0783  -2.8776  -2.8259  -2.7583  -2.6989  -2.6835
    -2.6723  -2.6321  -2.5976  -2.5448  -2.4663  -2.2008  -1.9544  -1.9365
    -1.8362  -0.6719  -0.6468  -0.5397  -0.1375  -0.0830  -0.0515  -0.0080
     0.1127   0.1910   0.2047   0.2993   0.3225   0.3350   0.4432   0.5259
     0.5409   0.6261   0.6363   0.6712   0.6754   0.7326   0.7529   0.7970
     0.8182   0.8589   0.9001   0.9512   1.0017   1.0458   1.1080   1.2200
     1.4408

     the Fermi energy is    -0.7287 ev

!    total energy              =   -2205.54897536 Ry
     estimated scf accuracy    <       0.00000081 Ry
     smearing contrib. (-TS)   =      -0.00949184 Ry
     internal energy E=F+TS    =   -2205.53948352 Ry

     The total energy is F=E-TS. E is the sum of the following terms:
     one-electron contribution =  -18057.44130833 Ry
     hartree contribution      =    9016.00346471 Ry
     xc contribution           =    -385.39322492 Ry
     ewald contribution        =    7221.29158502 Ry

     convergence has been achieved in   7 iterations

     negative rho (up, down):  1.368E-04 0.000E+00

     Forces acting on atoms (cartesian axes, Ry/au):

     atom    1 type  1   force =     0.00211514   -0.01159164    0.00023198
     atom    2 type  2   force =    -0.01505017    0.01098825   -0.00057976
     atom    3 type  2   force =    -0.01128699    0.00704053   -0.01111855
     atom    4 type  1   force =     0.00590122    0.00164298    0.00145399
     atom    5 type  2   force =    -0.00004064   -0.00531656   -0.00512721
     atom    6 type  2   force =     0.00375888    0.00675771    0.00277604
     atom    7 type  1   force =     0.00384843   -0.00572111   -0.00152126
     atom    8 type  2   force =     0.00055764   -0.00362675    0.01168300
     atom    9 type  2   force =     0.01213362    0.00389072    0.00765766
     atom   10 type  1   force =    -0.00272942    0.00802541   -0.01021783
     atom   11 type  2   force =     0.00362817   -0.00059674   -0.00817076
     atom   12 type  2   force =    -0.00234393    0.00164786    0.00039390
     atom   13 type  1   force =     0.01463755    0.00656549   -0.00697664
     atom   14 type  2   force =     0.00905801   -0.00044845    0.00811913
     atom   15 type  2   force =    -0.00875918    0.00126626   -0.00759501
     atom   16 type  1   force =     0.00131865    0.00313433    0.00117853
     atom   17 type  2   force =     0.00759946    0.00637984    0.00226179
     atom   18 type  2   force =    -0.00337246   -0.00420970    0.01150407
     atom   19 type  1   force =     0.00441389   -0.00444090    0.00045525
     atom   20 type  2   force =     0.00248642   -0.00494174   -0.00168097
     atom   21 type  1   force =    -0.00517544    0.00349746    0.00156741
     atom   22 type  2   force =    -0.00208310   -0.00042512   -0.00050734
     atom   23 type  2   force =     0.00114505   -0.00035033    0.00192373
     atom   24 type  1   force =    -0.02479861    0.00618973   -0.01950840
     atom   25 type  2   force =     0.03038844   -0.01330959    0.02293439
     atom   26 type  2   force =    -0.00830011   -0.00013116   -0.00618003
     atom   27 type  1   force =    -0.00327060   -0.00377573    0.00724426
     atom   28 type  2   force =    -0.00260465    0.00278105   -0.00490817
     atom   29 type  2   force =     0.00064514    0.00092727   -0.00549786
     atom   30 type  1   force =    -0.00273435    0.00330509    0.00283377
     atom   31 type  2   force =     0.00104176   -0.00070454    0.00983612
     atom   32 type  2   force =    -0.00867230    0.00368229    0.00703596
     atom   33 type  1   force =     0.00331177   -0.00734673   -0.01223644
     atom   34 type  2   force =     0.00134993   -0.03133196   -0.01518268
     atom   35 type  2   force =    -0.00722020    0.00578858    0.00420304
     atom   36 type  3   force =    -0.00089703    0.01475793    0.01171490
     The non-local contrib.  to forces
     atom    1 type  1   force =    -0.00001065    0.03517996   -0.01099113
     atom    2 type  2   force =    -0.00844110    0.00239125   -0.26348568
     atom    3 type  2   force =    -0.00875860   -0.00040677    0.26544627
     atom    4 type  1   force =    -0.00487283    0.01389372    0.00410366
     atom    5 type  2   force =     0.00800048   -0.03510772   -0.25419684
     atom    6 type  2   force =     0.00042036    0.00543621    0.26400360
     atom    7 type  1   force =    -0.02744604   -0.01029105   -0.01835823
     atom    8 type  2   force =     0.00565717   -0.00352731   -0.25704581
     atom    9 type  2   force =     0.00905218   -0.01148649    0.27431982
     atom   10 type  1   force =     0.00027144   -0.00443739   -0.00248535
     atom   11 type  2   force =     0.01357299    0.00794767   -0.25940942
     atom   12 type  2   force =    -0.01303390   -0.01245609    0.26171995
     atom   13 type  1   force =     0.00198524    0.02379190   -0.01551469
     atom   14 type  2   force =     0.00458791   -0.00691237   -0.25703876
     atom   15 type  2   force =    -0.01367842   -0.00219247    0.26079766
     atom   16 type  1   force =     0.00259775    0.04769665   -0.01983743
     atom   17 type  2   force =     0.00091681   -0.02848924   -0.24791676
     atom   18 type  2   force =    -0.00357038   -0.00603221    0.27192140
     atom   19 type  1   force =     0.02507232   -0.01152257   -0.01301400
     atom   20 type  2   force =    -0.00020784   -0.02074204    0.26246757
     atom   21 type  1   force =     0.00218709    0.01691749    0.00387157
     atom   22 type  2   force =    -0.01294941    0.00696463   -0.23869325
     atom   23 type  2   force =     0.00536932   -0.01465816    0.26476948
     atom   24 type  1   force =     0.00221451    0.01331091   -0.02477041
     atom   25 type  2   force =     0.06370977   -0.20697674    0.11466153
     atom   26 type  2   force =     0.00111147   -0.01414767    0.27191770
     atom   27 type  1   force =     0.00046451    0.01929733    0.00815217
     atom   28 type  2   force =    -0.00471651   -0.02294012   -0.26949444
     atom   29 type  2   force =     0.00429087   -0.00136330    0.26399514
     atom   30 type  1   force =    -0.00099461    0.01361901    0.00623130
     atom   31 type  2   force =    -0.00713100   -0.00176977   -0.25659917
     atom   32 type  2   force =    -0.00389238   -0.01373112    0.27247066
     atom   33 type  1   force =    -0.00023150   -0.00655477    0.00256742
     atom   34 type  2   force =     0.00072691   -0.02897736   -0.26453038
     atom   35 type  2   force =    -0.00029855   -0.01029502    0.26734458
     atom   36 type  3   force =    -0.01072265    0.03720658   -0.04236056
     The ionic contribution  to forces
     atom    1 type  1   force =     0.12555843    0.59814896    5.84131305
     atom    2 type  2   force =    -0.58103880    0.26623752   39.40325990
     atom    3 type  2   force =    -0.23952331    0.01986165  -36.29064729
     atom    4 type  1   force =    -0.07667478    0.78371597    0.76658459
     atom    5 type  2   force =    -0.96192925    1.57451424   38.71164335
     atom    6 type  2   force =     0.29516431   -0.50691588  -37.95387767
     atom    7 type  1   force =    -2.59415951   -2.80237327    2.50722497
     atom    8 type  2   force =    -1.02182222    0.03619545   37.49054706
     atom    9 type  2   force =     0.30757278   -0.08570540  -37.94030221
     atom   10 type  1   force =    -1.05180254   -0.50569568    5.26397355
     atom   11 type  2   force =    -0.50260516   -1.67302741   39.09868880
     atom   12 type  2   force =     0.36084167    0.60813393  -37.84702405
     atom   13 type  1   force =     0.63483229    1.24658976    2.45084767
     atom   14 type  2   force =     0.17919162    0.02375265   38.58148892
     atom   15 type  2   force =     0.22904648   -0.00124647  -36.92552441
     atom   16 type  1   force =     0.05813651    4.00225013    0.53405294
     atom   17 type  2   force =     0.85001281    1.62928644   37.95573365
     atom   18 type  2   force =    -0.14915072   -0.54734462  -38.50948544
     atom   19 type  1   force =     2.72776810   -2.69300562    0.57880807
     atom   20 type  2   force =     0.22047619   -0.22681357  -38.49264781
     atom   21 type  1   force =     0.25559454   -0.18147160    1.12400198
     atom   22 type  2   force =     0.61428856   -1.98437950   38.32920527
     atom   23 type  2   force =     0.02074349    0.55458430  -38.36405752
     atom   24 type  1   force =    -0.50988739    1.20951798    5.08523992
     atom   25 type  2   force =     0.20951035    1.06971132   37.53154392
     atom   26 type  2   force =    -0.23329674    0.15615816  -37.37205025
     atom   27 type  1   force =     0.10451247    0.67412530   -2.02760714
     atom   28 type  2   force =     0.02302419    1.04740847   38.23884106
     atom   29 type  2   force =    -0.22652517   -0.29510989  -37.35847294
     atom   30 type  1   force =    -0.37137159   -1.24225358   -0.06712269
     atom   31 type  2   force =     1.22446658   -0.08254381   37.36631902
     atom   32 type  2   force =    -0.43698100   -0.09346900  -38.55178504
     atom   33 type  1   force =     0.55830123   -0.86331118    1.07489447
     atom   34 type  2   force =     0.00631258   -1.41843396   39.18247464
     atom   35 type  2   force =    -0.34236114    0.41547452  -37.84285729
     atom   36 type  3   force =     0.29377416   -0.71256631    8.42677494
     The local contribution  to forces
     atom    1 type  1   force =    -0.12336579   -0.64543432   -5.82951240
     atom    2 type  2   force =     0.57438837   -0.25736092  -39.16044208
     atom    3 type  2   force =     0.23673083   -0.01233000   36.03502134
     atom    4 type  1   force =     0.08747617   -0.79589076   -0.76885004
     atom    5 type  2   force =     0.95467521   -1.54691886  -38.48244624
     atom    6 type  2   force =    -0.29181130    0.50887547   37.71331774
     atom    7 type  1   force =     2.62576123    2.80740335   -2.48981652
     atom    8 type  2   force =     1.01689991   -0.03653521  -37.24199984
     atom    9 type  2   force =    -0.30427164    0.10063087   37.69460607
     atom   10 type  1   force =     1.04874196    0.51810293   -5.27112559
     atom   11 type  2   force =     0.49327722    1.66521349  -38.86767991
     atom   12 type  2   force =    -0.35119157   -0.59511480   37.60654100
     atom   13 type  1   force =    -0.62242212   -1.26438223   -2.44151871
     atom   14 type  2   force =    -0.17475738   -0.01719833  -38.33626823
     atom   15 type  2   force =    -0.22497176    0.00444958   36.67776648
     atom   16 type  1   force =    -0.05921225   -4.04696292   -0.51258778
     atom   17 type  2   force =    -0.84358164   -1.59642683  -37.72513269
     atom   18 type  2   force =     0.14917991    0.54909694   38.26992196
     atom   19 type  1   force =    -2.74828115    2.70055975   -0.56475933
     atom   20 type  2   force =    -0.21766816    0.24203232   38.24942490
     atom   21 type  1   force =    -0.26274321    0.16819106   -1.12568964
     atom   22 type  2   force =    -0.60407452    1.97827952  -38.10973671
     atom   23 type  2   force =    -0.02457761   -0.54116146   38.12193144
     atom   24 type  1   force =     0.48311762   -1.21713124   -5.07920871
     atom   25 type  2   force =    -0.23900031   -0.88906002  -37.62117812
     atom   26 type  2   force =     0.22414478   -0.14298338   37.11529591
     atom   27 type  1   force =    -0.10847687   -0.69752841    2.02714351
     atom   28 type  2   force =    -0.02111077   -1.02371752  -37.99455180
     atom   29 type  2   force =     0.22327834    0.29746706   37.10963318
     atom   30 type  1   force =     0.36920275    1.23231742    0.06428674
     atom   31 type  2   force =    -1.21690582    0.08350860  -37.11991495
     atom   32 type  2   force =     0.43202117    0.11018173   38.30711469
     atom   33 type  1   force =    -0.55487682    0.86292063   -1.08907608
     atom   34 type  2   force =    -0.00574340    1.41551844  -38.95313433
     atom   35 type  2   force =     0.33559496   -0.40026909   37.60078252
     atom   36 type  3   force =    -0.28393896    0.69010134   -8.37258765
     The core correction contribution to forces
     atom    1 type  1   force =     0.00000000    0.00000000    0.00000000
     atom    2 type  2   force =     0.00010510   -0.00031094    0.02041249
     atom    3 type  2   force =     0.00028457   -0.00010112   -0.02084918
     atom    4 type  1   force =     0.00000000    0.00000000    0.00000000
     atom    5 type  2   force =    -0.00072457    0.00202503    0.02032056
     atom    6 type  2   force =     0.00008055   -0.00080470   -0.02082095
     atom    7 type  1   force =     0.00000000    0.00000000    0.00000000
     atom    8 type  2   force =    -0.00023908    0.00048160    0.02041714
     atom    9 type  2   force =    -0.00027834    0.00064896   -0.02090861
     atom   10 type  1   force =     0.00000000    0.00000000    0.00000000
     atom   11 type  2   force =    -0.00060321   -0.00074656    0.02049849
     atom   12 type  2   force =     0.00107472    0.00104523   -0.02076322
     atom   13 type  1   force =     0.00000000    0.00000000    0.00000000
     atom   14 type  2   force =    -0.00006106   -0.00015641    0.02029880
     atom   15 type  2   force =     0.00083411    0.00020172   -0.02058489
     atom   16 type  1   force =     0.00000000    0.00000000    0.00000000
     atom   17 type  2   force =     0.00016814    0.00168429    0.02005867
     atom   18 type  2   force =     0.00010906   -0.00019747   -0.02098515
     atom   19 type  1   force =     0.00000000    0.00000000    0.00000000
     atom   20 type  2   force =     0.00014185    0.00075041   -0.02106857
     atom   21 type  1   force =     0.00000000    0.00000000    0.00000000
     atom   22 type  2   force =     0.00066745   -0.00103237    0.01926708
     atom   23 type  2   force =    -0.00036422    0.00111065   -0.02084938
     atom   24 type  1   force =     0.00000000    0.00000000    0.00000000
     atom   25 type  2   force =    -0.00384583    0.01318922   -0.00190603
     atom   26 type  2   force =    -0.00028237    0.00084011   -0.02122806
     atom   27 type  1   force =     0.00000000    0.00000000    0.00000000
     atom   28 type  2   force =     0.00022019    0.00178422    0.02068789
     atom   29 type  2   force =    -0.00043089   -0.00025932   -0.02069036
     atom   30 type  1   force =     0.00000000    0.00000000    0.00000000
     atom   31 type  2   force =     0.00043647    0.00022596    0.02050904
     atom   32 type  2   force =    -0.00002116    0.00076103   -0.02093849
     atom   33 type  1   force =     0.00000000    0.00000000    0.00000000
     atom   34 type  2   force =     0.00003607    0.00058295    0.02043069
     atom   35 type  2   force =    -0.00022732    0.00090743   -0.02105296
     atom   36 type  3   force =     0.00000000    0.00000000    0.00000000
     The Hubbard contrib.    to forces
     atom    1 type  1   force =     0.00000000    0.00000000    0.00000000
     atom    2 type  2   force =     0.00000000    0.00000000    0.00000000
     atom    3 type  2   force =     0.00000000    0.00000000    0.00000000
     atom    4 type  1   force =     0.00000000    0.00000000    0.00000000
     atom    5 type  2   force =     0.00000000    0.00000000    0.00000000
     atom    6 type  2   force =     0.00000000    0.00000000    0.00000000
     atom    7 type  1   force =     0.00000000    0.00000000    0.00000000
     atom    8 type  2   force =     0.00000000    0.00000000    0.00000000
     atom    9 type  2   force =     0.00000000    0.00000000    0.00000000
     atom   10 type  1   force =     0.00000000    0.00000000    0.00000000
     atom   11 type  2   force =     0.00000000    0.00000000    0.00000000
     atom   12 type  2   force =     0.00000000    0.00000000    0.00000000
     atom   13 type  1   force =     0.00000000    0.00000000    0.00000000
     atom   14 type  2   force =     0.00000000    0.00000000    0.00000000
     atom   15 type  2   force =     0.00000000    0.00000000    0.00000000
     atom   16 type  1   force =     0.00000000    0.00000000    0.00000000
     atom   17 type  2   force =     0.00000000    0.00000000    0.00000000
     atom   18 type  2   force =     0.00000000    0.00000000    0.00000000
     atom   19 type  1   force =     0.00000000    0.00000000    0.00000000
     atom   20 type  2   force =     0.00000000    0.00000000    0.00000000
     atom   21 type  1   force =     0.00000000    0.00000000    0.00000000
     atom   22 type  2   force =     0.00000000    0.00000000    0.00000000
     atom   23 type  2   force =     0.00000000    0.00000000    0.00000000
     atom   24 type  1   force =     0.00000000    0.00000000    0.00000000
     atom   25 type  2   force =     0.00000000    0.00000000    0.00000000
     atom   26 type  2   force =     0.00000000    0.00000000    0.00000000
     atom   27 type  1   force =     0.00000000    0.00000000    0.00000000
     atom   28 type  2   force =     0.00000000    0.00000000    0.00000000
     atom   29 type  2   force =     0.00000000    0.00000000    0.00000000
     atom   30 type  1   force =     0.00000000    0.00000000    0.00000000
     atom   31 type  2   force =     0.00000000    0.00000000    0.00000000
     atom   32 type  2   force =     0.00000000    0.00000000    0.00000000
     atom   33 type  1   force =     0.00000000    0.00000000    0.00000000
     atom   34 type  2   force =     0.00000000    0.00000000    0.00000000
     atom   35 type  2   force =     0.00000000    0.00000000    0.00000000
     atom   36 type  3   force =     0.00000000    0.00000000    0.00000000
     The SCF correction term to forces
     atom    1 type  1   force =    -0.00006676    0.00050896   -0.00056276
     atom    2 type  2   force =    -0.00006365    0.00002655   -0.00030959
     atom    3 type  2   force =    -0.00002039    0.00001198   -0.00007489
     atom    4 type  1   force =    -0.00002725   -0.00008074   -0.00036945
     atom    5 type  2   force =    -0.00006242    0.00016595   -0.00043325
     atom    6 type  2   force =    -0.00009495    0.00016181    0.00016810
     atom    7 type  1   force =    -0.00030716   -0.00046493   -0.00055669
     atom    8 type  2   force =     0.00006195   -0.00024606   -0.00022077
     atom    9 type  2   force =     0.00005873   -0.00020201   -0.00004263
     atom   10 type  1   force =     0.00005980    0.00005077   -0.00056567
     atom   11 type  2   force =    -0.00001358    0.00001128   -0.00025394
     atom   12 type  2   force =    -0.00003476    0.00003480   -0.00006500
     atom   13 type  1   force =     0.00024223    0.00056126   -0.00077614
     atom   14 type  2   force =     0.00009702    0.00006122   -0.00034683
     atom   15 type  2   force =     0.00001050    0.00004910   -0.00003506
     atom   16 type  1   force =    -0.00020326    0.00014569   -0.00043442
     atom   17 type  2   force =     0.00008343    0.00032038   -0.00046631
     atom   18 type  2   force =     0.00005975    0.00026286    0.00014608
     atom   19 type  1   force =    -0.00014529   -0.00047726   -0.00056471
     atom   20 type  2   force =    -0.00025554   -0.00017365    0.00015772
     atom   21 type  1   force =    -0.00021377   -0.00014428   -0.00060173
     atom   22 type  2   force =    -0.00001509   -0.00026218   -0.00053495
     atom   23 type  2   force =    -0.00002585   -0.00023045    0.00014449
     atom   24 type  1   force =    -0.00024326    0.00048729   -0.00075442
     atom   25 type  2   force =     0.00001455   -0.00017817   -0.00017213
     atom   26 type  2   force =     0.00002283   -0.00000316   -0.00010054
     atom   27 type  1   force =     0.00022938    0.00032526   -0.00042950
     atom   28 type  2   force =    -0.00002166    0.00024120   -0.00037610
     atom   29 type  2   force =     0.00003208    0.00018792    0.00005190
     atom   30 type  1   force =     0.00042920   -0.00038255   -0.00054681
     atom   31 type  2   force =     0.00017562   -0.00013031   -0.00046304
     atom   32 type  2   force =     0.00020116   -0.00006515    0.00018892
     atom   33 type  1   force =     0.00011895   -0.00040622   -0.00060747
     atom   34 type  2   force =     0.00001786   -0.00002682   -0.00040853
     atom   35 type  2   force =     0.00007195   -0.00003405    0.00000099
     atom   36 type  3   force =    -0.00000949    0.00001152   -0.00009705

     Total force =     0.087709     Total SCF correction =     0.002974
     Energy error            =      2.3E-02 Ry
     Gradient error          =      3.1E-02 Ry/Bohr

     number of scf cycles    =   2
     number of bfgs steps    =   1

     energy             old  =   -2205.5258428419 Ry
     energy             new  =   -2205.5489753598 Ry

     CASE: energy            _new < energy            _old

     new trust radius        =       0.0485186366 bohr
     new conv_thr            =       0.0000000313 Ry


ATOMIC_POSITIONS (angstrom)
Mo            6.5825663942        1.7668000586        2.8305623602
S             8.1537953855        0.8274998669        4.4338001970
S             8.1816356631        0.8215044746        1.2691090843
Mo            8.1037413443        4.4948072580        2.7192620731
S             6.4987817473        3.7159924402        4.3395878559
S             6.5584263839        3.5227325247        1.1236512641
Mo            6.4941488813        7.2116516780        2.6658469373
S             8.0823576224        6.3385529727        4.2607815711
S             8.0970342440        6.3098546352        1.0955037971
Mo            8.1533831296        9.9142718754        2.8192561334
S             6.5001112475        8.9415820257        4.3751591123
S             6.6165206546        9.0508708083        1.1432110756
Mo            3.4413751265        1.7533384399        2.7707889518
S             4.9890037906        0.8173463889        4.3606510474
S             5.0433683195        0.8479802389        1.2164654929
Mo            4.9810424755        4.5162400061        2.6347383224
S             3.4375037680        3.6802258809        4.2816947994
S             3.4330555987        3.5415712300        1.0748039975
Mo            3.4608243352        7.2116036499        2.6277434500
S             4.9864323261        6.3206853567        1.0368567906
Mo            5.0042232263        9.9079713637        2.7428718939
S             3.4694020967        8.9412790530        4.3260521476
S             3.4081011159        9.0662014274        1.1028982804
Mo            0.2603086753        1.7530260138        2.8210838894
S             1.8748637041        0.8401641234        4.3572065105
S             1.8482946815        0.8535943479        1.2033747092
Mo            1.8553308740        4.4879145048        2.6701880009
S             0.2696799528        3.6596912920        4.3301533479
S             0.2327289890        3.5266749677        1.1669948927
Mo            0.2679108198        7.2272103863        2.6993080394
S             1.9037281469        6.3113005024        4.2392051572
S             1.8500805078        6.3160815395        1.0539229246
Mo            1.8522753674        9.9247074313        2.7445246105
S             0.2975984356        9.0422126111        4.3984943886
S             0.2680057445        9.0508778032        1.1622149955
H             2.1162084588       -0.0330727666        5.4223717701



     Writing config-only to output data dir ./MoS2-V-O.save/
     NEW-OLD atomic charge density approx. for the potential

     negative rho (up, down):  1.421E-04 0.000E+00

     total cpu time spent up to now is      178.3 secs

     Self-consistent Calculation

     iteration #  1     ecut=    80.00 Ry     beta= 0.70
     Davidson diagonalization with overlap
     ethr =  1.00E-06,  avg # of iterations =  7.0

     negative rho (up, down):  1.110E-04 0.000E+00

     total cpu time spent up to now is      192.1 secs

     total energy              =   -2205.55651106 Ry
     estimated scf accuracy    <       0.00134430 Ry

     iteration #  2     ecut=    80.00 Ry     beta= 0.70
     Davidson diagonalization with overlap
     ethr =  4.38E-07,  avg # of iterations =  2.0

     negative rho (up, down):  1.099E-04 0.000E+00

     total cpu time spent up to now is      206.7 secs

     total energy              =   -2205.55658649 Ry
     estimated scf accuracy    <       0.00037703 Ry

     iteration #  3     ecut=    80.00 Ry     beta= 0.70
     Davidson diagonalization with overlap
     ethr =  1.23E-07,  avg # of iterations =  2.0

     negative rho (up, down):  9.960E-05 0.000E+00

     total cpu time spent up to now is      217.7 secs

     total energy              =   -2205.55660960 Ry
     estimated scf accuracy    <       0.00011598 Ry

     iteration #  4     ecut=    80.00 Ry     beta= 0.70
     Davidson diagonalization with overlap
     ethr =  3.78E-08,  avg # of iterations =  6.0

     negative rho (up, down):  9.815E-05 0.000E+00

     total cpu time spent up to now is      234.0 secs

     total energy              =   -2205.55662496 Ry
     estimated scf accuracy    <       0.00000517 Ry

     iteration #  5     ecut=    80.00 Ry     beta= 0.70
     Davidson diagonalization with overlap
     ethr =  1.68E-09,  avg # of iterations =  7.0

     negative rho (up, down):  9.964E-05 0.000E+00

     total cpu time spent up to now is      249.2 secs

     total energy              =   -2205.55662830 Ry
     estimated scf accuracy    <       0.00000217 Ry

     iteration #  6     ecut=    80.00 Ry     beta= 0.70
     Davidson diagonalization with overlap
     ethr =  7.07E-10,  avg # of iterations =  2.0

     negative rho (up, down):  1.028E-04 0.000E+00

     total cpu time spent up to now is      263.4 secs

     total energy              =   -2205.55662835 Ry
     estimated scf accuracy    <       0.00000043 Ry

     iteration #  7     ecut=    80.00 Ry     beta= 0.70
     Davidson diagonalization with overlap
     ethr =  1.42E-10,  avg # of iterations =  5.0

     negative rho (up, down):  1.055E-04 0.000E+00

     total cpu time spent up to now is      275.3 secs

     total energy              =   -2205.55662844 Ry
     estimated scf accuracy    <       0.00000026 Ry

     iteration #  8     ecut=    80.00 Ry     beta= 0.70
     Davidson diagonalization with overlap
     ethr =  8.44E-11,  avg # of iterations =  2.0

     negative rho (up, down):  1.105E-04 0.000E+00

     total cpu time spent up to now is      282.7 secs

     total energy              =   -2205.55662840 Ry
     estimated scf accuracy    <       0.00000013 Ry

     iteration #  9     ecut=    80.00 Ry     beta= 0.70
     Davidson diagonalization with overlap
     ethr =  4.35E-11,  avg # of iterations =  2.0

     negative rho (up, down):  1.222E-04 0.000E+00

     total cpu time spent up to now is      297.0 secs

     total energy              =   -2205.55662835 Ry
     estimated scf accuracy    <       0.00000004 Ry

     iteration # 10     ecut=    80.00 Ry     beta= 0.70
     Davidson diagonalization with overlap
     ethr =  1.44E-11,  avg # of iterations =  5.0

     negative rho (up, down):  1.371E-04 0.000E+00

     total cpu time spent up to now is      299.2 secs

     End of self-consistent calculation

          k = 0.0000 0.0000 0.0000 (105382 PWs)   bands (ev):

   -62.8791 -62.8510 -62.8151 -62.8017 -62.7969 -62.7907 -62.7775 -62.7738
   -62.7172 -62.5983 -62.5751 -62.5272 -37.1803 -37.1491 -37.1217 -37.0993
   -37.0875 -37.0711 -37.0688 -37.0478 -37.0219 -37.0114 -37.0033 -36.9862
   -36.9825 -36.9790 -36.9736 -36.9607 -36.9560 -36.9530 -36.9501 -36.9461
   -36.9099 -36.8831 -36.8715 -36.8431 -36.8305 -36.8106 -36.8065 -36.7950
   -36.7733 -36.7529 -36.7449 -36.7305 -36.7066 -36.6739 -36.5541 -36.5463
   -16.3628 -15.6705 -15.1270 -15.0296 -14.8752 -14.7886 -14.6520 -14.4363
   -14.3836 -14.3655 -14.3355 -14.3173 -14.2850 -14.2301 -14.1235 -14.0854
   -14.0479 -14.0398 -13.9682 -13.8878 -13.7656 -13.7607 -13.7241  -9.0895
    -7.5849  -7.3719  -7.3359  -7.2652  -7.2109  -7.1687  -7.1272  -7.0766
    -6.8080  -6.7479  -6.7272  -6.6506  -6.5246  -6.4851  -6.4502  -6.3775
    -6.2922  -6.2399  -6.1501  -5.9287  -5.9051  -5.8574  -5.7700  -5.7468
    -5.7149  -5.6639  -5.6076  -5.5993  -5.5629  -5.4999  -5.4873  -5.4167
    -5.3818  -5.2853  -5.2591  -5.1170  -5.0121  -4.9568  -4.9314  -4.9060
    -4.8809  -4.7765  -4.5984  -4.5419  -4.4279  -4.3259  -4.2327  -4.1731
    -4.1434  -4.0269  -3.9984  -3.8490  -3.7987  -3.7345  -3.6980  -3.6505
    -3.6214  -3.5541  -3.4952  -3.4823  -3.4485  -3.4091  -3.3845  -3.3201
    -3.3174  -3.1576  -3.0831  -2.8671  -2.8348  -2.7482  -2.6994  -2.6874
    -2.6740  -2.6448  -2.6078  -2.5422  -2.4681  -2.1972  -1.9558  -1.9389
    -1.8505  -0.6727  -0.6501  -0.5510  -0.1367  -0.0768  -0.0540  -0.0073
     0.1218   0.1833   0.2034   0.2963   0.3215   0.3433   0.4362   0.5222
     0.5412   0.6294   0.6380   0.6713   0.6763   0.7206   0.7626   0.7937
     0.8180   0.8633   0.9016   0.9498   1.0065   1.0475   1.1010   1.2103
     1.4416

     the Fermi energy is    -0.7314 ev

!    total energy              =   -2205.55662831 Ry
     estimated scf accuracy    <          9.6E-09 Ry
     smearing contrib. (-TS)   =      -0.00960091 Ry
     internal energy E=F+TS    =   -2205.54702741 Ry

     The total energy is F=E-TS. E is the sum of the following terms:
     one-electron contribution =  -18057.61165836 Ry
     hartree contribution      =    9016.11980156 Ry
     xc contribution           =    -385.38973873 Ry
     ewald contribution        =    7221.33456813 Ry

     convergence has been achieved in  10 iterations

     negative rho (up, down):  1.371E-04 0.000E+00

     Forces acting on atoms (cartesian axes, Ry/au):

     atom    1 type  1   force =    -0.00359322   -0.00442001   -0.00508499
     atom    2 type  2   force =    -0.00863965    0.00646791   -0.00143187
     atom    3 type  2   force =    -0.01239840    0.00484573   -0.01482824
     atom    4 type  1   force =     0.00421459    0.00281129    0.00138311
     atom    5 type  2   force =     0.00127553   -0.00493992   -0.00401125
     atom    6 type  2   force =     0.00301288    0.00434482    0.00301644
     atom    7 type  1   force =     0.00365273   -0.00469495    0.00083978
     atom    8 type  2   force =     0.00000855   -0.00305119    0.00814063
     atom    9 type  2   force =     0.00951592    0.00313305    0.00476490
     atom   10 type  1   force =    -0.00029181    0.00685035   -0.00088564
     atom   11 type  2   force =     0.00306491   -0.00006191   -0.00851856
     atom   12 type  2   force =    -0.00368615    0.00096538   -0.00096437
     atom   13 type  1   force =     0.00877313    0.00368979   -0.00265758
     atom   14 type  2   force =     0.00635118   -0.00046212    0.00552113
     atom   15 type  2   force =    -0.00495595    0.00031282   -0.00687361
     atom   16 type  1   force =     0.00177012    0.00357218    0.00071446
     atom   17 type  2   force =     0.00670648    0.00457705    0.00246693
     atom   18 type  2   force =    -0.00201140   -0.00191406    0.00777415
     atom   19 type  1   force =     0.00252249   -0.00368766    0.00225128
     atom   20 type  2   force =     0.00237903   -0.00395681   -0.00262274
     atom   21 type  1   force =    -0.00273945    0.00254498    0.00187463
     atom   22 type  2   force =    -0.00212665   -0.00104025   -0.00205105
     atom   23 type  2   force =     0.00228494   -0.00236792   -0.00136179
     atom   24 type  1   force =    -0.00799324    0.00151900   -0.00460921
     atom   25 type  2   force =     0.01591148   -0.01597242    0.01812083
     atom   26 type  2   force =    -0.00546693    0.00142918   -0.00339942
     atom   27 type  1   force =    -0.00195335   -0.00170882    0.00564576
     atom   28 type  2   force =    -0.00293603   -0.00067869   -0.00347405
     atom   29 type  2   force =    -0.00028589    0.00291208   -0.00658588
     atom   30 type  1   force =    -0.00184701   -0.00251528    0.00541578
     atom   31 type  2   force =     0.00100942   -0.00044975    0.00590943
     atom   32 type  2   force =    -0.00618764    0.00208302    0.00659409
     atom   33 type  1   force =     0.00066934   -0.00237008    0.00008936
     atom   34 type  2   force =     0.00047334   -0.01943115   -0.01522986
     atom   35 type  2   force =    -0.00623391    0.00417117   -0.00141233
     atom   36 type  3   force =    -0.00024937    0.01749318    0.00547976
     The non-local contrib.  to forces
     atom    1 type  1   force =     0.00109833    0.03227926   -0.01142941
     atom    2 type  2   force =    -0.00561878   -0.00169488   -0.26153402
     atom    3 type  2   force =    -0.00899317   -0.00252122    0.26105661
     atom    4 type  1   force =    -0.00365812    0.01466765    0.00369519
     atom    5 type  2   force =     0.00898738   -0.03514392   -0.25422067
     atom    6 type  2   force =     0.00004458    0.00262289    0.26491872
     atom    7 type  1   force =    -0.02706585   -0.01046811   -0.01975186
     atom    8 type  2   force =     0.00590607   -0.00327811   -0.25929367
     atom    9 type  2   force =     0.00650996   -0.01208820    0.27250435
     atom   10 type  1   force =     0.00039456   -0.00382797   -0.00257368
     atom   11 type  2   force =     0.01216373    0.00812434   -0.26023671
     atom   12 type  2   force =    -0.01360105   -0.01278728    0.26205984
     atom   13 type  1   force =     0.00402180    0.02496654   -0.01632229
     atom   14 type  2   force =     0.00254904   -0.00716385   -0.25815557
     atom   15 type  2   force =    -0.01043346   -0.00304231    0.26039954
     atom   16 type  1   force =     0.00206050    0.04843966   -0.02063014
     atom   17 type  2   force =    -0.00008232   -0.02867604   -0.24756233
     atom   18 type  2   force =    -0.00259619   -0.00409829    0.26969161
     atom   19 type  1   force =     0.02603966   -0.01094144   -0.01343017
     atom   20 type  2   force =    -0.00009596   -0.01939434    0.26181279
     atom   21 type  1   force =     0.00107689    0.01730310    0.00273385
     atom   22 type  2   force =    -0.01130185    0.00535683   -0.23976578
     atom   23 type  2   force =     0.00588873   -0.01594321    0.26277049
     atom   24 type  1   force =    -0.00271898    0.01526482   -0.02344170
     atom   25 type  2   force =     0.05818044   -0.21369644    0.11113322
     atom   26 type  2   force =     0.00255006   -0.01265378    0.27519098
     atom   27 type  1   force =    -0.00029389    0.01767170    0.00741522
     atom   28 type  2   force =    -0.00482117   -0.02323135   -0.26828105
     atom   29 type  2   force =     0.00317058   -0.00158234    0.26364389
     atom   30 type  1   force =    -0.00129924    0.01480597    0.00582819
     atom   31 type  2   force =    -0.00722908   -0.00211005   -0.25961668
     atom   32 type  2   force =    -0.00125734   -0.01454982    0.27244411
     atom   33 type  1   force =     0.00025796   -0.00861813    0.00216215
     atom   34 type  2   force =    -0.00021863   -0.01964900   -0.26511064
     atom   35 type  2   force =     0.00010845   -0.01118964    0.26405892
     atom   36 type  3   force =    -0.00957934    0.03626733   -0.04205762
     The ionic contribution  to forces
     atom    1 type  1   force =    -0.06678361    0.78231163    5.86185385
     atom    2 type  2   force =    -0.34596452    0.14616645   39.50296693
[...]
     atom   27 type  1   force =     0.00272236    0.01384145    0.00398652
     atom   28 type  2   force =     0.00172902   -0.02522762   -0.26148243
     atom   29 type  2   force =    -0.00074833   -0.00907025    0.26768619
     atom   30 type  1   force =    -0.00625519    0.01302820    0.00482058
     atom   31 type  2   force =    -0.01089246   -0.00149278   -0.26448481
     atom   32 type  2   force =     0.00517867   -0.01652826    0.26665482
     atom   33 type  1   force =     0.00047993   -0.01811800   -0.01529185
     atom   34 type  2   force =     0.00688777   -0.00172083   -0.26340061
     atom   35 type  2   force =     0.00205790   -0.01391927    0.26688230
     atom   36 type  3   force =    -0.00356097   -0.00691175   -0.06230048
     The ionic contribution  to forces
     atom    1 type  1   force =    -0.15277764    0.60834135    2.90047270
     atom    2 type  2   force =    -0.20016889   -0.11209612   39.01449191
     atom    3 type  2   force =     0.18126176   -0.17020279  -37.44550716
     atom    4 type  1   force =    -0.61112450    0.57240807    0.93061915
     atom    5 type  2   force =    -0.87059244    1.32092177   38.34518809
     atom    6 type  2   force =     0.13668078   -0.32887138  -37.94268320
     atom    7 type  1   force =    -3.18687440   -2.05032047    1.22009876
     atom    8 type  2   force =    -1.37563383    0.16052647   38.32428728
     atom    9 type  2   force =     0.25504107   -0.03150994  -38.08435196
     atom   10 type  1   force =    -0.16271107   -0.27104963    2.99838430
     atom   11 type  2   force =    -0.57617524   -1.50636963   38.55572690
     atom   12 type  2   force =     0.12812937    0.40512671  -38.04197563
     atom   13 type  1   force =    -0.25752867   -0.00520726    2.19464408
     atom   14 type  2   force =    -0.03132934   -0.28813501   38.58198931
     atom   15 type  2   force =    -0.13934881   -0.25456804  -37.50231412
     atom   16 type  1   force =     0.62619736    3.78975026    1.46693688
     atom   17 type  2   force =     0.86458934    1.28160774   38.58172784
     atom   18 type  2   force =    -0.27157838   -0.43128976  -38.36650400
     atom   19 type  1   force =     3.13110132   -1.40578755    1.95881514
     atom   20 type  2   force =     0.09349637    0.08851821  -38.60158412
     atom   21 type  1   force =    -0.43410685   -0.40978291    1.23797080
     atom   22 type  2   force =     0.68092815   -1.45560076   38.46593817
     atom   23 type  2   force =    -0.12204004    0.43508961  -37.80623099
     atom   24 type  1   force =     0.51693722   -0.24491958    2.82847088
     atom   25 type  2   force =     0.07756427   -0.31384073   35.93634921
     atom   26 type  2   force =    -0.06901068   -0.20013809  -36.60241919
     atom   27 type  1   force =     0.14131274    0.23294390    0.21476474
     atom   28 type  2   force =    -0.00461803    0.58745036   38.39107170
     atom   29 type  2   force =     0.05744514   -0.24656497  -37.76800342
     atom   30 type  1   force =     0.07691647   -0.52644032    2.14365862
     atom   31 type  2   force =     1.16784283    0.26214487   38.29158952
     atom   32 type  2   force =    -0.29487215    0.11882666  -38.08902951
     atom   33 type  1   force =     0.56738006    0.23240261    3.45218074
     atom   34 type  2   force =    -0.06025436   -0.38469608   38.93402599
     atom   35 type  2   force =     0.02631878    0.40144688  -37.43019536
     atom   36 type  3   force =     0.09160230    0.13988556    8.71139592
     The local contribution  to forces
     atom    1 type  1   force =     0.15449263   -0.63558060   -2.89473209
     atom    2 type  2   force =     0.19420287    0.11585242  -38.77684893
     atom    3 type  2   force =    -0.17715031    0.17720272   37.19909474
     atom    4 type  1   force =     0.61475912   -0.59055914   -0.93409621
     atom    5 type  2   force =     0.86491715   -1.29764579  -38.11125551
     atom    6 type  2   force =    -0.13750564    0.33327169   37.69793959
     atom    7 type  1   force =     3.21698812    2.05150861   -1.21474513
     atom    8 type  2   force =     1.36185961   -0.15926468  -38.08100333
     atom    9 type  2   force =    -0.25124075    0.04169220   37.83876020
     atom   10 type  1   force =     0.16648943    0.27056983   -2.99965557
     atom   11 type  2   force =     0.56884132    1.49804275  -38.32091058
     atom   12 type  2   force =    -0.12389400   -0.39432779   37.80030555
     atom   13 type  1   force =     0.24083485   -0.02397772   -2.18570845
     atom   14 type  2   force =     0.03777519    0.29178690  -38.34611919
     atom   15 type  2   force =     0.13855004    0.26038945   37.26158984
     atom   16 type  1   force =    -0.63528987   -3.84919740   -1.43913016
     atom   17 type  2   force =    -0.85832990   -1.25248873  -38.35526476
     atom   18 type  2   force =     0.27521250    0.43573136   38.12532232
     atom   19 type  1   force =    -3.17150589    1.41333370   -1.93805890
     atom   20 type  2   force =    -0.09308581   -0.07597937   38.36042910
     atom   21 type  1   force =     0.43003597    0.39512070   -1.24064254
     atom   22 type  2   force =    -0.67206788    1.44697480  -38.23234534
     atom   23 type  2   force =     0.11626756   -0.41846351   37.56157223
     atom   24 type  1   force =    -0.49988034    0.21921716   -2.81648309
     atom   25 type  2   force =    -0.09007269    0.27819618  -36.19011569
     atom   26 type  2   force =     0.06507597    0.20926579   36.33743568
     atom   27 type  1   force =    -0.14393926   -0.24671836   -0.21880823
     atom   28 type  2   force =     0.00301300   -0.56427020  -38.14971811
     atom   29 type  2   force =    -0.05694524    0.25577205   37.52059260
     atom   30 type  1   force =    -0.07068280    0.51327659   -2.14925794
     atom   31 type  2   force =    -1.15810217   -0.26097980  -38.04794572
     atom   32 type  2   force =     0.29151986   -0.10256529   37.84458756
     atom   33 type  1   force =    -0.56818235   -0.21354868   -3.43610599
     atom   34 type  2   force =     0.05311261    0.38626977  -38.69085995
     atom   35 type  2   force =    -0.02830522   -0.38776078   37.18381505
     atom   36 type  3   force =    -0.09025781   -0.13363222   -8.64816121
     The core correction contribution to forces
     atom    1 type  1   force =     0.00000000    0.00000000    0.00000000
     atom    2 type  2   force =    -0.00061486   -0.00004497    0.02029242
     atom    3 type  2   force =     0.00011546    0.00016660   -0.02096604
     atom    4 type  1   force =     0.00000000    0.00000000    0.00000000
     atom    5 type  2   force =    -0.00058258    0.00130674    0.02023073
     atom    6 type  2   force =    -0.00001044   -0.00005972   -0.02074388
     atom    7 type  1   force =     0.00000000    0.00000000    0.00000000
     atom    8 type  2   force =    -0.00097774    0.00039821    0.02075324
     atom    9 type  2   force =     0.00044355    0.00058994   -0.02084265
     atom   10 type  1   force =     0.00000000    0.00000000    0.00000000
     atom   11 type  2   force =    -0.00027042   -0.00091392    0.02031958
     atom   12 type  2   force =     0.00046983    0.00087171   -0.02075657
     atom   13 type  1   force =     0.00000000    0.00000000    0.00000000
     atom   14 type  2   force =     0.00057962   -0.00024216    0.02021045
     atom   15 type  2   force =     0.00003159    0.00001022   -0.02070910
     atom   16 type  1   force =     0.00000000    0.00000000    0.00000000
     atom   17 type  2   force =     0.00061905    0.00188249    0.01981983
     atom   18 type  2   force =    -0.00002171    0.00000965   -0.02079478
     atom   19 type  1   force =     0.00000000    0.00000000    0.00000000
     atom   20 type  2   force =     0.00018341    0.00064470   -0.02105824
     atom   21 type  1   force =     0.00000000    0.00000000    0.00000000
     atom   22 type  2   force =     0.00060612   -0.00102091    0.02010511
     atom   23 type  2   force =    -0.00040228    0.00092067   -0.02087413
     atom   24 type  1   force =     0.00000000    0.00000000    0.00000000
     atom   25 type  2   force =    -0.00094090   -0.00262789   -0.01077848
     atom   26 type  2   force =    -0.00027098    0.00028465   -0.02154667
     atom   27 type  1   force =     0.00000000    0.00000000    0.00000000
     atom   28 type  2   force =    -0.00016248    0.00182780    0.02047400
     atom   29 type  2   force =    -0.00000717    0.00041151   -0.02091469
     atom   30 type  1   force =     0.00000000    0.00000000    0.00000000
     atom   31 type  2   force =     0.00059419    0.00033204    0.02071312
     atom   32 type  2   force =    -0.00058525    0.00094306   -0.02082225
     atom   33 type  1   force =     0.00000000    0.00000000    0.00000000
     atom   34 type  2   force =    -0.00060499   -0.00022413    0.02064195
     atom   35 type  2   force =    -0.00020141    0.00078222   -0.02099732
     atom   36 type  3   force =     0.00000000    0.00000000    0.00000000
     The Hubbard contrib.    to forces
     atom    1 type  1   force =     0.00000000    0.00000000    0.00000000
     atom    2 type  2   force =     0.00000000    0.00000000    0.00000000
     atom    3 type  2   force =     0.00000000    0.00000000    0.00000000
     atom    4 type  1   force =     0.00000000    0.00000000    0.00000000
     atom    5 type  2   force =     0.00000000    0.00000000    0.00000000
     atom    6 type  2   force =     0.00000000    0.00000000    0.00000000
     atom    7 type  1   force =     0.00000000    0.00000000    0.00000000
     atom    8 type  2   force =     0.00000000    0.00000000    0.00000000
     atom    9 type  2   force =     0.00000000    0.00000000    0.00000000
     atom   10 type  1   force =     0.00000000    0.00000000    0.00000000
     atom   11 type  2   force =     0.00000000    0.00000000    0.00000000
     atom   12 type  2   force =     0.00000000    0.00000000    0.00000000
     atom   13 type  1   force =     0.00000000    0.00000000    0.00000000
     atom   14 type  2   force =     0.00000000    0.00000000    0.00000000
     atom   15 type  2   force =     0.00000000    0.00000000    0.00000000
     atom   16 type  1   force =     0.00000000    0.00000000    0.00000000
     atom   17 type  2   force =     0.00000000    0.00000000    0.00000000
     atom   18 type  2   force =     0.00000000    0.00000000    0.00000000
     atom   19 type  1   force =     0.00000000    0.00000000    0.00000000
     atom   20 type  2   force =     0.00000000    0.00000000    0.00000000
     atom   21 type  1   force =     0.00000000    0.00000000    0.00000000
     atom   22 type  2   force =     0.00000000    0.00000000    0.00000000
     atom   23 type  2   force =     0.00000000    0.00000000    0.00000000
     atom   24 type  1   force =     0.00000000    0.00000000    0.00000000
     atom   25 type  2   force =     0.00000000    0.00000000    0.00000000
     atom   26 type  2   force =     0.00000000    0.00000000    0.00000000
     atom   27 type  1   force =     0.00000000    0.00000000    0.00000000
     atom   28 type  2   force =     0.00000000    0.00000000    0.00000000
     atom   29 type  2   force =     0.00000000    0.00000000    0.00000000
     atom   30 type  1   force =     0.00000000    0.00000000    0.00000000
     atom   31 type  2   force =     0.00000000    0.00000000    0.00000000
     atom   32 type  2   force =     0.00000000    0.00000000    0.00000000
     atom   33 type  1   force =     0.00000000    0.00000000    0.00000000
     atom   34 type  2   force =     0.00000000    0.00000000    0.00000000
     atom   35 type  2   force =     0.00000000    0.00000000    0.00000000
     atom   36 type  3   force =     0.00000000    0.00000000    0.00000000
     The SCF correction term to forces
     atom    1 type  1   force =     0.00000042    0.00000008    0.00011128
     atom    2 type  2   force =    -0.00000901    0.00000259    0.00000559
     atom    3 type  2   force =    -0.00001364    0.00001785    0.00002981
     atom    4 type  1   force =    -0.00003504   -0.00003398    0.00008062
     atom    5 type  2   force =    -0.00001646   -0.00003268    0.00002628
     atom    6 type  2   force =    -0.00001645   -0.00002024   -0.00000151
     atom    7 type  1   force =    -0.00003279   -0.00000985    0.00001791
     atom    8 type  2   force =     0.00001282    0.00001018    0.00001329
     atom    9 type  2   force =     0.00001241   -0.00000050    0.00000490
     atom   10 type  1   force =     0.00004343    0.00005675    0.00010671
     atom   11 type  2   force =     0.00002017    0.00001723    0.00003099
     atom   12 type  2   force =    -0.00001156    0.00000904   -0.00001321
     atom   13 type  1   force =     0.00008072    0.00005268    0.00006099
     atom   14 type  2   force =     0.00001653    0.00003472    0.00001450
     atom   15 type  2   force =     0.00000714    0.00001679    0.00000045
     atom   16 type  1   force =    -0.00001604   -0.00005201    0.00003118
     atom   17 type  2   force =     0.00001373   -0.00002418   -0.00000105
     atom   18 type  2   force =     0.00000545   -0.00001364    0.00002064
     atom   19 type  1   force =     0.00002515    0.00003264    0.00002914
     atom   20 type  2   force =    -0.00000373   -0.00000592   -0.00000482
     atom   21 type  1   force =    -0.00000156    0.00005258    0.00002748
     atom   22 type  2   force =    -0.00000407   -0.00000811    0.00000071
     atom   23 type  2   force =     0.00000494   -0.00000076    0.00001350
     atom   24 type  1   force =    -0.00005051    0.00000438    0.00005266
     atom   25 type  2   force =    -0.00002691    0.00000989    0.00005654
     atom   26 type  2   force =     0.00000040    0.00001378   -0.00000871
     atom   27 type  1   force =     0.00001780   -0.00014417    0.00002630
     atom   28 type  2   force =     0.00000879   -0.00001835    0.00002138
     atom   29 type  2   force =     0.00001003   -0.00001455    0.00001061
     atom   30 type  1   force =    -0.00005401    0.00006179    0.00007309
     atom   31 type  2   force =     0.00000798    0.00001413    0.00001771
     atom   32 type  2   force =     0.00000614    0.00001057   -0.00000391
     atom   33 type  1   force =    -0.00002709   -0.00002419    0.00001725
     atom   34 type  2   force =    -0.00000574    0.00000628    0.00001168
     atom   35 type  2   force =     0.00000085   -0.00000283    0.00001799
     atom   36 type  3   force =    -0.00000210    0.00000066    0.00000203

     Total force =     0.006279     Total SCF correction =     0.000347
     Energy error            =      7.6E-05 Ry
     Gradient error          =      2.2E-03 Ry/Bohr

     bfgs converged in  33 scf cycles and  32 bfgs steps
     (criteria: energy <  1.0E-04 Ry, force <  1.0E-02 Ry/Bohr)

     End of BFGS Geometry Optimization

     Final energy             =   -2205.5908092505 Ry

     File ./MoS2-V-O.bfgs deleted, as requested
Begin final coordinates

ATOMIC_POSITIONS (angstrom)
Mo            6.5658186408        1.7365514917        2.7672769712
S             8.1257625892        0.8274275215        4.3785698293
S             8.1437743936        0.8248672989        1.1837478071
Mo            8.1244679114        4.4744887717        2.7173091318
S             6.5139882307        3.6545196640        4.3105122113
S             6.5679462862        3.5404856489        1.1122293373
Mo            6.5473501148        7.1844794468        2.6417044197
S             8.0717403493        6.2883938059        4.3031544769
S             8.1583405627        6.2925316796        1.1018678800
Mo            8.1494903975        9.9183493607        2.7705995417
S             6.5361219705        8.9286307669        4.3256856377
S             6.6015675601        9.0352709588        1.1169967166
Mo            3.4664254025        1.7660992065        2.7609878922
S             5.0093090732        0.7921376322        4.3458128955
S             5.0069861232        0.8154425465        1.1692049304
Mo            4.9802305404        4.5128987328        2.6490741026
S             3.4686664125        3.6681857892        4.3228726543
S             3.4326796331        3.5388238199        1.0954191636
Mo            3.4684125964        7.1220807733        2.6566242106
S             5.0134672747        6.2896453619        1.0344934700
Mo            5.0028884558        9.8799621508        2.7308310626
S             3.4930186019        8.8681871074        4.3266100362
S             3.4051440101        8.9940723493        1.1272952201
Mo            0.2403010292        1.7422939774        2.7827362556
S             1.8815414829        0.8289908957        4.2842463238
S             1.8523951971        0.8095061586        1.2173803582
Mo            1.8597870894        4.4564686341        2.7074716880
S             0.2567405885        3.6044511069        4.3256403200
S             0.2555851497        3.5286786161        1.1447314294
Mo            0.2650785529        7.1825113542        2.7380357476
S             1.9067592998        6.2629597988        4.3015472789
S             1.8352655906        6.2805802649        1.1001951690
Mo            1.8690157724        9.8597524407        2.7822406750
S             0.2657744423        8.9776264071        4.3662859465
S             0.2784973282        9.0170911362        1.1772737147
H             1.9535105808        0.9765037345        5.6436753660
End final coordinates



     Writing all to output data dir ./MoS2-V-O.save/
 
     init_run     :      2.42s CPU      2.59s WALL (       1 calls)
     electrons    :   3090.59s CPU   3392.66s WALL (      33 calls)
     update_pot   :     44.63s CPU     46.55s WALL (      32 calls)
     forces       :     44.62s CPU     47.79s WALL (      33 calls)

     Called by init_run:
     wfcinit      :      0.39s CPU      0.43s WALL (       1 calls)
     potinit      :      1.33s CPU      1.41s WALL (       1 calls)
     hinit0       :      0.18s CPU      0.20s WALL (       1 calls)

     Called by electrons:
     c_bands      :    353.58s CPU    357.25s WALL (     292 calls)
     sum_band     :     93.34s CPU    102.05s WALL (     292 calls)
     v_of_rho     :    120.31s CPU    139.01s WALL (     310 calls)
     newd         :     49.72s CPU     55.86s WALL (     310 calls)
     mix_rho      :   2487.66s CPU   2750.53s WALL (     292 calls)

     Called by c_bands:
     init_us_2    :      6.42s CPU      6.63s WALL (     585 calls)
     init_us_2:cp :      6.41s CPU      6.62s WALL (     585 calls)
     regterg      :    332.20s CPU    335.64s WALL (     292 calls)

     Called by *egterg:
     rdiaghg      :     26.70s CPU     26.86s WALL (    1576 calls)
     h_psi        :    193.42s CPU    194.99s WALL (    1624 calls)
     s_psi        :     24.28s CPU     24.36s WALL (    1624 calls)
     g_psi        :      1.30s CPU      1.31s WALL (    1331 calls)

     Called by h_psi:
     h_psi:calbec :     26.37s CPU     26.46s WALL (    1624 calls)
     vloc_psi     :    140.16s CPU    141.53s WALL (    1624 calls)
     add_vuspsi   :     23.74s CPU     23.83s WALL (    1624 calls)

     General routines
     calbec       :     37.65s CPU     37.77s WALL (    2048 calls)
     fft          :     79.70s CPU     93.20s WALL (   20838 calls)
     ffts         :   1103.54s CPU   1357.54s WALL (  606054 calls)
     fftw         :    120.45s CPU    121.47s WALL (  177332 calls)
     interpolate  :      2.21s CPU      2.54s WALL (     310 calls)
 
     Parallel routines
 
     PWSCF        :  53m 8.86s CPU  58m18.63s WALL

 
   This run was terminated on:   0:49: 1   4Nov2023            

=------------------------------------------------------------------------------=
   JOB DONE.
=------------------------------------------------------------------------------=
