
     Program PWSCF v.7.2 starts on  3Nov2023 at 23: 0:45 

     This program is part of the open-source Quantum ESPRESSO suite
     for quantum simulation of materials; please cite
         "P. Giannozzi et al., J. Phys.:Condens. Matter 21 395502 (2009);
         "P. Giannozzi et al., J. Phys.:Condens. Matter 29 465901 (2017);
         "P. Giannozzi et al., J. Chem. Phys. 152 154105 (2020);
          URL http://www.quantum-espresso.org", 
     in publications or presentations arising from this work. More details at
     http://www.quantum-espresso.org/quote

     Parallel version (MPI & OpenMP), running on      48 processor cores
     Number of MPI processes:                48
     Threads/MPI process:                     1

     MPI processes distributed on     1 nodes
     48069 MiB available memory on the printing compute node when the environment starts
 
     Waiting for input...
     Reading input from standard input
Warning: card &CELL ignored
Warning: card CELL_DYNAMICS = 'BFGS', ignored
Warning: card CELL_DOFREE = '2DXY' ignored
Warning: card / ignored

     Current dimensions of program PWSCF are:
     Max number of different atomic species (ntypx) = 10
     Max number of k-points (npk) =  40000
     Max angular momentum in pseudopotentials (lmaxx) =  4

     IMPORTANT: XC functional enforced from input :
     Exchange-correlation= RVV10
                           (   1   4  13   4  26   0   0)
     Any further DFT definition will be discarded
     Please, verify this is what you really want


     gamma-point specific algorithms are used
     signal trapping enabled: kill the code with -SIGUSR1 to stop cleanly the simulation 
 
     R & G space division:  proc/nbgrp/npool/nimage =      48
     Subspace diagonalization in iterative solution of the eigenvalue problem:
     one sub-group per band group will be used
     scalapack distributed-memory algorithm (size of sub-group:  2*  2 procs)

 
     Parallelization info
     --------------------
     sticks:   dense  smooth     PW     G-vecs:    dense   smooth      PW
     Min         243     194     47                49060    35090    4376
     Max         246     196     50                49086    35128    4410
     Sum       11735    9389   2349              2355467  1685513  210763
 
     Using Slab Decomposition
 


     bravais-lattice index     =            0
     lattice parameter (alat)  =      17.8707  a.u.
     unit-cell volume          =   17436.2743 (a.u.)^3
     number of atoms/cell      =           36
     number of atomic types    =            3
     number of electrons       =       307.00
     number of Kohn-Sham states=          185
     kinetic-energy cutoff     =      80.0000  Ry
     charge density cutoff     =     400.0000  Ry
     scf convergence threshold =      1.0E-06
     mixing beta               =       0.7000
     number of iterations used =            8  local-TF  mixing
     energy convergence thresh.=      1.0E-04
     force convergence thresh. =      1.0E-02
     Exchange-correlation= RVV10
                           (   1   4  13   4  26   0   0)
     nstep                     =          200


     celldm(1)=  17.870686  celldm(2)=   0.000000  celldm(3)=   0.000000
     celldm(4)=   0.000000  celldm(5)=   0.000000  celldm(6)=   0.000000

     crystal axes: (cart. coord. in units of alat)
               a(1) = (   1.000000   0.000000   0.000000 )  
               a(2) = (   0.000000   1.155671   0.000000 )  
               a(3) = (   0.000000   0.000000   2.643601 )  

     reciprocal axes: (cart. coord. in units 2 pi/alat)
               b(1) = (  1.000000  0.000000  0.000000 )  
               b(2) = (  0.000000  0.865298  0.000000 )  
               b(3) = (  0.000000  0.000000  0.378272 )  


     PseudoPot. # 1 for Mo read from file:
     ../pseudo/Mo_ONCV_PBE-1.0.oncvpsp.upf
     MD5 check sum: 1b5d28e075c9ccadda658a603575cd1f
     Pseudo is Norm-conserving, Zval = 14.0
     Generated using ONCVPSP code by D. R. Hamann
     Using radial grid of 1526 points,  6 beta functions with: 
                l(1) =   0
                l(2) =   0
                l(3) =   1
                l(4) =   1
                l(5) =   2
                l(6) =   2

     PseudoPot. # 2 for S  read from file:
     ../pseudo/s_pbe_v1.4.uspp.F.UPF
     MD5 check sum: 88d86576ff6df21479756cfb9bdac1df
     Pseudo is Ultrasoft + core correction, Zval =  6.0
     Generated by new atomic code, or converted to UPF format
     Using radial grid of  907 points,  6 beta functions with: 
                l(1) =   0
                l(2) =   0
                l(3) =   1
                l(4) =   1
                l(5) =   2
                l(6) =   2
     Q(r) pseudized with  8 coefficients,  rinner =    1.300   1.300   1.300
                                                       1.300   1.300

     PseudoPot. # 3 for H  read from file:
     ../pseudo/H_ONCV_PBE-1.0.oncvpsp.upf
     MD5 check sum: 1790becc920ee074925cf490c71280fe
     Pseudo is Norm-conserving, Zval =  1.0
     Generated using ONCVPSP code by D. R. Hamann
     Using radial grid of 1166 points,  2 beta functions with: 
                l(1) =   0
                l(2) =   0

     atomic species   valence    mass     pseudopotential
        Mo            14.00    95.94000     Mo( 1.00)
        S              6.00    32.06500     S ( 1.00)
        H              1.00     1.00794     H ( 1.00)

     No symmetry found



   Cartesian axes

     site n.     atom                  positions (alat units)
         1           Mo  tau(   1) = (   0.6952221   0.1890506   0.2985846  )
         2           S   tau(   2) = (   0.8646417   0.0856217   0.4689279  )
         3           S   tau(   3) = (   0.8663890   0.0857843   0.1351291  )
         4           Mo  tau(   4) = (   0.8560186   0.4753274   0.2873942  )
         5           S   tau(   5) = (   0.6873294   0.3936244   0.4596353  )
         6           S   tau(   6) = (   0.6929804   0.3713468   0.1185692  )
         7           Mo  tau(   7) = (   0.6862796   0.7633098   0.2825370  )
         8           S   tau(   8) = (   0.8545980   0.6708292   0.4486168  )
         9           S   tau(   9) = (   0.8545123   0.6666874   0.1146125  )
        10           Mo  tau(  10) = (   0.8629403   1.0471007   0.3006803  )
        11           S   tau(  11) = (   0.6868280   0.9456650   0.4634891  )
        12           S   tau(  12) = (   0.6998113   0.9568511   0.1205389  )
        13           Mo  tau(  13) = (   0.3618216   0.1847309   0.2935964  )
        14           S   tau(  14) = (   0.5260962   0.0863870   0.4600448  )
        15           S   tau(  15) = (   0.5348379   0.0894875   0.1297123  )
        16           Mo  tau(  16) = (   0.5265817   0.4772436   0.2784130  )
        17           S   tau(  17) = (   0.3624753   0.3882513   0.4525556  )
        18           S   tau(  18) = (   0.3635411   0.3752055   0.1119148  )
        19           Mo  tau(  19) = (   0.3652268   0.7630864   0.2781795  )
        20           S   tau(  20) = (   0.5269494   0.6690381   0.1096838  )
        21           Mo  tau(  21) = (   0.5300192   1.0470394   0.2900995  )
        22           S   tau(  22) = (   0.3670346   0.9457522   0.4574073  )
        23           S   tau(  23) = (   0.3604225   0.9585725   0.1159032  )
        24           Mo  tau(  24) = (   0.0313099   0.1847895   0.3013130  )
        25           S   tau(  25) = (   0.1956761   0.0838230   0.4650863  )
        26           S   tau(  26) = (   0.1967693   0.0903508   0.1278874  )
        27           Mo  tau(  27) = (   0.1967578   0.4753919   0.2813011  )
        28           S   tau(  28) = (   0.0287851   0.3864324   0.4586755  )
        29           S   tau(  29) = (   0.0244514   0.3729871   0.1239344  )
        30           Mo  tau(  30) = (   0.0286728   0.7631204   0.2856894  )
        31           S   tau(  31) = (   0.2011512   0.6675435   0.4465001  )
        32           S   tau(  32) = (   0.1969214   0.6672839   0.1104564  )
        33           Mo  tau(  33) = (   0.1950294   1.0511147   0.2932237  )
        34           S   tau(  34) = (   0.0312912   0.9612169   0.4667423  )
        35           S   tau(  35) = (   0.0292670   0.9563028   0.1216485  )
        36           H   tau(  36) = (   0.4444444   0.2568157   0.5650415  )

     number of k points=     1  Gaussian smearing, width (Ry)=  0.0100
                       cart. coord. in units 2pi/alat
        k(    1) = (   0.0000000   0.0000000   0.0000000), wk =   2.0000000

     Dense  grid:  1177734 G-vectors     FFT dimensions: ( 120, 135, 320)

     Smooth grid:   842757 G-vectors     FFT dimensions: ( 108, 120, 270)

     Estimated max dynamical RAM per process >     146.59 MB

     Estimated total dynamical RAM >       6.87 GB

     Initial potential from superposition of free atoms

     starting charge     306.9873, renormalised to     307.0000

     negative rho (up, down):  1.409E-04 0.000E+00


---------------------------------------------------------------------------------
Carrying out rVV10 run using the following parameters:
Nqs =      20    Nr_points =    1024   r_max =   100.000
b_value =  6.30000    beta =  0.00901
     q_mesh =  0.00010000  0.00030000  0.00058939  0.00100810
               0.00161396  0.00249058  0.00375900  0.00559430
               0.00824984  0.01209221  0.01765183  0.02569619
               0.03733578  0.05417739  0.07854596  0.11380545
               0.16482331  0.23864234  0.34545298  0.50000000

Gradients computed in Reciprocal space

---------------------------------------------------------------------------------


     Starting wfcs are  213 randomized atomic wfcs

     total cpu time spent up to now is        2.8 secs

     Self-consistent Calculation

     iteration #  1     ecut=    80.00 Ry     beta= 0.70
     Davidson diagonalization with overlap
     ethr =  1.00E-02,  avg # of iterations =  2.0

     Threshold (ethr) on eigenvalues was too large:
     Diagonalizing with lowered threshold

     Davidson diagonalization with overlap
     ethr =  3.60E-04,  avg # of iterations =  4.0

     negative rho (up, down):  1.937E-08 0.000E+00

     total cpu time spent up to now is       28.4 secs

     total energy              =   -2205.58012457 Ry
     estimated scf accuracy    <       1.39403527 Ry

     iteration #  2     ecut=    80.00 Ry     beta= 0.70
     Davidson diagonalization with overlap
     ethr =  4.54E-04,  avg # of iterations =  2.0

     total cpu time spent up to now is       30.9 secs

     total energy              =   -2205.44070166 Ry
     estimated scf accuracy    <       0.56069839 Ry

     iteration #  3     ecut=    80.00 Ry     beta= 0.70
     Davidson diagonalization with overlap
     ethr =  1.83E-04,  avg # of iterations =  2.0

     total cpu time spent up to now is       33.3 secs

     total energy              =   -2205.50742849 Ry
     estimated scf accuracy    <       0.09557790 Ry

     iteration #  4     ecut=    80.00 Ry     beta= 0.70
     Davidson diagonalization with overlap
     ethr =  3.11E-05,  avg # of iterations = 18.0

     total cpu time spent up to now is       36.7 secs

     total energy              =   -2205.51601909 Ry
     estimated scf accuracy    <       0.02795080 Ry

     iteration #  5     ecut=    80.00 Ry     beta= 0.70
     Davidson diagonalization with overlap
     ethr =  9.10E-06,  avg # of iterations =  3.0

     total cpu time spent up to now is       38.9 secs

     total energy              =   -2205.51642769 Ry
     estimated scf accuracy    <       0.01796977 Ry

     iteration #  6     ecut=    80.00 Ry     beta= 0.70
     Davidson diagonalization with overlap
     ethr =  5.85E-06,  avg # of iterations =  2.0

     total cpu time spent up to now is       41.1 secs

     total energy              =   -2205.51526321 Ry
     estimated scf accuracy    <       0.01268124 Ry

     iteration #  7     ecut=    80.00 Ry     beta= 0.70
     Davidson diagonalization with overlap
     ethr =  4.13E-06,  avg # of iterations =  2.0

     negative rho (up, down):  7.315E-06 0.000E+00

     total cpu time spent up to now is       44.8 secs

     total energy              =   -2205.51339736 Ry
     estimated scf accuracy    <       0.00759329 Ry

     iteration #  8     ecut=    80.00 Ry     beta= 0.70
     Davidson diagonalization with overlap
     ethr =  2.47E-06,  avg # of iterations =  2.0

     negative rho (up, down):  9.287E-03 0.000E+00

     total cpu time spent up to now is       48.9 secs

     total energy              =   -2205.51319080 Ry
     estimated scf accuracy    <       0.00341104 Ry

     iteration #  9     ecut=    80.00 Ry     beta= 0.70
     Davidson diagonalization with overlap
     ethr =  1.11E-06,  avg # of iterations =  2.0

     negative rho (up, down):  3.193E-02 0.000E+00

     total cpu time spent up to now is       53.1 secs

     total energy              =   -2205.51312569 Ry
     estimated scf accuracy    <       0.00204954 Ry

     iteration # 10     ecut=    80.00 Ry     beta= 0.70
     Davidson diagonalization with overlap
     ethr =  6.68E-07,  avg # of iterations =  2.0

     negative rho (up, down):  2.959E-02 0.000E+00

     total cpu time spent up to now is       57.5 secs

     total energy              =   -2205.51325314 Ry
     estimated scf accuracy    <       0.00059830 Ry

     iteration # 11     ecut=    80.00 Ry     beta= 0.70
     Davidson diagonalization with overlap
     ethr =  1.95E-07,  avg # of iterations =  2.0

     negative rho (up, down):  8.640E-03 0.000E+00

     total cpu time spent up to now is       63.1 secs

     total energy              =   -2205.51325578 Ry
     estimated scf accuracy    <       0.00015067 Ry

     iteration # 12     ecut=    80.00 Ry     beta= 0.70
     Davidson diagonalization with overlap
     ethr =  4.91E-08,  avg # of iterations =  8.0

     negative rho (up, down):  3.366E-03 0.000E+00

     total cpu time spent up to now is       69.9 secs

     total energy              =   -2205.51331717 Ry
     estimated scf accuracy    <       0.00002150 Ry

     iteration # 13     ecut=    80.00 Ry     beta= 0.70
     Davidson diagonalization with overlap
     ethr =  7.00E-09,  avg # of iterations = 11.0

     negative rho (up, down):  6.527E-04 0.000E+00

     total cpu time spent up to now is       80.6 secs

     total energy              =   -2205.51332642 Ry
     estimated scf accuracy    <       0.00000237 Ry

     iteration # 14     ecut=    80.00 Ry     beta= 0.70
     Davidson diagonalization with overlap
     ethr =  7.71E-10,  avg # of iterations =  4.0

     negative rho (up, down):  1.374E-04 0.000E+00

     total cpu time spent up to now is       82.8 secs

     End of self-consistent calculation

          k = 0.0000 0.0000 0.0000 (105382 PWs)   bands (ev):

   -62.8926 -62.8871 -62.8794 -62.8727 -62.8420 -62.8315 -62.8287 -62.8096
   -62.8018 -62.7960 -62.7502 -62.7130 -37.2410 -37.1679 -37.1584 -37.1550
   -37.1425 -37.1149 -37.0927 -37.0875 -37.0840 -37.0761 -37.0638 -37.0544
   -37.0510 -37.0383 -37.0260 -37.0240 -37.0139 -37.0122 -37.0093 -36.9812
   -36.9746 -36.9689 -36.9514 -36.9383 -36.9224 -36.9186 -36.9155 -36.9029
   -36.8992 -36.8857 -36.8752 -36.8553 -36.8429 -36.8111 -36.7325 -36.7126
   -16.0241 -15.2931 -15.1619 -15.0249 -14.9464 -14.8547 -14.6545 -14.4814
   -14.4552 -14.4332 -14.4118 -14.3747 -14.3336 -14.3114 -14.1940 -14.1413
   -14.1293 -14.1036 -14.0577 -13.9017 -13.8521 -13.8277 -13.8068  -8.0904
    -7.5844  -7.4230  -7.3025  -7.2879  -7.2242  -7.2050  -7.1757  -7.0213
    -6.8451  -6.7903  -6.7487  -6.7045  -6.5715  -6.5187  -6.4655  -6.4284
    -6.3039  -6.2473  -6.0920  -6.0097  -5.9336  -5.9085  -5.8507  -5.7952
    -5.7764  -5.7311  -5.7125  -5.6613  -5.6318  -5.5694  -5.5451  -5.4848
    -5.4301  -5.3814  -5.1835  -5.1366  -5.0776  -5.0372  -4.9899  -4.9853
    -4.9268  -4.8371  -4.6889  -4.5317  -4.3476  -4.3384  -4.3232  -4.2554
    -4.2055  -4.0475  -4.0300  -3.8732  -3.8472  -3.8183  -3.7593  -3.6951
    -3.6388  -3.6270  -3.5419  -3.5131  -3.4829  -3.4794  -3.4435  -3.4016
    -3.3750  -3.2056  -3.1400  -2.9273  -2.8865  -2.8208  -2.7765  -2.7586
    -2.7218  -2.6700  -2.6584  -2.6349  -2.5775  -2.3182  -2.0342  -1.9948
    -1.9264  -1.1356  -0.7766  -0.6928  -0.1881  -0.1508  -0.0897  -0.0368
     0.0302   0.1111   0.1449   0.2226   0.2569   0.2792   0.3840   0.4499
     0.4542   0.5174   0.5473   0.5674   0.6022   0.6751   0.7223   0.7446
     0.7466   0.7652   0.8505   0.8687   0.9250   0.9810   1.0346   1.1404
     1.4307

     the Fermi energy is    -1.1356 ev

!    total energy              =   -2205.51332906 Ry
     estimated scf accuracy    <       0.00000040 Ry
     smearing contrib. (-TS)   =      -0.00564738 Ry
     internal energy E=F+TS    =   -2205.50768169 Ry

     The total energy is F=E-TS. E is the sum of the following terms:
     one-electron contribution =  -18046.96266015 Ry
     hartree contribution      =    9010.15707925 Ry
     xc contribution           =    -385.22022895 Ry
     ewald contribution        =    7216.51812816 Ry

     convergence has been achieved in  14 iterations

     negative rho (up, down):  1.374E-04 0.000E+00

     Forces acting on atoms (cartesian axes, Ry/au):

     atom    1 type  1   force =     0.01212897   -0.02587862    0.00717267
     atom    2 type  2   force =    -0.01406809    0.01701134    0.00044090
     atom    3 type  2   force =    -0.00993467    0.00896741   -0.00375288
     atom    4 type  1   force =     0.00776625    0.00586606   -0.00068843
     atom    5 type  2   force =    -0.00372313   -0.00706213   -0.00926518
     atom    6 type  2   force =     0.00086190    0.01053968   -0.00061201
     atom    7 type  1   force =     0.00346969   -0.01422190   -0.00675682
     atom    8 type  2   force =     0.00095613   -0.00436947    0.01675706
     atom    9 type  2   force =     0.01216192    0.00558778    0.01217508
     atom   10 type  1   force =    -0.01173023    0.01081534   -0.02621040
     atom   11 type  2   force =     0.00488109   -0.00231509   -0.00818702
     atom   12 type  2   force =    -0.00249007    0.00090928    0.00633397
     atom   13 type  1   force =    -0.00735173   -0.00503126   -0.03675046
     atom   14 type  2   force =     0.00267187    0.02585910    0.03348273
     atom   15 type  2   force =    -0.01254289    0.00300788   -0.00750170
     atom   16 type  1   force =     0.00226774    0.00737232    0.01165018
     atom   17 type  2   force =     0.04491521   -0.03459953    0.04937213
     atom   18 type  2   force =    -0.00507482   -0.00691877    0.01379321
     atom   19 type  1   force =     0.00150838   -0.00913023   -0.00894485
     atom   20 type  2   force =     0.00324970   -0.00336594    0.00000143
     atom   21 type  1   force =    -0.00399607   -0.00291059   -0.01175429
     atom   22 type  2   force =    -0.00453668   -0.00309484   -0.00225600
     atom   23 type  2   force =     0.00116309    0.00084077    0.01010662
     atom   24 type  1   force =    -0.00856392   -0.00338204   -0.02248369
     atom   25 type  2   force =     0.01745853    0.01936967    0.00730652
     atom   26 type  2   force =    -0.01130672   -0.00000860   -0.00303522
     atom   27 type  1   force =    -0.01681472    0.01212758   -0.01734914
     atom   28 type  2   force =    -0.00087841   -0.00093362   -0.00551304
     atom   29 type  2   force =     0.00398140   -0.00184251   -0.00239271
     atom   30 type  1   force =    -0.00425346    0.01084238   -0.00577081
     atom   31 type  2   force =     0.00194089    0.00132044    0.01983265
     atom   32 type  2   force =    -0.01055213    0.00364303    0.01022556
     atom   33 type  1   force =     0.01536960   -0.00370966   -0.00869054
     atom   34 type  2   force =     0.00301671   -0.04334738   -0.01001679
     atom   35 type  2   force =    -0.00830106    0.00625853    0.01570143
     atom   36 type  3   force =    -0.00365026    0.02178357   -0.01642016
     The non-local contrib.  to forces
     atom    1 type  1   force =    -0.00349720    0.02764762   -0.00964771
     atom    2 type  2   force =    -0.01071867    0.00404751   -0.27032893
     atom    3 type  2   force =    -0.01306559   -0.00206119    0.27093559
     atom    4 type  1   force =    -0.00000567    0.00618596    0.00812251
     atom    5 type  2   force =     0.00248196   -0.03434238   -0.24861584
     atom    6 type  2   force =    -0.00482058    0.01058407    0.26013398
     atom    7 type  1   force =    -0.01955487   -0.00025198   -0.02006035
     atom    8 type  2   force =     0.00321934   -0.00154016   -0.25363275
     atom    9 type  2   force =     0.00710240   -0.00995875    0.27781291
     atom   10 type  1   force =     0.00534352   -0.00086871   -0.00027185
     atom   11 type  2   force =     0.01413452    0.00414334   -0.25984504
     atom   12 type  2   force =    -0.01450456   -0.01674167    0.26289869
     atom   13 type  1   force =    -0.00124860    0.02125409   -0.00059879
     atom   14 type  2   force =    -0.01224667    0.05961006   -0.17498755
     atom   15 type  2   force =    -0.01366766   -0.00553550    0.26176745
     atom   16 type  1   force =    -0.00933249    0.02786402   -0.02690942
     atom   17 type  2   force =     0.10260625   -0.16969811   -0.08560396
     atom   18 type  2   force =    -0.00292954   -0.00466777    0.27609162
     atom   19 type  1   force =     0.01353304   -0.00012170   -0.01295925
     atom   20 type  2   force =     0.00070666   -0.02049128    0.26538231
     atom   21 type  1   force =     0.00319549    0.02337328    0.00274812
     atom   22 type  2   force =    -0.00800337    0.00249327   -0.25710523
     atom   23 type  2   force =     0.00847642   -0.01422733    0.26845596
     atom   24 type  1   force =     0.00582356    0.01231497   -0.01133213
     atom   25 type  2   force =     0.01101378    0.00606969   -0.25449074
     atom   26 type  2   force =    -0.00272473   -0.01343579    0.26494029
     atom   27 type  1   force =     0.00262238    0.00386992    0.00453452
     atom   28 type  2   force =    -0.00860047   -0.02309593   -0.27098657
     atom   29 type  2   force =     0.00884776    0.00255006    0.26272694
     atom   30 type  1   force =     0.00122676    0.01668275    0.01044586
     atom   31 type  2   force =    -0.00938727    0.00824963   -0.24699018
     atom   32 type  2   force =    -0.00335466   -0.01249812    0.27540417
     atom   33 type  1   force =    -0.00638783    0.00663154    0.00519570
     atom   34 type  2   force =    -0.00061635   -0.03670866   -0.27345194
     atom   35 type  2   force =    -0.00195771   -0.01101064    0.27068461
     atom   36 type  3   force =    -0.00342416    0.00632200   -0.01161205
     The ionic contribution  to forces
     atom    1 type  1   force =     0.72121911    0.11971262    5.35833332
     atom    2 type  2   force =    -0.59473745    0.33682435   39.26334044
     atom    3 type  2   force =    -0.14840128   -0.00738716  -36.10455461
     atom    4 type  1   force =     0.17119835    0.69291327    0.60103897
     atom    5 type  2   force =    -0.66579965    1.68116095   38.62534036
     atom    6 type  2   force =     0.38279308   -0.47704908  -38.08070070
     atom    7 type  1   force =    -2.56384768   -2.71976654    2.55760655
     atom    8 type  2   force =    -0.96156003    0.07921276   37.39036956
     atom    9 type  2   force =     0.34938337   -0.01613095  -37.99838596
     atom   10 type  1   force =    -1.05681581   -0.41299001    5.65386604
     atom   11 type  2   force =    -0.52299994   -1.66229605   39.13787021
     atom   12 type  2   force =     0.45584012    0.67446064  -37.85256562
     atom   13 type  1   force =     0.22030411    0.74528100    2.03372797
     atom   14 type  2   force =     0.35038119   -0.62463598   38.15740576
     atom   15 type  2   force =     0.17982081   -0.11076656  -36.89026722
     atom   16 type  1   force =     0.09477918    4.28190662    0.11700895
     atom   17 type  2   force =     0.38620755    2.19089710   37.36129492
     atom   18 type  2   force =    -0.18061421   -0.61290454  -38.65653403
     atom   19 type  1   force =     2.69351625   -2.36796225    0.61903905
     atom   20 type  2   force =     0.23667658   -0.16520462  -38.49247066
     atom   21 type  1   force =     0.09545707   -0.17458164    1.04297492
     atom   22 type  2   force =     0.43744924   -1.79943443   38.41955488
     atom   23 type  2   force =    -0.09331485    0.64215160  -38.29784049
     atom   24 type  1   force =    -0.67183445    1.08311638    5.72581876
     atom   25 type  2   force =     0.41256918    0.09320804   39.17985982
     atom   26 type  2   force =    -0.32448404    0.03149932  -37.38206107
     atom   27 type  1   force =    -0.16044310    0.60340365   -2.43925955
     atom   28 type  2   force =    -0.03031887    1.06285603   38.18110379
     atom   29 type  2   force =    -0.28192438   -0.41173070  -37.28921235
     atom   30 type  1   force =    -0.36695574   -0.85999545   -0.02088431
     atom   31 type  2   force =     1.17425989    0.03206920   37.31589999
     atom   32 type  2   force =    -0.49542470    0.01966858  -38.63930529
     atom   33 type  1   force =     0.69514093   -1.01035946    2.00287221
     atom   34 type  2   force =     0.21855825   -1.47932782   39.35941945
     atom   35 type  2   force =    -0.30720312    0.46419659  -37.80574216
     atom   36 type  3   force =     0.15112504    0.07798455    7.84603811
     The local contribution  to forces
     atom    1 type  1   force =    -0.70585727   -0.17309538   -5.34123028
     atom    2 type  2   force =     0.59108974   -0.32361009  -39.01347999
     atom    3 type  2   force =     0.15095733    0.01846319   35.85111927
     atom    4 type  1   force =    -0.16354688   -0.69311846   -0.60968116
     atom    5 type  2   force =     0.65989849   -1.65581663  -38.40643420
     atom    6 type  2   force =    -0.37762949    0.47817076   37.84105418
     atom    7 type  1   force =     2.58698113    2.70589447   -2.54423273
     atom    8 type  2   force =     0.95934563   -0.08242408  -37.14057846
     atom    9 type  2   force =    -0.34425290    0.03111112   37.75411616
     atom   10 type  1   force =     1.03964643    0.42454437   -5.67954062
     atom   11 type  2   force =     0.51431957    1.65635423  -38.90710497
     atom   12 type  2   force =    -0.44514365   -0.65835035   37.61718364
     atom   13 type  1   force =    -0.22628310   -0.77144072   -2.06972595
     atom   14 type  2   force =    -0.33628621    0.59465780  -37.96522615
     atom   15 type  2   force =    -0.17947215    0.11895411   36.64203977
     atom   16 type  1   force =    -0.08319496   -4.30286617   -0.07832107
     atom   17 type  2   force =    -0.43834097   -2.06528372  -37.23774195
     atom   18 type  2   force =     0.17846938    0.61113417   38.41574882
     atom   19 type  1   force =    -2.70557268    2.35906086   -0.61500375
     atom   20 type  2   force =    -0.23416539    0.18156985   38.24852820
     atom   21 type  1   force =    -0.10269114    0.14824531   -1.05716376
     atom   22 type  2   force =    -0.43414619    1.79442797  -38.18533319
     atom   23 type  2   force =     0.08667074   -0.62832178   38.06072790
     atom   24 type  1   force =     0.65756446   -1.09877954   -5.73665297
     atom   25 type  2   force =    -0.40584126   -0.07935899  -38.93863353
     atom   26 type  2   force =     0.31609122   -0.01877794   37.13539925
     atom   27 type  1   force =     0.14105702   -0.59515563    2.41746939
     atom   28 type  2   force =     0.03765062   -1.04242579  -37.93662585
     atom   29 type  2   force =     0.27778992    0.40800619   37.04498544
     atom   30 type  1   force =     0.36146073    0.85400723    0.00481218
     atom   31 type  2   force =    -1.16348581   -0.03883538  -37.06946421
     atom   32 type  2   force =     0.48829901   -0.00431818   38.39548934
     atom   33 type  1   force =    -0.67324285    1.00004700   -2.01650164
     atom   34 type  2   force =    -0.21528779    1.47159190  -39.11726839
     atom   35 type  2   force =     0.30098408   -0.44802994   37.57212642
     atom   36 type  3   force =    -0.15134530   -0.06253283   -7.85085759
     The core correction contribution to forces
     atom    1 type  1   force =     0.00000000    0.00000000    0.00000000
     atom    2 type  2   force =     0.00028982   -0.00023369    0.02073963
     atom    3 type  2   force =     0.00057154   -0.00001063   -0.02092102
     atom    4 type  1   force =     0.00000000    0.00000000    0.00000000
     atom    5 type  2   force =    -0.00037001    0.00192264    0.02017636
     atom    6 type  2   force =     0.00040434   -0.00107548   -0.02072474
     atom    7 type  1   force =     0.00000000    0.00000000    0.00000000
     atom    8 type  2   force =    -0.00006901    0.00040447    0.02036456
     atom    9 type  2   force =    -0.00012272    0.00058821   -0.02104557
     atom   10 type  1   force =     0.00000000    0.00000000    0.00000000
     atom   11 type  2   force =    -0.00063189   -0.00050744    0.02064926
     atom   12 type  2   force =     0.00123703    0.00139531   -0.02082972
     atom   13 type  1   force =     0.00000000    0.00000000    0.00000000
     atom   14 type  2   force =     0.00081645   -0.00382152    0.01604961
     atom   15 type  2   force =     0.00072849    0.00037264   -0.02062213
     atom   16 type  1   force =     0.00000000    0.00000000    0.00000000
     atom   17 type  2   force =    -0.00555895    0.00948904    0.01113319
     atom   18 type  2   force =     0.00004277   -0.00039765   -0.02114050
     atom   19 type  1   force =     0.00000000    0.00000000    0.00000000
     atom   20 type  2   force =     0.00008207    0.00075371   -0.02118298
     atom   21 type  1   force =     0.00000000    0.00000000    0.00000000
     atom   22 type  2   force =     0.00020696   -0.00045810    0.02043573
     atom   23 type  2   force =    -0.00062663    0.00120297   -0.02091667
     atom   24 type  1   force =     0.00000000    0.00000000    0.00000000
     atom   25 type  2   force =    -0.00026354   -0.00053890    0.02035387
     atom   26 type  2   force =    -0.00013071    0.00073295   -0.02093114
     atom   27 type  1   force =     0.00000000    0.00000000    0.00000000
     atom   28 type  2   force =     0.00044294    0.00171786    0.02076394
     atom   29 type  2   force =    -0.00065413   -0.00057688   -0.02054568
     atom   30 type  1   force =     0.00000000    0.00000000    0.00000000
     atom   31 type  2   force =     0.00048860   -0.00021917    0.02018447
     atom   32 type  2   force =    -0.00008067    0.00073384   -0.02110420
     atom   33 type  1   force =     0.00000000    0.00000000    0.00000000
     atom   34 type  2   force =     0.00037703    0.00110431    0.02113580
     atom   35 type  2   force =    -0.00009581    0.00099371   -0.02107348
     atom   36 type  3   force =     0.00000000    0.00000000    0.00000000
     The Hubbard contrib.    to forces
     atom    1 type  1   force =     0.00000000    0.00000000    0.00000000
     atom    2 type  2   force =     0.00000000    0.00000000    0.00000000
     atom    3 type  2   force =     0.00000000    0.00000000    0.00000000
     atom    4 type  1   force =     0.00000000    0.00000000    0.00000000
     atom    5 type  2   force =     0.00000000    0.00000000    0.00000000
     atom    6 type  2   force =     0.00000000    0.00000000    0.00000000
     atom    7 type  1   force =     0.00000000    0.00000000    0.00000000
     atom    8 type  2   force =     0.00000000    0.00000000    0.00000000
     atom    9 type  2   force =     0.00000000    0.00000000    0.00000000
     atom   10 type  1   force =     0.00000000    0.00000000    0.00000000
     atom   11 type  2   force =     0.00000000    0.00000000    0.00000000
     atom   12 type  2   force =     0.00000000    0.00000000    0.00000000
     atom   13 type  1   force =     0.00000000    0.00000000    0.00000000
     atom   14 type  2   force =     0.00000000    0.00000000    0.00000000
     atom   15 type  2   force =     0.00000000    0.00000000    0.00000000
     atom   16 type  1   force =     0.00000000    0.00000000    0.00000000
     atom   17 type  2   force =     0.00000000    0.00000000    0.00000000
     atom   18 type  2   force =     0.00000000    0.00000000    0.00000000
     atom   19 type  1   force =     0.00000000    0.00000000    0.00000000
     atom   20 type  2   force =     0.00000000    0.00000000    0.00000000
     atom   21 type  1   force =     0.00000000    0.00000000    0.00000000
     atom   22 type  2   force =     0.00000000    0.00000000    0.00000000
     atom   23 type  2   force =     0.00000000    0.00000000    0.00000000
     atom   24 type  1   force =     0.00000000    0.00000000    0.00000000
     atom   25 type  2   force =     0.00000000    0.00000000    0.00000000
     atom   26 type  2   force =     0.00000000    0.00000000    0.00000000
     atom   27 type  1   force =     0.00000000    0.00000000    0.00000000
     atom   28 type  2   force =     0.00000000    0.00000000    0.00000000
     atom   29 type  2   force =     0.00000000    0.00000000    0.00000000
     atom   30 type  1   force =     0.00000000    0.00000000    0.00000000
     atom   31 type  2   force =     0.00000000    0.00000000    0.00000000
     atom   32 type  2   force =     0.00000000    0.00000000    0.00000000
     atom   33 type  1   force =     0.00000000    0.00000000    0.00000000
     atom   34 type  2   force =     0.00000000    0.00000000    0.00000000
     atom   35 type  2   force =     0.00000000    0.00000000    0.00000000
     atom   36 type  3   force =     0.00000000    0.00000000    0.00000000
     The SCF correction term to forces
     atom    1 type  1   force =     0.00026424   -0.00014780   -0.00027669
     atom    2 type  2   force =     0.00000839   -0.00002107    0.00017574
     atom    3 type  2   force =     0.00000326   -0.00004115   -0.00032613
     atom    4 type  1   force =     0.00012036   -0.00011903   -0.00016277
     atom    5 type  2   force =     0.00006600    0.00000896    0.00027413
     atom    6 type  2   force =     0.00011447   -0.00009492   -0.00036875
     atom    7 type  1   force =    -0.00010896   -0.00010218   -0.00006431
     atom    8 type  2   force =     0.00002012   -0.00002679    0.00024013
     atom    9 type  2   force =     0.00005170   -0.00002618   -0.00031647
     atom   10 type  1   force =     0.00009555    0.00012536   -0.00025799
     atom   11 type  2   force =     0.00005875   -0.00001351    0.00024951
     atom   12 type  2   force =     0.00008090    0.00014102   -0.00034704
     atom   13 type  1   force =    -0.00012423   -0.00012996   -0.00014771
     atom   14 type  2   force =     0.00000703    0.00004440    0.00024705
     atom   15 type  2   force =     0.00004754   -0.00002115   -0.00041359
     atom   16 type  1   force =     0.00001594    0.00046352   -0.00012229
     atom   17 type  2   force =     0.00000125   -0.00000817    0.00029591
     atom   18 type  2   force =    -0.00004330   -0.00008731   -0.00036671
     atom   19 type  1   force =     0.00003169   -0.00011147   -0.00001491
     atom   20 type  2   force =    -0.00005030    0.00000208   -0.00024946
     atom   21 type  1   force =     0.00004244    0.00004813   -0.00030759
     atom   22 type  2   force =    -0.00004340   -0.00012788    0.00019780
     atom   23 type  2   force =    -0.00004267    0.00003097   -0.00031409
     atom   24 type  1   force =    -0.00011757   -0.00003818   -0.00031136
     atom   25 type  2   force =    -0.00001971   -0.00001450    0.00022309
     atom   26 type  2   force =    -0.00005855   -0.00003147   -0.00037656
     atom   27 type  1   force =    -0.00005110    0.00000530   -0.00008752
     atom   28 type  2   force =    -0.00005271    0.00000988    0.00023765
     atom   29 type  2   force =    -0.00007785   -0.00009551   -0.00034107
     atom   30 type  1   force =     0.00001471    0.00014351   -0.00013857
     atom   31 type  2   force =     0.00006539    0.00005183    0.00020856
     atom   32 type  2   force =     0.00000881    0.00005258   -0.00025246
     atom   33 type  1   force =    -0.00014074   -0.00003307   -0.00025082
     atom   34 type  2   force =    -0.00001451   -0.00001144    0.00015427
     atom   35 type  2   force =    -0.00002859    0.00010446   -0.00028798
     atom   36 type  3   force =    -0.00000593    0.00000552    0.00001736

     Total force =     0.142831     Total SCF correction =     0.001747

     BFGS Geometry Optimization
     Energy error            =      0.0E+00 Ry
     Gradient error          =      4.9E-02 Ry/Bohr

     number of scf cycles    =   1
     number of bfgs steps    =   0

     energy             new  =   -2205.5133290638 Ry

     new trust radius        =       0.0751805160 bohr
     new conv_thr            =       0.0000010000 Ry


ATOMIC_POSITIONS (angstrom)
Mo            6.5809667806        1.7741118545        2.8274386430
S             8.1692648251        0.8187060365        4.4347716679
S             8.1879758854        0.8159870945        1.2758974875
Mo            8.0992722860        4.4981611319        2.7174540946
S             6.4979390619        3.7186743701        4.3417577275
S             6.5538058980        3.5173149133        1.1209563663
Mo            6.4918177771        7.2109113807        2.6683089289
S             8.0822336918        6.3415587689        4.2513290162
S             8.0873534589        6.3076592421        1.0903057755
Mo            8.1544116772        9.9079036454        2.8295918140
S             6.4977505578        8.9417017236        4.3787731498
S             6.6166295091        9.0491923816        1.1432590940
Mo            3.4177692956        1.7442934241        2.7570236568
S             4.9765793843        0.8306252581        4.3682513881
S             5.0511963417        0.8478538106        1.2226887333
Mo            4.9809567188        4.5170792647        2.6390495586
S             3.4516097657        3.6532904032        4.3058361832
S             3.4352351016        3.5445674437        1.0656507344
Mo            3.4546599404        7.2114930266        2.6259434497
S             4.9849538595        6.3251511094        1.0372544893
Mo            5.0101492906        9.9000598347        2.7371808562
S             3.4685574118        8.9421135515        4.3243974894
S             3.4090446479        9.0654349014        1.1014164895
Mo            0.2915586544        1.7457198320        2.8375468548
S             1.8597008697        0.8029439958        4.4020758849
S             1.8548167774        0.8544213678        1.2077946860
Mo            1.8517933434        4.5020843990        2.6510166113
S             0.2717490149        3.6539047748        4.3346667243
S             0.2333380739        3.5262742132        1.1707517170
Mo            0.2689013145        7.2223836324        2.6986426450
S             1.9032653212        6.3134975839        4.2329391078
S             1.8566542661        6.3122716206        1.0499704177
Mo            1.8524799056        9.9381760863        2.7683474159
S             0.2975092713        9.0670593823        4.4085688080
S             0.2723786671        9.0468375848        1.1587096183
H             4.2010728102        2.4401718108        5.3347725870



     Writing config-only to output data dir ./MoS2-V-O.save/
     NEW-OLD atomic charge density approx. for the potential

     negative rho (up, down):  1.470E-04 0.000E+00

     total cpu time spent up to now is       86.2 secs

     Self-consistent Calculation

     iteration #  1     ecut=    80.00 Ry     beta= 0.70
     Davidson diagonalization with overlap
     c_bands:  1 eigenvalues not converged
     ethr =  1.00E-06,  avg # of iterations = 20.0

     negative rho (up, down):  1.018E-04 0.000E+00

     total cpu time spent up to now is       98.8 secs

     total energy              =   -2205.53004796 Ry
     estimated scf accuracy    <       0.00180971 Ry

     iteration #  2     ecut=    80.00 Ry     beta= 0.70
     Davidson diagonalization with overlap
     ethr =  5.89E-07,  avg # of iterations =  2.0

     negative rho (up, down):  9.425E-05 0.000E+00

     total cpu time spent up to now is      113.7 secs

     total energy              =   -2205.53007941 Ry
     estimated scf accuracy    <       0.00040917 Ry

     iteration #  3     ecut=    80.00 Ry     beta= 0.70
     Davidson diagonalization with overlap
     ethr =  1.33E-07,  avg # of iterations =  5.0

     negative rho (up, down):  9.293E-05 0.000E+00

     total cpu time spent up to now is      129.4 secs

     total energy              =   -2205.53010817 Ry
     estimated scf accuracy    <       0.00009251 Ry

     iteration #  4     ecut=    80.00 Ry     beta= 0.70
     Davidson diagonalization with overlap
     ethr =  3.01E-08,  avg # of iterations =  5.0

     negative rho (up, down):  8.950E-05 0.000E+00

     total cpu time spent up to now is      142.5 secs

     total energy              =   -2205.53012531 Ry
     estimated scf accuracy    <       0.00000837 Ry

     iteration #  5     ecut=    80.00 Ry     beta= 0.70
     Davidson diagonalization with overlap
     ethr =  2.73E-09,  avg # of iterations =  5.0

     negative rho (up, down):  8.289E-05 0.000E+00

     total cpu time spent up to now is      154.7 secs

     total energy              =   -2205.53012724 Ry
     estimated scf accuracy    <       0.00000286 Ry

     iteration #  6     ecut=    80.00 Ry     beta= 0.70
     Davidson diagonalization with overlap
     ethr =  9.31E-10,  avg # of iterations =  2.0

     negative rho (up, down):  8.095E-05 0.000E+00

     total cpu time spent up to now is      166.1 secs

     total energy              =   -2205.53012786 Ry
     estimated scf accuracy    <       0.00000135 Ry

     iteration #  7     ecut=    80.00 Ry     beta= 0.70
     Davidson diagonalization with overlap
     ethr =  4.40E-10,  avg # of iterations =  2.0

     negative rho (up, down):  1.377E-04 0.000E+00

     total cpu time spent up to now is      168.0 secs

     End of self-consistent calculation

          k = 0.0000 0.0000 0.0000 (105382 PWs)   bands (ev):

   -62.8876 -62.8837 -62.8715 -62.8640 -62.8332 -62.8283 -62.8229 -62.8023
   -62.8006 -62.7845 -62.7384 -62.7081 -37.2332 -37.1609 -37.1496 -37.1458
   -37.1337 -37.1094 -37.0849 -37.0824 -37.0728 -37.0688 -37.0562 -37.0474
   -37.0395 -37.0297 -37.0190 -37.0153 -37.0090 -37.0056 -37.0032 -36.9767
   -36.9716 -36.9633 -36.9436 -36.9308 -36.9175 -36.9122 -36.9080 -36.8968
   -36.8894 -36.8777 -36.8688 -36.8460 -36.8352 -36.8076 -36.7265 -36.7044
   -16.0184 -15.2977 -15.1495 -15.0219 -14.9355 -14.8491 -14.6497 -14.4711
   -14.4413 -14.4227 -14.4068 -14.3747 -14.3252 -14.3091 -14.1879 -14.1366
   -14.1193 -14.1070 -14.0566 -13.8796 -13.8580 -13.8280 -13.8055  -8.1353
    -7.5757  -7.4142  -7.2848  -7.2826  -7.2183  -7.1988  -7.1714  -7.0437
    -6.8285  -6.7658  -6.7408  -6.6960  -6.5691  -6.5152  -6.4554  -6.4144
    -6.3047  -6.2366  -6.0892  -5.9963  -5.9189  -5.8944  -5.8406  -5.7885
    -5.7748  -5.7298  -5.7042  -5.6659  -5.6242  -5.5629  -5.5421  -5.4811
    -5.4026  -5.3592  -5.1539  -5.1257  -5.0757  -5.0299  -4.9861  -4.9739
    -4.9315  -4.8442  -4.6806  -4.5261  -4.3603  -4.3240  -4.3044  -4.2450
    -4.2164  -4.0591  -4.0372  -3.8872  -3.8255  -3.8089  -3.7591  -3.6857
    -3.6397  -3.6231  -3.5412  -3.5098  -3.4788  -3.4695  -3.4402  -3.3884
    -3.3724  -3.2084  -3.1527  -2.9220  -2.8803  -2.7982  -2.7636  -2.7435
    -2.7142  -2.6737  -2.6687  -2.6226  -2.5707  -2.3036  -2.0229  -1.9960
    -1.9420  -1.1419  -0.7587  -0.6823  -0.1821  -0.1560  -0.0673  -0.0162
     0.0542   0.1226   0.1453   0.2250   0.2719   0.2861   0.3957   0.4552
     0.4636   0.5255   0.5616   0.5781   0.6167   0.6761   0.7260   0.7309
     0.7508   0.7916   0.8490   0.8812   0.9435   0.9861   1.0415   1.1586
     1.4305

     the Fermi energy is    -1.1419 ev

!    total energy              =   -2205.53012748 Ry
     estimated scf accuracy    <       0.00000066 Ry
     smearing contrib. (-TS)   =      -0.00564398 Ry
     internal energy E=F+TS    =   -2205.52448350 Ry

     The total energy is F=E-TS. E is the sum of the following terms:
     one-electron contribution =  -18044.83766168 Ry
     hartree contribution      =    9009.15102076 Ry
     xc contribution           =    -385.21654459 Ry
     ewald contribution        =    7215.37870202 Ry

     convergence has been achieved in   7 iterations

     negative rho (up, down):  1.377E-04 0.000E+00

     Forces acting on atoms (cartesian axes, Ry/au):

     atom    1 type  1   force =     0.00259114   -0.01242012    0.00203549
     atom    2 type  2   force =    -0.00855498    0.01080138   -0.00178204
     atom    3 type  2   force =    -0.00965593    0.00718114   -0.00981069
     atom    4 type  1   force =     0.00556120    0.00188689    0.00205985
     atom    5 type  2   force =     0.00125143   -0.00594295   -0.00896225
     atom    6 type  2   force =     0.00015103    0.00691536    0.00246895
     atom    7 type  1   force =     0.00291207   -0.00938871   -0.00028406
     atom    8 type  2   force =     0.00126217   -0.00361873    0.01210562
     atom    9 type  2   force =     0.01069530    0.00494175    0.00710002
     atom   10 type  1   force =    -0.00496648    0.00807151   -0.00895404
     atom   11 type  2   force =     0.00350632   -0.00197556   -0.01086516
     atom   12 type  2   force =    -0.00327985   -0.00059048    0.00097875
     atom   13 type  1   force =    -0.00026255   -0.00234549   -0.01362509
     atom   14 type  2   force =    -0.00081160    0.01663364    0.01891525
     atom   15 type  2   force =    -0.00772310    0.00092920   -0.00833006
     atom   16 type  1   force =     0.00211995    0.00403870    0.00962232
     atom   17 type  2   force =     0.03212873   -0.03171455    0.03923223
     atom   18 type  2   force =    -0.00420774   -0.00272692    0.01062135
     atom   19 type  1   force =    -0.00080030   -0.00699267   -0.00138413
     atom   20 type  2   force =     0.00296083   -0.00498637   -0.00259926
     atom   21 type  1   force =    -0.00393242    0.00171557    0.00026164
     atom   22 type  2   force =    -0.00168788   -0.00324979   -0.00401994
     atom   23 type  2   force =     0.00163332   -0.00088196    0.00378468
     atom   24 type  1   force =    -0.00496996   -0.00186397   -0.00838188
     atom   25 type  2   force =     0.01242875    0.01487856   -0.00161672
     atom   26 type  2   force =    -0.01129269   -0.00266606   -0.00903593
     atom   27 type  1   force =    -0.00387822    0.00503062   -0.00100119
     atom   28 type  2   force =     0.00036318   -0.00122305   -0.00781225
     atom   29 type  2   force =     0.00134334    0.00026047   -0.00625096
     atom   30 type  1   force =    -0.00231770    0.00303507    0.00364491
     atom   31 type  2   force =     0.00146473   -0.00024027    0.01206619
     atom   32 type  2   force =    -0.01021727    0.00483294    0.00462085
     atom   33 type  1   force =     0.00735407   -0.00091317    0.00148362
     atom   34 type  2   force =     0.00038888   -0.03121763   -0.01478296
     atom   35 type  2   force =    -0.00605574    0.00745090    0.00838316
     atom   36 type  3   force =    -0.00550204    0.02635475   -0.01988628
     The non-local contrib.  to forces
     atom    1 type  1   force =    -0.00180981    0.02411403   -0.01104997
     atom    2 type  2   force =    -0.00676102    0.00029347   -0.26961828
     atom    3 type  2   force =    -0.01145718   -0.00437602    0.26590094
     atom    4 type  1   force =     0.00129796    0.00817761    0.00748834
     atom    5 type  2   force =     0.00577668   -0.03472269   -0.25060346
     atom    6 type  2   force =    -0.00486599    0.00739799    0.26375587
     atom    7 type  1   force =    -0.01995668   -0.00124831   -0.02159887
     atom    8 type  2   force =     0.00347563   -0.00095595   -0.25641613
     atom    9 type  2   force =     0.00575674   -0.01081229    0.27455080
     atom   10 type  1   force =     0.00388001   -0.00064399   -0.00133801
     atom   11 type  2   force =     0.01213178    0.00363238   -0.26203475
     atom   12 type  2   force =    -0.01470550   -0.01819938    0.26065224
     atom   13 type  1   force =    -0.00111172    0.02152102   -0.00073555
     atom   14 type  2   force =    -0.01283210    0.05143845   -0.18449131
     atom   15 type  2   force =    -0.01112310   -0.00750480    0.26152246
     atom   16 type  1   force =    -0.01026897    0.02862307   -0.02979208
     atom   17 type  2   force =     0.10881829   -0.18070211   -0.08537775
     atom   18 type  2   force =    -0.00300675   -0.00266580    0.27584773
     atom   19 type  1   force =     0.01457814    0.00019238   -0.01470915
     atom   20 type  2   force =     0.00032780   -0.02022359    0.26341273
     atom   21 type  1   force =     0.00281729    0.02210179    0.00048123
     atom   22 type  2   force =    -0.00592216    0.00168798   -0.25871337
     atom   23 type  2   force =     0.00895406   -0.01562182    0.26476942
     atom   24 type  1   force =     0.00418423    0.01282070   -0.01126221
     atom   25 type  2   force =     0.00735299    0.00188874   -0.25843580
     atom   26 type  2   force =    -0.00296463   -0.01522487    0.26089655
     atom   27 type  1   force =     0.00010012    0.00474181    0.00272359
     atom   28 type  2   force =    -0.00900327   -0.02266464   -0.27206950
     atom   29 type  2   force =     0.00691521    0.00276972    0.26132503
     atom   30 type  1   force =     0.00117612    0.01711124    0.00896152
     atom   31 type  2   force =    -0.00996182    0.00870246   -0.25132052
     atom   32 type  2   force =    -0.00266330   -0.01172525    0.27206221
     atom   33 type  1   force =    -0.00426028    0.00527429    0.00268269
     atom   34 type  2   force =    -0.00231564   -0.02691210   -0.27786766
     atom   35 type  2   force =    -0.00081670   -0.00988358    0.26689757
     atom   36 type  3   force =    -0.00450647    0.00837348   -0.01322838
     The ionic contribution  to forces
     atom    1 type  1   force =     0.40897873    0.39566106    5.51763464
     atom    2 type  2   force =    -0.40071854    0.20981196   39.34911520
     atom    3 type  2   force =    -0.15321632    0.02269317  -36.21625494
     atom    4 type  1   force =     0.05197942    0.56205559    0.68863864
     atom    5 type  2   force =    -0.61197089    1.65776936   38.51963696
     atom    6 type  2   force =     0.32187888   -0.52240561  -37.96993478
     atom    7 type  1   force =    -2.60697560   -2.57457408    2.54934970
     atom    8 type  2   force =    -0.96031065    0.10573828   37.52330577
     atom    9 type  2   force =     0.32121372   -0.04054143  -37.98038800
     atom   10 type  1   force =    -0.83184697   -0.45163064    5.38868058
     atom   11 type  2   force =    -0.52075787   -1.63920742   39.08090681
     atom   12 type  2   force =     0.41285085    0.60347038  -37.83169020
     atom   13 type  1   force =     0.28618150    0.87789142    1.34304614
     atom   14 type  2   force =     0.23749114   -0.69341647   38.25529875
     atom   15 type  2   force =     0.26372278   -0.05699432  -36.90110673
     atom   16 type  1   force =    -0.09452288    4.09312966    0.48345677
     atom   17 type  2   force =     0.12943820    2.27048921   37.39812850
     atom   18 type  2   force =    -0.10155798   -0.50044198  -38.50647713
     atom   19 type  1   force =     2.67192050   -2.39289573    0.54965770
     atom   20 type  2   force =     0.21614161   -0.20944656  -38.52431116
     atom   21 type  1   force =     0.10036682   -0.09127234    1.08462778
     atom   22 type  2   force =     0.47536691   -1.78231435   38.43439825
     atom   23 type  2   force =    -0.09590417    0.58695064  -38.28401606
     atom   24 type  1   force =    -0.46900985    1.00333775    5.51061656
     atom   25 type  2   force =     0.31655030    0.06981804   39.15527529
     atom   26 type  2   force =    -0.36309428   -0.01746046  -37.40064954
     atom   27 type  1   force =     0.22762516    0.40798925   -2.43890696
     atom   28 type  2   force =     0.06908152    0.98450031   38.15810392
     atom   29 type  2   force =    -0.31925081   -0.40472681  -37.32445514
     atom   30 type  1   force =    -0.30005194   -0.90321159    0.02182061
     atom   31 type  2   force =     1.20859092   -0.03305540   37.40476257
     atom   32 type  2   force =    -0.44993617    0.04843082  -38.61908997
     atom   33 type  1   force =     0.48592813   -0.84950758    2.16939396
     atom   34 type  2   force =     0.16836425   -1.25827639   39.27240113
     atom   35 type  2   force =    -0.25552858    0.48171298  -37.72368866
     atom   36 type  3   force =     0.16098214    0.03992927    7.86271302
     The local contribution  to forces
     atom    1 type  1   force =    -0.40445344   -0.43222987   -5.50570979
     atom    2 type  2   force =     0.39863894   -0.19914839  -39.10251388
     atom    3 type  2   force =     0.15452876   -0.01130435   35.96107269
     atom    4 type  1   force =    -0.04771308   -0.56827064   -0.69514841
     atom    5 type  2   force =     0.60793884   -1.63084160  -38.29864911
     atom    6 type  2   force =    -0.31721459    0.52291330   37.72911326
     atom    7 type  1   force =     2.62986515    2.56648878   -2.52902568
     atom    8 type  2   force =     0.95820548   -0.10875080  -37.27565567
     atom    9 type  2   force =    -0.31619664    0.05574305   37.73364000
     atom   10 type  1   force =     0.82307677    0.46020210   -5.39744863
     atom   11 type  2   force =     0.51267803    1.63404612  -38.85083707
     atom   12 type  2   force =    -0.40259341   -0.58723222   37.59245986
     atom   13 type  1   force =    -0.28541172   -0.90196296   -1.35718789
     atom   14 type  2   force =    -0.22614981    0.66207075  -38.06860283
     atom   15 type  2   force =    -0.26107472    0.06488022   36.65151639
     atom   16 type  1   force =     0.10713466   -4.11750281   -0.44521674
     atom   17 type  2   force =    -0.19985430   -2.13182410  -37.28428905
     atom   18 type  2   force =     0.10021881    0.50072836   38.26205588
     atom   19 type  1   force =    -2.68738164    2.38582232   -0.53732211
     atom   20 type  2   force =    -0.21361325    0.22398141   38.27915119
     atom   21 type  1   force =    -0.10711324    0.07076919   -1.08598875
     atom   22 type  2   force =    -0.47132321    1.77777208  -38.20063251
     atom   23 type  2   force =     0.08921149   -0.57345073   38.04356971
     atom   24 type  1   force =     0.45983471   -1.01806740   -5.50888693
     atom   25 type  2   force =    -0.31135845   -0.05652900  -38.91932861
     atom   26 type  2   force =     0.35495198    0.02924055   37.15121075
     atom   27 type  1   force =    -0.23179156   -0.40750916    2.43395635
     atom   28 type  2   force =    -0.06028527   -0.96462933  -37.91508675
     atom   29 type  2   force =     0.31428141    0.40280833   37.07711236
     atom   30 type  1   force =     0.29660830    0.88923770   -0.02809850
     atom   31 type  2   force =    -1.19771911    0.02448608  -37.16207635
     atom   32 type  2   force =     0.44247349   -0.03256102   38.37240165
     atom   33 type  1   force =    -0.47440670    0.84313245   -2.17170343
     atom   34 type  2   force =    -0.16601825    1.25301632  -39.03099143
     atom   35 type  2   force =     0.25037358   -0.46535660   37.48584536
     atom   36 type  3   force =    -0.16197779   -0.02194663   -7.86944469
     The core correction contribution to forces
     atom    1 type  1   force =     0.00000000    0.00000000    0.00000000
     atom    2 type  2   force =     0.00023681   -0.00016352    0.02075768
     atom    3 type  2   force =     0.00048719    0.00012044   -0.02082305
     atom    4 type  1   force =     0.00000000    0.00000000    0.00000000
     atom    5 type  2   force =    -0.00047254    0.00191301    0.02020789
     atom    6 type  2   force =     0.00037571   -0.00095426   -0.02078640
     atom    7 type  1   force =     0.00000000    0.00000000    0.00000000
     atom    8 type  2   force =    -0.00005967    0.00039352    0.02045941
     atom    9 type  2   force =    -0.00004316    0.00060018   -0.02098783
     atom   10 type  1   force =     0.00000000    0.00000000    0.00000000
     atom   11 type  2   force =    -0.00051161   -0.00048414    0.02070800
     atom   12 type  2   force =     0.00121079    0.00140021   -0.02076562
     atom   13 type  1   force =     0.00000000    0.00000000    0.00000000
     atom   14 type  2   force =     0.00075366   -0.00351133    0.01629222
     atom   15 type  2   force =     0.00071417    0.00049229   -0.02062295
     atom   16 type  1   force =     0.00000000    0.00000000    0.00000000
     atom   17 type  2   force =    -0.00620988    0.01033161    0.01048037
     atom   18 type  2   force =     0.00010933   -0.00038138   -0.02116172
     atom   19 type  1   force =     0.00000000    0.00000000    0.00000000
     atom   20 type  2   force =     0.00009882    0.00072372   -0.02113821
     atom   21 type  1   force =     0.00000000    0.00000000    0.00000000
     atom   22 type  2   force =     0.00013278   -0.00045317    0.02050780
     atom   23 type  2   force =    -0.00064823    0.00122932   -0.02083392
     atom   24 type  1   force =     0.00000000    0.00000000    0.00000000
     atom   25 type  2   force =    -0.00012314   -0.00034801    0.02042798
     atom   26 type  2   force =    -0.00018465    0.00075299   -0.02081173
     atom   27 type  1   force =     0.00000000    0.00000000    0.00000000
     atom   28 type  2   force =     0.00052047    0.00162551    0.02081450
     atom   29 type  2   force =    -0.00060443   -0.00059252   -0.02053246
     atom   30 type  1   force =     0.00000000    0.00000000    0.00000000
     atom   31 type  2   force =     0.00051086   -0.00024900    0.02028940
     atom   32 type  2   force =    -0.00011748    0.00074207   -0.02102447
     atom   33 type  1   force =     0.00000000    0.00000000    0.00000000
     atom   34 type  2   force =     0.00039817    0.00077336    0.02127330
     atom   35 type  2   force =    -0.00011463    0.00095796   -0.02095853
     atom   36 type  3   force =     0.00000000    0.00000000    0.00000000
     The Hubbard contrib.    to forces
     atom    1 type  1   force =     0.00000000    0.00000000    0.00000000
     atom    2 type  2   force =     0.00000000    0.00000000    0.00000000
     atom    3 type  2   force =     0.00000000    0.00000000    0.00000000
     atom    4 type  1   force =     0.00000000    0.00000000    0.00000000
     atom    5 type  2   force =     0.00000000    0.00000000    0.00000000
     atom    6 type  2   force =     0.00000000    0.00000000    0.00000000
     atom    7 type  1   force =     0.00000000    0.00000000    0.00000000
     atom    8 type  2   force =     0.00000000    0.00000000    0.00000000
     atom    9 type  2   force =     0.00000000    0.00000000    0.00000000
     atom   10 type  1   force =     0.00000000    0.00000000    0.00000000
     atom   11 type  2   force =     0.00000000    0.00000000    0.00000000
     atom   12 type  2   force =     0.00000000    0.00000000    0.00000000
     atom   13 type  1   force =     0.00000000    0.00000000    0.00000000
     atom   14 type  2   force =     0.00000000    0.00000000    0.00000000
     atom   15 type  2   force =     0.00000000    0.00000000    0.00000000
     atom   16 type  1   force =     0.00000000    0.00000000    0.00000000
     atom   17 type  2   force =     0.00000000    0.00000000    0.00000000
     atom   18 type  2   force =     0.00000000    0.00000000    0.00000000
     atom   19 type  1   force =     0.00000000    0.00000000    0.00000000
     atom   20 type  2   force =     0.00000000    0.00000000    0.00000000
     atom   21 type  1   force =     0.00000000    0.00000000    0.00000000
     atom   22 type  2   force =     0.00000000    0.00000000    0.00000000
     atom   23 type  2   force =     0.00000000    0.00000000    0.00000000
     atom   24 type  1   force =     0.00000000    0.00000000    0.00000000
     atom   25 type  2   force =     0.00000000    0.00000000    0.00000000
     atom   26 type  2   force =     0.00000000    0.00000000    0.00000000
     atom   27 type  1   force =     0.00000000    0.00000000    0.00000000
     atom   28 type  2   force =     0.00000000    0.00000000    0.00000000
     atom   29 type  2   force =     0.00000000    0.00000000    0.00000000
     atom   30 type  1   force =     0.00000000    0.00000000    0.00000000
     atom   31 type  2   force =     0.00000000    0.00000000    0.00000000
     atom   32 type  2   force =     0.00000000    0.00000000    0.00000000
     atom   33 type  1   force =     0.00000000    0.00000000    0.00000000
     atom   34 type  2   force =     0.00000000    0.00000000    0.00000000
     atom   35 type  2   force =     0.00000000    0.00000000    0.00000000
     atom   36 type  3   force =     0.00000000    0.00000000    0.00000000
     The SCF correction term to forces
     atom    1 type  1   force =    -0.00012368    0.00003234    0.00113297
     atom    2 type  2   force =     0.00004949    0.00000554    0.00044960
     atom    3 type  2   force =     0.00000227    0.00004557    0.00026604
     atom    4 type  1   force =    -0.00000244   -0.00007800    0.00105364
     atom    5 type  2   force =    -0.00002000   -0.00006336    0.00041784
     atom    6 type  2   force =    -0.00002233   -0.00003839    0.00029336
     atom    7 type  1   force =    -0.00002014   -0.00005742    0.00096316
     atom    8 type  2   force =    -0.00004796   -0.00004610    0.00038461
     atom    9 type  2   force =    -0.00003470   -0.00005007    0.00025741
     atom   10 type  1   force =    -0.00007562    0.00014172    0.00112439
     atom   11 type  2   force =    -0.00003336    0.00003518    0.00036422
     atom   12 type  2   force =    -0.00004193   -0.00003180    0.00029485
     atom   13 type  1   force =     0.00008005    0.00020270    0.00122457
     atom   14 type  2   force =    -0.00007384    0.00004991    0.00039078
     atom   15 type  2   force =     0.00003843    0.00005350    0.00033315
     atom   16 type  1   force =    -0.00022221   -0.00021354    0.00114674
     atom   17 type  2   force =    -0.00006293   -0.00001148    0.00026252
     atom   18 type  2   force =     0.00002951    0.00003157    0.00032896
     atom   19 type  1   force =     0.00008336   -0.00011396    0.00096179
     atom   20 type  2   force =     0.00000649   -0.00002367    0.00025855
     atom   21 type  1   force =    -0.00000263    0.00011460    0.00111374
     atom   22 type  2   force =     0.00005846    0.00005535    0.00039225
     atom   23 type  2   force =     0.00002082    0.00000831    0.00026790
     atom   24 type  1   force =     0.00002160    0.00004265    0.00112307
     atom   25 type  2   force =     0.00000770    0.00004648    0.00041678
     atom   26 type  2   force =    -0.00000046    0.00002340    0.00029040
     atom   27 type  1   force =     0.00018871   -0.00019360    0.00119819
     atom   28 type  2   force =     0.00005039   -0.00005722    0.00039795
     atom   29 type  2   force =     0.00000262   -0.00000058    0.00027160
     atom   30 type  1   force =    -0.00004953   -0.00010460    0.00093365
     atom   31 type  2   force =     0.00004452   -0.00012673    0.00038345
     atom   32 type  2   force =     0.00002684   -0.00005600    0.00024381
     atom   33 type  1   force =     0.00009358    0.00018535    0.00108277
     atom   34 type  2   force =    -0.00003900    0.00017886    0.00037407
     atom   35 type  2   force =     0.00003125    0.00001783    0.00025978
     atom   36 type  3   force =     0.00000073   -0.00000369    0.00004613

     Total force =     0.101050     Total SCF correction =     0.004170
     Energy error            =      1.7E-02 Ry
     Gradient error          =      3.9E-02 Ry/Bohr

     number of scf cycles    =   2
     number of bfgs steps    =   1

     energy             old  =   -2205.5133290638 Ry
     energy             new  =   -2205.5301274766 Ry

     CASE: energy            _new < energy            _old

     new trust radius        =       0.0826985676 bohr
     new conv_thr            =       0.0000000392 Ry


ATOMIC_POSITIONS (angstrom)
Mo            6.5840101683        1.7636912542        2.8295251333
S             8.1625724599        0.8270587193        4.4338131313
S             8.1811901072        0.8212376655        1.2698220930
Mo            8.1034445728        4.4999941548        2.7185389616
S             6.4981712284        3.7143755003        4.3354537305
S             6.5540033061        3.5226171383        1.1222842307
Mo            6.4939254313        7.2037240504        2.6672742057
S             8.0830764525        6.3389321941        4.2603920686
S             8.0950192391        6.3111971198        1.0959244938
Mo            8.1500662190        9.9139003101        2.8211034883
S             6.5003791712        8.9402768906        4.3715240597
S             6.6144388227        9.0489733606        1.1446350634
Mo            3.4166699795        1.7423069072        2.7445119682
S             4.9764620526        0.8434444011        4.3833555291
S             5.0451750487        0.8487718730        1.2169727964
Mo            4.9824577157        4.5203330697        2.6460377940
S             3.4757204297        3.6307483484        4.3345705104
S             3.4321817591        3.5421197430        1.0734851063
Mo            3.4543987479        7.2063288195        2.6239991979
S             4.9870608800        6.3218748262        1.0357734909
Mo            5.0073921959        9.9006614515        2.7358115148
S             3.4670095248        8.9398618706        4.3218153052
S             3.4101256395        9.0650409322        1.1048787637
Mo            0.2876202362        1.7442207568        2.8298659972
S             1.8690386709        0.8139247010        4.4020984671
S             1.8469210562        0.8529010088        1.2022534912
Mo            1.8474112070        4.5065177396        2.6482049039
S             0.2718424993        3.6530872178        4.3295027569
S             0.2346178931        3.5261846247        1.1668805315
Mo            0.2670311114        7.2255137920        2.6999742047
S             1.9043507180        6.3135312446        4.2423769956
S             1.8494688468        6.3154962694        1.0539245489
Mo            1.8586560655        9.9371765012        2.7680702011
S             0.2981205734        9.0436704368        4.3988508002
S             0.2678554819        9.0518919450        1.1655150668
H             4.1974659447        2.4580040166        5.3213192692



     Writing config-only to output data dir ./MoS2-V-O.save/
     NEW-OLD atomic charge density approx. for the potential

     negative rho (up, down):  1.484E-04 0.000E+00

     total cpu time spent up to now is      171.4 secs

     Self-consistent Calculation

     iteration #  1     ecut=    80.00 Ry     beta= 0.70
     Davidson diagonalization with overlap
     ethr =  1.00E-06,  avg # of iterations = 10.0

     negative rho (up, down):  8.530E-05 0.000E+00

     total cpu time spent up to now is      183.9 secs

     total energy              =   -2205.54232882 Ry
     estimated scf accuracy    <       0.00107493 Ry

     iteration #  2     ecut=    80.00 Ry     beta= 0.70
     Davidson diagonalization with overlap
     ethr =  3.50E-07,  avg # of iterations =  2.0

     negative rho (up, down):  6.099E-05 0.000E+00

     total cpu time spent up to now is      201.0 secs

     total energy              =   -2205.54235413 Ry
     estimated scf accuracy    <       0.00023869 Ry

     iteration #  3     ecut=    80.00 Ry     beta= 0.70
     Davidson diagonalization with overlap
     ethr =  7.77E-08,  avg # of iterations =  4.0

     negative rho (up, down):  4.792E-05 0.000E+00

     total cpu time spent up to now is      220.9 secs

     total energy              =   -2205.54237149 Ry
     estimated scf accuracy    <       0.00005314 Ry

     iteration #  4     ecut=    80.00 Ry     beta= 0.70
     Davidson diagonalization with overlap
     ethr =  1.73E-08,  avg # of iterations =  5.0

     negative rho (up, down):  4.618E-05 0.000E+00

     total cpu time spent up to now is      232.5 secs

     total energy              =   -2205.54238147 Ry
     estimated scf accuracy    <       0.00000517 Ry

     iteration #  5     ecut=    80.00 Ry     beta= 0.70
     Davidson diagonalization with overlap
     ethr =  1.68E-09,  avg # of iterations =  9.0

     negative rho (up, down):  4.843E-05 0.000E+00

     total cpu time spent up to now is      244.0 secs

     total energy              =   -2205.54238294 Ry
     estimated scf accuracy    <       0.00000213 Ry

     iteration #  6     ecut=    80.00 Ry     beta= 0.70
     Davidson diagonalization with overlap
     ethr =  6.95E-10,  avg # of iterations =  3.0

     negative rho (up, down):  5.443E-05 0.000E+00

     total cpu time spent up to now is      257.8 secs

     total energy              =   -2205.54238316 Ry
     estimated scf accuracy    <       0.00000055 Ry

     iteration #  7     ecut=    80.00 Ry     beta= 0.70
     Davidson diagonalization with overlap
     ethr =  1.78E-10,  avg # of iterations =  5.0

     negative rho (up, down):  6.689E-05 0.000E+00

     total cpu time spent up to now is      269.5 secs

     total energy              =   -2205.54238314 Ry
     estimated scf accuracy    <       0.00000020 Ry

     iteration #  8     ecut=    80.00 Ry     beta= 0.70
     Davidson diagonalization with overlap
     ethr =  6.60E-11,  avg # of iterations =  2.0

     negative rho (up, down):  9.542E-05 0.000E+00

     total cpu time spent up to now is      282.5 secs

     total energy              =   -2205.54238303 Ry
     estimated scf accuracy    <       0.00000008 Ry

     iteration #  9     ecut=    80.00 Ry     beta= 0.70
     Davidson diagonalization with overlap
     ethr =  2.49E-11,  avg # of iterations =  4.0

     negative rho (up, down):  1.383E-04 0.000E+00

     total cpu time spent up to now is      284.5 secs

     End of self-consistent calculation

          k = 0.0000 0.0000 0.0000 (105382 PWs)   bands (ev):

   -62.8820 -62.8783 -62.8609 -62.8536 -62.8245 -62.8213 -62.8143 -62.7975
   -62.7950 -62.7705 -62.7233 -62.6989 -37.2240 -37.1520 -37.1398 -37.1359
   -37.1247 -37.1019 -37.0769 -37.0746 -37.0619 -37.0608 -37.0449 -37.0389
   -37.0253 -37.0207 -37.0109 -37.0051 -37.0005 -36.9967 -36.9945 -36.9734
   -36.9645 -36.9559 -36.9342 -36.9216 -36.9108 -36.9047 -36.8980 -36.8876
   -36.8749 -36.8670 -36.8600 -36.8351 -36.8250 -36.7997 -36.7165 -36.6923
   -16.0154 -15.3207 -15.1345 -15.0228 -14.9244 -14.8397 -14.6475 -14.4572
   -14.4320 -14.4172 -14.3962 -14.3621 -14.3159 -14.3046 -14.1802 -14.1282
   -14.1092 -14.1050 -14.0497 -13.8684 -13.8522 -13.8252 -13.7976  -8.2103
    -7.5664  -7.4058  -7.2758  -7.2690  -7.2086  -7.1884  -7.1628  -7.0616
    -6.8126  -6.7473  -6.7283  -6.6855  -6.5658  -6.5092  -6.4452  -6.4008
    -6.3056  -6.2250  -6.0900  -5.9833  -5.9192  -5.8732  -5.8329  -5.7766
    -5.7657  -5.7274  -5.6896  -5.6576  -5.6168  -5.5615  -5.5304  -5.4770
    -5.3731  -5.3428  -5.1402  -5.1139  -5.0677  -5.0166  -4.9764  -4.9574
    -4.9307  -4.8482  -4.6671  -4.5229  -4.3791  -4.3106  -4.2835  -4.2336
    -4.2202  -4.0593  -4.0353  -3.9006  -3.8074  -3.7936  -3.7547  -3.6750
    -3.6364  -3.6152  -3.5365  -3.5054  -3.4811  -3.4522  -3.4290  -3.3730
    -3.3615  -3.2086  -3.1597  -2.9124  -2.8741  -2.7802  -2.7481  -2.7268
    -2.7118  -2.6740  -2.6646  -2.6071  -2.5606  -2.2893  -2.0119  -1.9914
    -1.9446  -1.1386  -0.7468  -0.6597  -0.1775  -0.1586  -0.0495   0.0032
     0.0772   0.1341   0.1432   0.2238   0.2825   0.3039   0.4031   0.4550
     0.4730   0.5357   0.5727   0.5980   0.6313   0.6803   0.7297   0.7317
     0.7543   0.8220   0.8548   0.8922   0.9515   0.9958   1.0492   1.1759
     1.4306

     the Fermi energy is    -1.1386 ev

!    total energy              =   -2205.54238294 Ry
     estimated scf accuracy    <       0.00000002 Ry
     smearing contrib. (-TS)   =      -0.00564333 Ry
     internal energy E=F+TS    =   -2205.53673960 Ry

     The total energy is F=E-TS. E is the sum of the following terms:
     one-electron contribution =  -18042.69297493 Ry
     hartree contribution      =    9008.15550099 Ry
     xc contribution           =    -385.21981890 Ry
     ewald contribution        =    7214.22055324 Ry

     convergence has been achieved in   9 iterations

     negative rho (up, down):  1.383E-04 0.000E+00

     Forces acting on atoms (cartesian axes, Ry/au):

     atom    1 type  1   force =    -0.00395852   -0.00274112   -0.00305319
     atom    2 type  2   force =    -0.00417321    0.00584180   -0.00197954
     atom    3 type  2   force =    -0.00840459    0.00531653   -0.01142643
     atom    4 type  1   force =     0.00389982   -0.00057362    0.00196163
     atom    5 type  2   force =     0.00519339   -0.00467433   -0.00687418
     atom    6 type  2   force =    -0.00060656    0.00435747    0.00452746
     atom    7 type  1   force =     0.00208811   -0.00550370    0.00220651
     atom    8 type  2   force =     0.00100529   -0.00350020    0.00902175
     atom    9 type  2   force =     0.00856484    0.00384154    0.00403795
     atom   10 type  1   force =    -0.00134468    0.00570266   -0.00055077
     atom   11 type  2   force =     0.00242495   -0.00147063   -0.01032357
     atom   12 type  2   force =    -0.00379936   -0.00143643   -0.00073550
     atom   13 type  1   force =     0.00244037   -0.00147837   -0.00091481
     atom   14 type  2   force =    -0.00129706    0.00640019    0.00725905
     atom   15 type  2   force =    -0.00431895   -0.00078191   -0.00733697
     atom   16 type  1   force =     0.00163134    0.00104809    0.00742674
     atom   17 type  2   force =     0.02271305   -0.02735995    0.03298562
     atom   18 type  2   force =    -0.00304247    0.00079919    0.00874707
     atom   19 type  1   force =    -0.00190545   -0.00505420    0.00128065
     atom   20 type  2   force =     0.00226675   -0.00567630   -0.00246041
     atom   21 type  1   force =    -0.00301402    0.00462071    0.00538483
     atom   22 type  2   force =     0.00020895   -0.00327087   -0.00318542
     atom   23 type  2   force =     0.00171545   -0.00192337    0.00100384
     atom   24 type  1   force =    -0.00287511   -0.00040928   -0.00247834
     atom   25 type  2   force =     0.00764334    0.01029814   -0.00578516
     atom   26 type  2   force =    -0.00918548   -0.00381469   -0.00955039
     atom   27 type  1   force =     0.00284028    0.00078168    0.00550186
     atom   28 type  2   force =     0.00157835   -0.00146352   -0.00736659
     atom   29 type  2   force =     0.00069133    0.00191453   -0.00648757
     atom   30 type  1   force =    -0.00090744   -0.00213176    0.00653647
     atom   31 type  2   force =     0.00171339   -0.00191479    0.00766623
     atom   32 type  2   force =    -0.00876965    0.00444338    0.00225999
     atom   33 type  1   force =     0.00152969    0.00079431    0.00401022
     atom   34 type  2   force =    -0.00117744   -0.01948621   -0.01378340
     atom   35 type  2   force =    -0.00367208    0.00695462    0.00432164
     atom   36 type  3   force =    -0.00769663    0.03155040   -0.02184727
     The non-local contrib.  to forces
     atom    1 type  1   force =    -0.00079755    0.02169292   -0.01159301
     atom    2 type  2   force =    -0.00352728   -0.00284908   -0.26799777
     atom    3 type  2   force =    -0.00949850   -0.00623174    0.26363334
     atom    4 type  1   force =     0.00237003    0.00949711    0.00744376
     atom    5 type  2   force =     0.00800058   -0.03462838   -0.25113521
     atom    6 type  2   force =    -0.00487870    0.00523485    0.26622925
     atom    7 type  1   force =    -0.02025769   -0.00166738   -0.02250185
     atom    8 type  2   force =     0.00353040   -0.00086424   -0.25814856
     atom    9 type  2   force =     0.00368615   -0.01203615    0.27228395
     atom   10 type  1   force =     0.00307460   -0.00041933   -0.00133027
     atom   11 type  2   force =     0.01043763    0.00343335   -0.26211063
     atom   12 type  2   force =    -0.01473049   -0.01892365    0.26054945
     atom   13 type  1   force =    -0.00088621    0.02190501   -0.00053827
     atom   14 type  2   force =    -0.01020464    0.03891161   -0.19385281
     atom   15 type  2   force =    -0.00922704   -0.00904672    0.26176464
     atom   16 type  1   force =    -0.01133131    0.02941809   -0.03191852
     atom   17 type  2   force =     0.11955778   -0.19333315   -0.07942328
     atom   18 type  2   force =    -0.00238622   -0.00124613    0.27562569
     atom   19 type  1   force =     0.01514203    0.00084295   -0.01549178
     atom   20 type  2   force =    -0.00029051   -0.01919157    0.26288916
     atom   21 type  1   force =     0.00246315    0.02123589   -0.00088692
     atom   22 type  2   force =    -0.00450701    0.00143186   -0.25869970
     atom   23 type  2   force =     0.00900123   -0.01651477    0.26314499
     atom   24 type  1   force =     0.00281121    0.01317172   -0.01028767
     atom   25 type  2   force =     0.00429994   -0.00229393   -0.25968969
     atom   26 type  2   force =    -0.00140531   -0.01560460    0.26022344
     atom   27 type  1   force =    -0.00114390    0.00478462    0.00136938
     atom   28 type  2   force =    -0.00905059   -0.02212672   -0.27146490
     atom   29 type  2   force =     0.00633615    0.00279724    0.26212911
     atom   30 type  1   force =     0.00116237    0.01751092    0.00835123
     atom   31 type  2   force =    -0.01016439    0.00867087   -0.25326131
     atom   32 type  2   force =    -0.00108198   -0.01206016    0.27043708
     atom   33 type  1   force =    -0.00275657    0.00406419    0.00158368
     atom   34 type  2   force =    -0.00308029   -0.01754542   -0.27839410
     atom   35 type  2   force =     0.00045071   -0.01026399    0.26523266
     atom   36 type  3   force =    -0.00627902    0.01151684   -0.01545587
     The ionic contribution  to forces
     atom    1 type  1   force =     0.21245928    0.55777005    5.52892015
     atom    2 type  2   force =    -0.24917004    0.10861336   39.40537155
     atom    3 type  2   force =    -0.14174773    0.03395945  -36.34634890
     atom    4 type  1   force =    -0.01934289    0.47909446    0.73396695
     atom    5 type  2   force =    -0.55301237    1.64028247   38.41542882
     atom    6 type  2   force =     0.27563351   -0.54068593  -37.88694642
     atom    7 type  1   force =    -2.67464429   -2.42292775    2.53092611
     atom    8 type  2   force =    -0.97548274    0.12469824   37.64799623
     atom    9 type  2   force =     0.29222531   -0.05206764  -37.96475408
     atom   10 type  1   force =    -0.68660409   -0.48064713    5.20055143
     atom   11 type  2   force =    -0.51901335   -1.62097651   38.99178496
     atom   12 type  2   force =     0.37184593    0.54151883  -37.80116573
     atom   13 type  1   force =     0.25478361    0.96095505    0.76823657
     atom   14 type  2   force =     0.18238026   -0.77375339   38.35811020
     atom   15 type  2   force =     0.31502526   -0.03600739  -36.95903578
     atom   16 type  1   force =    -0.29004776    3.99742947    0.81215033
[...]
     atom   27 type  1   force =    -0.00277487    0.00346458   -0.00049587
     atom   28 type  2   force =    -0.01178770   -0.01488522   -0.26263719
     atom   29 type  2   force =     0.00178377   -0.00308335    0.26941334
     atom   30 type  1   force =     0.00152960    0.01877993    0.00555231
     atom   31 type  2   force =    -0.01289179    0.01646625   -0.25282222
     atom   32 type  2   force =     0.00480167   -0.01538792    0.26531765
     atom   33 type  1   force =    -0.00375754    0.00322098    0.00238467
     atom   34 type  2   force =    -0.00027284   -0.00781875   -0.27190628
     atom   35 type  2   force =     0.00051758   -0.01177888    0.26537042
     atom   36 type  3   force =    -0.02950581    0.02552541   -0.03921283
     The ionic contribution  to forces
     atom    1 type  1   force =     0.03583611    0.39746292    1.97517994
     atom    2 type  2   force =    -0.01580339   -0.02136152   38.69928348
     atom    3 type  2   force =     0.01781491   -0.06050185  -37.61097769
     atom    4 type  1   force =    -0.11015258    0.43512725    0.11805808
     atom    5 type  2   force =    -0.21118539    1.14689818   38.25417525
     atom    6 type  2   force =     0.00548472   -0.24579775  -37.85187040
     atom    7 type  1   force =    -2.93030791   -1.69137230    3.33697000
     atom    8 type  2   force =    -1.06348677    0.22783936   38.22775319
     atom    9 type  2   force =     0.11635148    0.05261612  -37.85742262
     atom   10 type  1   force =    -0.56606671   -0.48068316    2.50125493
     atom   11 type  2   force =    -0.41571013   -1.39080401   38.50449303
     atom   12 type  2   force =     0.16115021    0.21139619  -37.78249498
     atom   13 type  1   force =    -0.30766471    1.28138711    3.18787790
     atom   14 type  2   force =     0.18759384   -0.59287822   38.35518424
     atom   15 type  2   force =    -0.01980678   -0.06800305  -37.43226767
     atom   16 type  1   force =    -0.93084933    3.92371106    4.57611761
     atom   17 type  2   force =    -0.97909717    2.30293435   38.05994017
     atom   18 type  2   force =     0.07664978   -0.37012103  -37.23704878
     atom   19 type  1   force =     3.20480871   -1.87201431    1.57733736
     atom   20 type  2   force =     0.02851999   -0.13479297  -38.10781346
     atom   21 type  1   force =     0.03407119   -0.60203413    1.17498196
     atom   22 type  2   force =     0.51446940   -1.50435872   38.44217107
     atom   23 type  2   force =    -0.03743485    0.31872759  -37.99772693
     atom   24 type  1   force =     0.04231039    0.46721329    1.67061161
     atom   25 type  2   force =    -0.08225740   -0.04875842   38.76311468
     atom   26 type  2   force =     0.04976639    0.00500307  -37.52032380
     atom   27 type  1   force =     1.35044635   -0.57895097   -1.43149707
     atom   28 type  2   force =     0.25573655    0.47437888   37.75473018
     atom   29 type  2   force =    -0.09173845   -0.29146707  -38.03016680
     atom   30 type  1   force =    -0.27645295   -0.41787607    1.86236132
     atom   31 type  2   force =     1.19044164   -0.01053702   38.23645467
     atom   32 type  2   force =    -0.20624331    0.15424529  -38.49542240
     atom   33 type  1   force =     0.40924820   -0.41204351    2.59234601
     atom   34 type  2   force =    -0.01328516   -0.47539309   38.78343587
     atom   35 type  2   force =    -0.04453806    0.22060372  -37.56152371
     atom   36 type  3   force =     0.62138121   -0.34979522    8.26272375
     The local contribution  to forces
     atom    1 type  1   force =    -0.03325537   -0.41748305   -1.96991682
     atom    2 type  2   force =     0.01501131    0.02969413  -38.45645706
     atom    3 type  2   force =    -0.01452410    0.06822670   37.36460686
     atom    4 type  1   force =     0.10261848   -0.44181375   -0.12626371
     atom    5 type  2   force =     0.20859950   -1.12299777  -38.03243409
     atom    6 type  2   force =    -0.01009817    0.24933059   37.60796521
     atom    7 type  1   force =     2.95339589    1.68763575   -3.31383834
     atom    8 type  2   force =     1.05928727   -0.23049720  -37.98367029
     atom    9 type  2   force =    -0.11321404   -0.03641395   37.61006403
     atom   10 type  1   force =     0.56344525    0.47734409   -2.50485463
     atom   11 type  2   force =     0.41189951    1.39214352  -38.26848472
     atom   12 type  2   force =    -0.15315056   -0.19949042   37.54063134
     atom   13 type  1   force =     0.30718414   -1.30452503   -3.17859341
     atom   14 type  2   force =    -0.19016334    0.60072895  -38.12528949
     atom   15 type  2   force =     0.02009876    0.07944091   37.18851840
     atom   16 type  1   force =     0.94176036   -3.96184508   -4.54243538
     atom   17 type  2   force =     0.78689432   -2.11614881  -38.04918363
     atom   18 type  2   force =    -0.07625301    0.37511745   36.98812055
     atom   19 type  1   force =    -3.21964822    1.87014297   -1.56128798
     atom   20 type  2   force =    -0.02771319    0.14190848   37.86534165
     atom   21 type  1   force =    -0.03608907    0.57924034   -1.17812287
     atom   22 type  2   force =    -0.50935854    1.50144189  -38.20447550
     atom   23 type  2   force =     0.03305787   -0.30479286   37.75561379
     atom   24 type  1   force =    -0.04018985   -0.47981047   -1.67144989
     atom   25 type  2   force =     0.07561384    0.05603003  -38.52369755
     atom   26 type  2   force =    -0.05014163    0.00704070   37.27518433
     atom   27 type  1   force =    -1.34723670    0.57555324    1.43211727
     atom   28 type  2   force =    -0.24453239   -0.45955147  -37.51333445
     atom   29 type  2   force =     0.08931151    0.29491428   37.78205048
     atom   30 type  1   force =     0.27493944    0.39928944   -1.86790724
     atom   31 type  2   force =    -1.17866037   -0.00585863  -38.00424503
     atom   32 type  2   force =     0.20173823   -0.14028502   38.25028307
     atom   33 type  1   force =    -0.40536941    0.40870345   -2.59438661
     atom   34 type  2   force =     0.01328790    0.48282848  -38.53240649
     atom   35 type  2   force =     0.04364985   -0.20866350   37.31725187
     atom   36 type  3   force =    -0.59213209    0.32575784   -8.22411636
     The core correction contribution to forces
     atom    1 type  1   force =     0.00000000    0.00000000    0.00000000
     atom    2 type  2   force =     0.00002286    0.00032407    0.02066203
     atom    3 type  2   force =     0.00016680    0.00029881   -0.02094788
     atom    4 type  1   force =     0.00000000    0.00000000    0.00000000
     atom    5 type  2   force =     0.00014213    0.00103561    0.01966027
     atom    6 type  2   force =    -0.00027300   -0.00008894   -0.02076770
     atom    7 type  1   force =     0.00000000    0.00000000    0.00000000
     atom    8 type  2   force =    -0.00016187    0.00019000    0.02073450
     atom    9 type  2   force =     0.00034912    0.00095136   -0.02089684
     atom   10 type  1   force =     0.00000000    0.00000000    0.00000000
     atom   11 type  2   force =     0.00011784   -0.00017139    0.02046371
     atom   12 type  2   force =     0.00069083    0.00074653   -0.02073803
     atom   13 type  1   force =     0.00000000    0.00000000    0.00000000
     atom   14 type  2   force =     0.00007188   -0.00015052    0.01978154
     atom   15 type  2   force =    -0.00003372    0.00056864   -0.02080108
     atom   16 type  1   force =     0.00000000    0.00000000    0.00000000
     atom   17 type  2   force =    -0.01355876    0.01240774    0.00294621
     atom   18 type  2   force =     0.00033051   -0.00019095   -0.02109693
     atom   19 type  1   force =     0.00000000    0.00000000    0.00000000
     atom   20 type  2   force =     0.00000132    0.00011356   -0.02110530
     atom   21 type  1   force =     0.00000000    0.00000000    0.00000000
     atom   22 type  2   force =     0.00006020   -0.00060986    0.02051589
     atom   23 type  2   force =    -0.00046011    0.00101238   -0.02076597
     atom   24 type  1   force =     0.00000000    0.00000000    0.00000000
     atom   25 type  2   force =    -0.00048708    0.00015158    0.02047778
     atom   26 type  2   force =     0.00010105    0.00057749   -0.02094504
     atom   27 type  1   force =     0.00000000    0.00000000    0.00000000
     atom   28 type  2   force =     0.00072971    0.00097901    0.02066659
     atom   29 type  2   force =    -0.00020487   -0.00009754   -0.02086591
     atom   30 type  1   force =     0.00000000    0.00000000    0.00000000
     atom   31 type  2   force =     0.00060344   -0.00055617    0.02030496
     atom   32 type  2   force =    -0.00056895    0.00104208   -0.02096302
     atom   33 type  1   force =     0.00000000    0.00000000    0.00000000
     atom   34 type  2   force =     0.00004028    0.00024586    0.02112424
     atom   35 type  2   force =     0.00000435    0.00074308   -0.02086909
     atom   36 type  3   force =     0.00000000    0.00000000    0.00000000
     The Hubbard contrib.    to forces
     atom    1 type  1   force =     0.00000000    0.00000000    0.00000000
     atom    2 type  2   force =     0.00000000    0.00000000    0.00000000
     atom    3 type  2   force =     0.00000000    0.00000000    0.00000000
     atom    4 type  1   force =     0.00000000    0.00000000    0.00000000
     atom    5 type  2   force =     0.00000000    0.00000000    0.00000000
     atom    6 type  2   force =     0.00000000    0.00000000    0.00000000
     atom    7 type  1   force =     0.00000000    0.00000000    0.00000000
     atom    8 type  2   force =     0.00000000    0.00000000    0.00000000
     atom    9 type  2   force =     0.00000000    0.00000000    0.00000000
     atom   10 type  1   force =     0.00000000    0.00000000    0.00000000
     atom   11 type  2   force =     0.00000000    0.00000000    0.00000000
     atom   12 type  2   force =     0.00000000    0.00000000    0.00000000
     atom   13 type  1   force =     0.00000000    0.00000000    0.00000000
     atom   14 type  2   force =     0.00000000    0.00000000    0.00000000
     atom   15 type  2   force =     0.00000000    0.00000000    0.00000000
     atom   16 type  1   force =     0.00000000    0.00000000    0.00000000
     atom   17 type  2   force =     0.00000000    0.00000000    0.00000000
     atom   18 type  2   force =     0.00000000    0.00000000    0.00000000
     atom   19 type  1   force =     0.00000000    0.00000000    0.00000000
     atom   20 type  2   force =     0.00000000    0.00000000    0.00000000
     atom   21 type  1   force =     0.00000000    0.00000000    0.00000000
     atom   22 type  2   force =     0.00000000    0.00000000    0.00000000
     atom   23 type  2   force =     0.00000000    0.00000000    0.00000000
     atom   24 type  1   force =     0.00000000    0.00000000    0.00000000
     atom   25 type  2   force =     0.00000000    0.00000000    0.00000000
     atom   26 type  2   force =     0.00000000    0.00000000    0.00000000
     atom   27 type  1   force =     0.00000000    0.00000000    0.00000000
     atom   28 type  2   force =     0.00000000    0.00000000    0.00000000
     atom   29 type  2   force =     0.00000000    0.00000000    0.00000000
     atom   30 type  1   force =     0.00000000    0.00000000    0.00000000
     atom   31 type  2   force =     0.00000000    0.00000000    0.00000000
     atom   32 type  2   force =     0.00000000    0.00000000    0.00000000
     atom   33 type  1   force =     0.00000000    0.00000000    0.00000000
     atom   34 type  2   force =     0.00000000    0.00000000    0.00000000
     atom   35 type  2   force =     0.00000000    0.00000000    0.00000000
     atom   36 type  3   force =     0.00000000    0.00000000    0.00000000
     The SCF correction term to forces
     atom    1 type  1   force =     0.00003860   -0.00001350   -0.00000255
     atom    2 type  2   force =     0.00000521   -0.00000362   -0.00000765
     atom    3 type  2   force =     0.00000316   -0.00001458    0.00000060
     atom    4 type  1   force =     0.00000974    0.00001750    0.00004002
     atom    5 type  2   force =     0.00000901    0.00001135    0.00002761
     atom    6 type  2   force =     0.00001265   -0.00000888   -0.00000522
     atom    7 type  1   force =     0.00000125    0.00000806    0.00002940
     atom    8 type  2   force =    -0.00000149    0.00000710    0.00002354
     atom    9 type  2   force =     0.00000173    0.00001657    0.00000190
     atom   10 type  1   force =     0.00000970   -0.00001411   -0.00001389
     atom   11 type  2   force =     0.00000924   -0.00001784    0.00000581
     atom   12 type  2   force =     0.00001056    0.00000441   -0.00000224
     atom   13 type  1   force =    -0.00001699   -0.00002353   -0.00000390
     atom   14 type  2   force =     0.00000969   -0.00000380    0.00001068
     atom   15 type  2   force =     0.00000931   -0.00000806   -0.00001301
     atom   16 type  1   force =     0.00000511    0.00004717    0.00004616
     atom   17 type  2   force =    -0.00000797    0.00002125    0.00005616
     atom   18 type  2   force =    -0.00000923    0.00000416   -0.00000543
     atom   19 type  1   force =    -0.00000890    0.00000492    0.00003515
     atom   20 type  2   force =    -0.00000030    0.00002295    0.00000963
     atom   21 type  1   force =     0.00001952   -0.00004323   -0.00000508
     atom   22 type  2   force =    -0.00000396   -0.00002581    0.00000681
     atom   23 type  2   force =    -0.00000439   -0.00001008   -0.00000098
     atom   24 type  1   force =    -0.00001900   -0.00000939    0.00000395
     atom   25 type  2   force =    -0.00001522    0.00000263    0.00000769
     atom   26 type  2   force =    -0.00001372   -0.00000757   -0.00000349
     atom   27 type  1   force =    -0.00002105    0.00003980    0.00003685
     atom   28 type  2   force =     0.00000292    0.00000928    0.00001727
     atom   29 type  2   force =    -0.00000372   -0.00000653    0.00000365
     atom   30 type  1   force =     0.00000505    0.00001161    0.00002562
     atom   31 type  2   force =     0.00000581    0.00000237    0.00001719
     atom   32 type  2   force =     0.00000084    0.00001570    0.00000753
     atom   33 type  1   force =    -0.00002988   -0.00004402   -0.00000889
     atom   34 type  2   force =    -0.00000516   -0.00001119    0.00000431
     atom   35 type  2   force =    -0.00000637    0.00000279   -0.00000423
     atom   36 type  3   force =    -0.00000267    0.00000468    0.00000295

     Total force =     0.005604     Total SCF correction =     0.000180
     Energy error            =      7.3E-05 Ry
     Gradient error          =      1.5E-03 Ry/Bohr

     bfgs converged in  24 scf cycles and  23 bfgs steps
     (criteria: energy <  1.0E-04 Ry, force <  1.0E-02 Ry/Bohr)

     End of BFGS Geometry Optimization

     Final energy             =   -2205.5822550222 Ry

     File ./MoS2-V-O.bfgs deleted, as requested
Begin final coordinates

ATOMIC_POSITIONS (angstrom)
Mo            6.5643912157        1.7369524136        2.7584678280
S             8.1427172933        0.8387369009        4.3596905768
S             8.1398842850        0.8308456749        1.1642431789
Mo            8.1319216142        4.4778290156        2.7093306265
S             6.5664356947        3.6369903301        4.3173405160
S             6.5384213612        3.5518849017        1.1312993699
Mo            6.4990921396        7.1647689244        2.6848509985
S             8.0781778746        6.2894356250        4.3018293246
S             8.1122492842        6.3171071318        1.1149145775
Mo            8.1325195580        9.9265721835        2.7607008595
S             6.5213093135        8.9346648869        4.3264037032
S             6.5743115728        9.0109697014        1.1313112196
Mo            3.4255842835        1.7400256791        2.7819150830
S             5.0015574096        0.7879997390        4.3493758020
S             4.9821932668        0.8320264102        1.1766273676
Mo            5.0110313790        4.5163778233        2.7189671167
S             3.5525648601        3.6090034233        4.4796798647
S             3.4460916334        3.5587900663        1.1563249952
Mo            3.4281090223        7.1709458230        2.6515347449
S             4.9767805472        6.2745460424        1.0756413771
Mo            4.9867349748        9.8891935986        2.7329819381
S             3.4519045768        8.9212324715        4.3207117409
S             3.3948235804        9.0259127927        1.1168578098
Mo            0.2735132355        1.7375307885        2.7538852756
S             1.8449339725        0.8333551002        4.3685637374
S             1.8595590491        0.8411077691        1.1730200248
Mo            1.8458994652        4.5211989009        2.6583655698
S             0.2930368442        3.6081600919        4.2866179881
S             0.2662376170        3.5497687032        1.1150428321
Mo            0.2505622127        7.2097580039        2.7305275149
S             1.8880295475        6.2936586433        4.2990987567
S             1.8142437692        6.3255376404        1.0816765114
Mo            1.8466504389        9.9296446932        2.7619514397
S             0.2602000965        9.0184561879        4.3524176910
S             0.2591138059        9.0429495012        1.1645177325
H             4.3145646612        2.9556532720        5.4536541784
End final coordinates



     Writing all to output data dir ./MoS2-V-O.save/
 
     init_run     :      2.41s CPU      2.68s WALL (       1 calls)
     electrons    :   2040.16s CPU   2270.45s WALL (      24 calls)
     update_pot   :     32.07s CPU     33.76s WALL (      23 calls)
     forces       :     31.20s CPU     35.45s WALL (      24 calls)

     Called by init_run:
     wfcinit      :      0.38s CPU      0.43s WALL (       1 calls)
     potinit      :      1.35s CPU      1.47s WALL (       1 calls)
     hinit0       :      0.16s CPU      0.18s WALL (       1 calls)

     Called by electrons:
     c_bands      :    247.08s CPU    250.86s WALL (     204 calls)
     sum_band     :     58.28s CPU     71.65s WALL (     204 calls)
     v_of_rho     :     81.59s CPU     98.57s WALL (     213 calls)
     newd         :     27.91s CPU     40.06s WALL (     213 calls)
     mix_rho      :   1634.99s CPU   1818.46s WALL (     204 calls)

     Called by c_bands:
     init_us_2    :      4.32s CPU      4.68s WALL (     409 calls)
     init_us_2:cp :      4.32s CPU      4.68s WALL (     409 calls)
     regterg      :    231.87s CPU    235.25s WALL (     204 calls)

     Called by *egterg:
     rdiaghg      :     19.23s CPU     19.49s WALL (    1079 calls)
     h_psi        :    133.91s CPU    135.13s WALL (    1118 calls)
     s_psi        :     16.94s CPU     17.00s WALL (    1118 calls)
     g_psi        :      0.87s CPU      0.89s WALL (     913 calls)

     Called by h_psi:
     h_psi:calbec :     18.65s CPU     18.75s WALL (    1118 calls)
     vloc_psi     :     96.57s CPU     97.55s WALL (    1118 calls)
     add_vuspsi   :     16.73s CPU     16.86s WALL (    1118 calls)

     General routines
     calbec       :     26.64s CPU     26.77s WALL (    1418 calls)
     fft          :     53.00s CPU     63.08s WALL (   14399 calls)
     ffts         :    736.70s CPU    914.04s WALL (  401114 calls)
     fftw         :     82.60s CPU     83.30s WALL (  124544 calls)
     interpolate  :      1.57s CPU      1.86s WALL (     213 calls)
 
     Parallel routines
 
     PWSCF        :  35m10.08s CPU  39m 9.25s WALL

 
   This run was terminated on:  23:39:54   3Nov2023            

=------------------------------------------------------------------------------=
   JOB DONE.
=------------------------------------------------------------------------------=
