
     Program PWSCF v.7.2 starts on  4Nov2023 at  9:52:58 

     This program is part of the open-source Quantum ESPRESSO suite
     for quantum simulation of materials; please cite
         "P. Giannozzi et al., J. Phys.:Condens. Matter 21 395502 (2009);
         "P. Giannozzi et al., J. Phys.:Condens. Matter 29 465901 (2017);
         "P. Giannozzi et al., J. Chem. Phys. 152 154105 (2020);
          URL http://www.quantum-espresso.org", 
     in publications or presentations arising from this work. More details at
     http://www.quantum-espresso.org/quote

     Parallel version (MPI & OpenMP), running on      48 processor cores
     Number of MPI processes:                48
     Threads/MPI process:                     1

     MPI processes distributed on     1 nodes
     20162 MiB available memory on the printing compute node when the environment starts
 
     Waiting for input...
     Reading input from standard input
Warning: card &CELL ignored
Warning: card CELL_DYNAMICS = 'BFGS', ignored
Warning: card CELL_DOFREE = '2DXY' ignored
Warning: card / ignored

     Current dimensions of program PWSCF are:
     Max number of different atomic species (ntypx) = 10
     Max number of k-points (npk) =  40000
     Max angular momentum in pseudopotentials (lmaxx) =  4

     IMPORTANT: XC functional enforced from input :
     Exchange-correlation= RVV10
                           (   1   4  13   4  26   0   0)
     Any further DFT definition will be discarded
     Please, verify this is what you really want


     gamma-point specific algorithms are used
     signal trapping enabled: kill the code with -SIGUSR1 to stop cleanly the simulation 
 
     R & G space division:  proc/nbgrp/npool/nimage =      48
     Subspace diagonalization in iterative solution of the eigenvalue problem:
     one sub-group per band group will be used
     scalapack distributed-memory algorithm (size of sub-group:  2*  2 procs)

 
     Parallelization info
     --------------------
     sticks:   dense  smooth     PW     G-vecs:    dense   smooth      PW
     Min         243     194     47                49060    35090    4376
     Max         246     196     50                49086    35128    4410
     Sum       11735    9389   2349              2355467  1685513  210763
 
     Using Slab Decomposition
 


     bravais-lattice index     =            0
     lattice parameter (alat)  =      17.8707  a.u.
     unit-cell volume          =   17436.2743 (a.u.)^3
     number of atoms/cell      =           36
     number of atomic types    =            3
     number of electrons       =       307.00
     number of Kohn-Sham states=          185
     kinetic-energy cutoff     =      80.0000  Ry
     charge density cutoff     =     400.0000  Ry
     scf convergence threshold =      1.0E-06
     mixing beta               =       0.7000
     number of iterations used =            8  local-TF  mixing
     energy convergence thresh.=      1.0E-04
     force convergence thresh. =      1.0E-02
     Exchange-correlation= RVV10
                           (   1   4  13   4  26   0   0)
     nstep                     =          200


     celldm(1)=  17.870686  celldm(2)=   0.000000  celldm(3)=   0.000000
     celldm(4)=   0.000000  celldm(5)=   0.000000  celldm(6)=   0.000000

     crystal axes: (cart. coord. in units of alat)
               a(1) = (   1.000000   0.000000   0.000000 )  
               a(2) = (   0.000000   1.155671   0.000000 )  
               a(3) = (   0.000000   0.000000   2.643601 )  

     reciprocal axes: (cart. coord. in units 2 pi/alat)
               b(1) = (  1.000000  0.000000  0.000000 )  
               b(2) = (  0.000000  0.865298  0.000000 )  
               b(3) = (  0.000000  0.000000  0.378272 )  


     PseudoPot. # 1 for Mo read from file:
     ../pseudo/Mo_ONCV_PBE-1.0.oncvpsp.upf
     MD5 check sum: 1b5d28e075c9ccadda658a603575cd1f
     Pseudo is Norm-conserving, Zval = 14.0
     Generated using ONCVPSP code by D. R. Hamann
     Using radial grid of 1526 points,  6 beta functions with: 
                l(1) =   0
                l(2) =   0
                l(3) =   1
                l(4) =   1
                l(5) =   2
                l(6) =   2

     PseudoPot. # 2 for S  read from file:
     ../pseudo/s_pbe_v1.4.uspp.F.UPF
     MD5 check sum: 88d86576ff6df21479756cfb9bdac1df
     Pseudo is Ultrasoft + core correction, Zval =  6.0
     Generated by new atomic code, or converted to UPF format
     Using radial grid of  907 points,  6 beta functions with: 
                l(1) =   0
                l(2) =   0
                l(3) =   1
                l(4) =   1
                l(5) =   2
                l(6) =   2
     Q(r) pseudized with  8 coefficients,  rinner =    1.300   1.300   1.300
                                                       1.300   1.300

     PseudoPot. # 3 for H  read from file:
     ../pseudo/H_ONCV_PBE-1.0.oncvpsp.upf
     MD5 check sum: 1790becc920ee074925cf490c71280fe
     Pseudo is Norm-conserving, Zval =  1.0
     Generated using ONCVPSP code by D. R. Hamann
     Using radial grid of 1166 points,  2 beta functions with: 
                l(1) =   0
                l(2) =   0

     atomic species   valence    mass     pseudopotential
        Mo            14.00    95.94000     Mo( 1.00)
        S              6.00    32.06500     S ( 1.00)
        H              1.00     1.00794     H ( 1.00)

     No symmetry found



   Cartesian axes

     site n.     atom                  positions (alat units)
         1           Mo  tau(   1) = (   0.6952221   0.1890506   0.2985846  )
         2           S   tau(   2) = (   0.8646417   0.0856217   0.4689279  )
         3           S   tau(   3) = (   0.8663890   0.0857843   0.1351291  )
         4           Mo  tau(   4) = (   0.8560186   0.4753274   0.2873942  )
         5           S   tau(   5) = (   0.6873294   0.3936244   0.4596353  )
         6           S   tau(   6) = (   0.6929804   0.3713468   0.1185692  )
         7           Mo  tau(   7) = (   0.6862796   0.7633098   0.2825370  )
         8           S   tau(   8) = (   0.8545980   0.6708292   0.4486168  )
         9           S   tau(   9) = (   0.8545123   0.6666874   0.1146125  )
        10           Mo  tau(  10) = (   0.8629403   1.0471007   0.3006803  )
        11           S   tau(  11) = (   0.6868280   0.9456650   0.4634891  )
        12           S   tau(  12) = (   0.6998113   0.9568511   0.1205389  )
        13           Mo  tau(  13) = (   0.3618216   0.1847309   0.2935964  )
        14           S   tau(  14) = (   0.5260962   0.0863870   0.4600448  )
        15           S   tau(  15) = (   0.5348379   0.0894875   0.1297123  )
        16           Mo  tau(  16) = (   0.5265817   0.4772436   0.2784130  )
        17           S   tau(  17) = (   0.3624753   0.3882513   0.4525556  )
        18           S   tau(  18) = (   0.3635411   0.3752055   0.1119148  )
        19           Mo  tau(  19) = (   0.3652268   0.7630864   0.2781795  )
        20           S   tau(  20) = (   0.5269494   0.6690381   0.1096838  )
        21           Mo  tau(  21) = (   0.5300192   1.0470394   0.2900995  )
        22           S   tau(  22) = (   0.3670346   0.9457522   0.4574073  )
        23           S   tau(  23) = (   0.3604225   0.9585725   0.1159032  )
        24           Mo  tau(  24) = (   0.0313099   0.1847895   0.3013130  )
        25           S   tau(  25) = (   0.1956761   0.0838230   0.4650863  )
        26           S   tau(  26) = (   0.1967693   0.0903508   0.1278874  )
        27           Mo  tau(  27) = (   0.1967578   0.4753919   0.2813011  )
        28           S   tau(  28) = (   0.0287851   0.3864324   0.4586755  )
        29           S   tau(  29) = (   0.0244514   0.3729871   0.1239344  )
        30           Mo  tau(  30) = (   0.0286728   0.7631204   0.2856894  )
        31           S   tau(  31) = (   0.2011512   0.6675435   0.4465001  )
        32           S   tau(  32) = (   0.1969214   0.6672839   0.1104564  )
        33           Mo  tau(  33) = (   0.1950294   1.0511147   0.2932237  )
        34           S   tau(  34) = (   0.0312912   0.9612169   0.4667423  )
        35           S   tau(  35) = (   0.0292670   0.9563028   0.1216485  )
        36           H   tau(  36) = (   0.6666667   1.0272628   0.5656742  )

     number of k points=     1  Gaussian smearing, width (Ry)=  0.0100
                       cart. coord. in units 2pi/alat
        k(    1) = (   0.0000000   0.0000000   0.0000000), wk =   2.0000000

     Dense  grid:  1177734 G-vectors     FFT dimensions: ( 120, 135, 320)

     Smooth grid:   842757 G-vectors     FFT dimensions: ( 108, 120, 270)

     Estimated max dynamical RAM per process >     146.59 MB

     Estimated total dynamical RAM >       6.87 GB

     Initial potential from superposition of free atoms

     starting charge     306.9873, renormalised to     307.0000

     negative rho (up, down):  1.410E-04 0.000E+00


---------------------------------------------------------------------------------
Carrying out rVV10 run using the following parameters:
Nqs =      20    Nr_points =    1024   r_max =   100.000
b_value =  6.30000    beta =  0.00901
     q_mesh =  0.00010000  0.00030000  0.00058939  0.00100810
               0.00161396  0.00249058  0.00375900  0.00559430
               0.00824984  0.01209221  0.01765183  0.02569619
               0.03733578  0.05417739  0.07854596  0.11380545
               0.16482331  0.23864234  0.34545298  0.50000000

Gradients computed in Reciprocal space

---------------------------------------------------------------------------------


     Starting wfcs are  213 randomized atomic wfcs

     total cpu time spent up to now is        3.5 secs

     Self-consistent Calculation

     iteration #  1     ecut=    80.00 Ry     beta= 0.70
     Davidson diagonalization with overlap
     ethr =  1.00E-02,  avg # of iterations =  2.0

     Threshold (ethr) on eigenvalues was too large:
     Diagonalizing with lowered threshold

     Davidson diagonalization with overlap
     ethr =  3.72E-04,  avg # of iterations =  4.0

     negative rho (up, down):  2.424E-08 0.000E+00

     total cpu time spent up to now is       28.3 secs

     total energy              =   -2205.63220723 Ry
     estimated scf accuracy    <       1.42167078 Ry

     iteration #  2     ecut=    80.00 Ry     beta= 0.70
     Davidson diagonalization with overlap
     ethr =  4.63E-04,  avg # of iterations =  1.0

     total cpu time spent up to now is       30.7 secs

     total energy              =   -2205.44368035 Ry
     estimated scf accuracy    <       0.60058664 Ry

     iteration #  3     ecut=    80.00 Ry     beta= 0.70
     Davidson diagonalization with overlap
     ethr =  1.96E-04,  avg # of iterations =  2.0

     total cpu time spent up to now is       33.1 secs

     total energy              =   -2205.55039873 Ry
     estimated scf accuracy    <       0.06494199 Ry

     iteration #  4     ecut=    80.00 Ry     beta= 0.70
     Davidson diagonalization with overlap
     c_bands:  1 eigenvalues not converged
     ethr =  2.12E-05,  avg # of iterations = 20.0

     total cpu time spent up to now is       36.4 secs

     total energy              =   -2205.55203332 Ry
     estimated scf accuracy    <       0.02985601 Ry

     iteration #  5     ecut=    80.00 Ry     beta= 0.70
     Davidson diagonalization with overlap
     ethr =  9.73E-06,  avg # of iterations =  2.0

     total cpu time spent up to now is       38.8 secs

     total energy              =   -2205.55178742 Ry
     estimated scf accuracy    <       0.02018317 Ry

     iteration #  6     ecut=    80.00 Ry     beta= 0.70
     Davidson diagonalization with overlap
     ethr =  6.57E-06,  avg # of iterations =  2.0

     total cpu time spent up to now is       41.2 secs

     total energy              =   -2205.55074350 Ry
     estimated scf accuracy    <       0.01292332 Ry

     iteration #  7     ecut=    80.00 Ry     beta= 0.70
     Davidson diagonalization with overlap
     ethr =  4.21E-06,  avg # of iterations = 17.0

     negative rho (up, down):  1.946E-04 0.000E+00

     total cpu time spent up to now is       47.0 secs

     total energy              =   -2205.54872647 Ry
     estimated scf accuracy    <       0.00768263 Ry

     iteration #  8     ecut=    80.00 Ry     beta= 0.70
     Davidson diagonalization with overlap
     ethr =  2.50E-06,  avg # of iterations =  2.0

     negative rho (up, down):  1.312E-02 0.000E+00

     total cpu time spent up to now is       51.3 secs

     total energy              =   -2205.54859493 Ry
     estimated scf accuracy    <       0.00382834 Ry

     iteration #  9     ecut=    80.00 Ry     beta= 0.70
     Davidson diagonalization with overlap
     ethr =  1.25E-06,  avg # of iterations =  2.0

     negative rho (up, down):  3.191E-02 0.000E+00

     total cpu time spent up to now is       55.9 secs

     total energy              =   -2205.54836193 Ry
     estimated scf accuracy    <       0.00234379 Ry

     iteration # 10     ecut=    80.00 Ry     beta= 0.70
     Davidson diagonalization with overlap
     ethr =  7.63E-07,  avg # of iterations =  2.0

     negative rho (up, down):  2.874E-02 0.000E+00

     total cpu time spent up to now is       60.8 secs

     total energy              =   -2205.54846056 Ry
     estimated scf accuracy    <       0.00083637 Ry

     iteration # 11     ecut=    80.00 Ry     beta= 0.70
     Davidson diagonalization with overlap
     ethr =  2.72E-07,  avg # of iterations =  2.0

     negative rho (up, down):  1.077E-02 0.000E+00

     total cpu time spent up to now is       66.9 secs

     total energy              =   -2205.54841278 Ry
     estimated scf accuracy    <       0.00034554 Ry

     iteration # 12     ecut=    80.00 Ry     beta= 0.70
     Davidson diagonalization with overlap
     ethr =  1.13E-07,  avg # of iterations =  6.0

     negative rho (up, down):  2.401E-03 0.000E+00

     total cpu time spent up to now is       73.9 secs

     total energy              =   -2205.54850821 Ry
     estimated scf accuracy    <       0.00002623 Ry

     iteration # 13     ecut=    80.00 Ry     beta= 0.70
     Davidson diagonalization with overlap
     ethr =  8.54E-09,  avg # of iterations =  6.0

     negative rho (up, down):  1.555E-03 0.000E+00

     total cpu time spent up to now is       83.8 secs

     total energy              =   -2205.54852140 Ry
     estimated scf accuracy    <       0.00001187 Ry

     iteration # 14     ecut=    80.00 Ry     beta= 0.70
     Davidson diagonalization with overlap
     ethr =  3.87E-09,  avg # of iterations =  2.0

     negative rho (up, down):  4.384E-04 0.000E+00

     total cpu time spent up to now is       93.6 secs

     total energy              =   -2205.54852248 Ry
     estimated scf accuracy    <       0.00000344 Ry

     iteration # 15     ecut=    80.00 Ry     beta= 0.70
     Davidson diagonalization with overlap
     ethr =  1.12E-09,  avg # of iterations =  3.0

     negative rho (up, down):  3.707E-04 0.000E+00

     total cpu time spent up to now is      129.2 secs

     total energy              =   -2205.54852355 Ry
     estimated scf accuracy    <       0.00000164 Ry

     iteration # 16     ecut=    80.00 Ry     beta= 0.70
     Davidson diagonalization with overlap
     ethr =  5.36E-10,  avg # of iterations =  2.0

     negative rho (up, down):  1.371E-04 0.000E+00

     total cpu time spent up to now is      131.4 secs

     End of self-consistent calculation

          k = 0.0000 0.0000 0.0000 (105382 PWs)   bands (ev):

   -62.8384 -62.8246 -62.8033 -62.7923 -62.7645 -62.7577 -62.7505 -62.7419
   -62.7394 -62.6981 -62.6255 -62.4979 -37.1532 -37.1111 -37.0967 -37.0770
   -37.0674 -37.0535 -37.0402 -37.0176 -37.0040 -36.9953 -36.9901 -36.9775
   -36.9635 -36.9579 -36.9478 -36.9465 -36.9394 -36.9353 -36.9211 -36.9136
   -36.9005 -36.8916 -36.8731 -36.8563 -36.8531 -36.8434 -36.8392 -36.8275
   -36.7994 -36.7909 -36.7565 -36.7504 -36.6831 -36.6483 -36.5863 -36.5265
   -16.6469 -15.7631 -15.0644 -15.0361 -14.8626 -14.8393 -14.6349 -14.4085
   -14.3984 -14.3738 -14.3203 -14.2997 -14.2759 -14.2095 -14.1284 -14.0512
   -14.0456 -14.0296 -13.9545 -13.8309 -13.7939 -13.7598 -13.7286  -9.4065
    -7.6192  -7.3762  -7.2898  -7.2218  -7.2046  -7.1618  -7.0823  -6.9935
    -6.7883  -6.7279  -6.7058  -6.6563  -6.5327  -6.4564  -6.4454  -6.4172
    -6.3424  -6.2345  -6.1875  -5.9055  -5.8763  -5.8441  -5.7630  -5.7305
    -5.7003  -5.6656  -5.6247  -5.5745  -5.5482  -5.5059  -5.4534  -5.4217
    -5.3775  -5.3182  -5.1720  -5.0882  -5.0424  -4.9723  -4.9222  -4.8585
    -4.8375  -4.7670  -4.6744  -4.5243  -4.4756  -4.2709  -4.2317  -4.1465
    -4.1021  -4.0195  -3.9663  -3.8825  -3.7560  -3.7372  -3.6664  -3.6199
    -3.5893  -3.5066  -3.4947  -3.4575  -3.4132  -3.3906  -3.3624  -3.3252
    -3.2932  -3.1487  -3.1145  -2.9178  -2.8630  -2.7758  -2.7272  -2.6557
    -2.6434  -2.6006  -2.5830  -2.5645  -2.4766  -2.1905  -1.9734  -1.9193
    -1.8670  -0.8504  -0.6595  -0.3106  -0.1031  -0.0806   0.0027   0.0313
     0.1275   0.1610   0.2192   0.2442   0.2892   0.3691   0.4412   0.5274
     0.5592   0.5972   0.6226   0.6410   0.6938   0.7404   0.7551   0.7995
     0.8330   0.8533   0.9093   0.9271   1.0111   1.0506   1.1109   1.4024
     1.4159

     the Fermi energy is    -0.8554 ev

!    total energy              =   -2205.54852394 Ry
     estimated scf accuracy    <       0.00000042 Ry
     smearing contrib. (-TS)   =      -0.00634309 Ry
     internal energy E=F+TS    =   -2205.54218085 Ry

     The total energy is F=E-TS. E is the sum of the following terms:
     one-electron contribution =  -18049.87996637 Ry
     hartree contribution      =    9012.30908886 Ry
     xc contribution           =    -385.43741813 Ry
     ewald contribution        =    7217.46611479 Ry

     convergence has been achieved in  16 iterations

     negative rho (up, down):  1.371E-04 0.000E+00

     Forces acting on atoms (cartesian axes, Ry/au):

     atom    1 type  1   force =     0.01237260   -0.02706429    0.00348962
     atom    2 type  2   force =    -0.01408069    0.01783814    0.00176793
     atom    3 type  2   force =    -0.01231733    0.00823320   -0.00374916
     atom    4 type  1   force =     0.01145696   -0.00945201    0.00030312
     atom    5 type  2   force =    -0.00169544   -0.00509847   -0.00697512
     atom    6 type  2   force =     0.00486579    0.01208823    0.00257495
     atom    7 type  1   force =    -0.01238423   -0.01639038   -0.02432684
     atom    8 type  2   force =     0.00737559   -0.01055850    0.01316673
     atom    9 type  2   force =     0.00860878    0.00440387    0.01101315
     atom   10 type  1   force =    -0.01155388    0.01527176   -0.02320470
     atom   11 type  2   force =     0.03204219   -0.05513870   -0.10704251
     atom   12 type  2   force =    -0.00057395    0.00017961    0.00685577
     atom   13 type  1   force =     0.00391477    0.00442571   -0.00579643
     atom   14 type  2   force =     0.00642532    0.00196049    0.01139166
     atom   15 type  2   force =    -0.01158105    0.00111389   -0.01157751
     atom   16 type  1   force =    -0.00977512   -0.00137009   -0.00288745
     atom   17 type  2   force =     0.00518702    0.00213446    0.00334433
     atom   18 type  2   force =    -0.00269996   -0.00583521    0.01516487
     atom   19 type  1   force =     0.01790968   -0.01373136   -0.00846435
     atom   20 type  2   force =     0.00729193   -0.00475377    0.00559400
     atom   21 type  1   force =    -0.00336893    0.01371873   -0.01143499
     atom   22 type  2   force =    -0.00548783   -0.00123900    0.00052691
     atom   23 type  2   force =    -0.00185677    0.00177656    0.00694750
     atom   24 type  1   force =    -0.00779861   -0.00097727   -0.02051391
     atom   25 type  2   force =     0.01583406    0.01974370    0.00758189
     atom   26 type  2   force =    -0.01142851   -0.00005969   -0.00457790
     atom   27 type  1   force =    -0.00486838   -0.00518247    0.00867304
     atom   28 type  2   force =     0.00128797   -0.00023549   -0.00591431
     atom   29 type  2   force =     0.00226758    0.00109243   -0.00369290
     atom   30 type  1   force =    -0.00543504    0.01513437   -0.00422800
     atom   31 type  2   force =     0.00070898   -0.00147933    0.01628487
     atom   32 type  2   force =    -0.00968700    0.00534000    0.00746641
     atom   33 type  1   force =     0.01287637   -0.00576081   -0.00592011
     atom   34 type  2   force =     0.00725450   -0.04355133   -0.01115608
     atom   35 type  2   force =    -0.00712624    0.00542639    0.01456499
     atom   36 type  3   force =    -0.02396113    0.07799664    0.12475055
     The non-local contrib.  to forces
     atom    1 type  1   force =    -0.00099829    0.03969116   -0.01342630
     atom    2 type  2   force =    -0.01450531   -0.00147458   -0.26237452
     atom    3 type  2   force =    -0.01530294   -0.00786925    0.27256076
     atom    4 type  1   force =    -0.00375101    0.00771206    0.00201420
     atom    5 type  2   force =     0.00676300   -0.03285880   -0.25202228
     atom    6 type  2   force =    -0.00133051    0.00926709    0.26258584
     atom    7 type  1   force =    -0.03328232    0.00554034   -0.01497083
     atom    8 type  2   force =     0.01456078   -0.01454156   -0.24736529
     atom    9 type  2   force =     0.00286117   -0.00842338    0.28033553
     atom   10 type  1   force =     0.01003598    0.00120013   -0.00354204
     atom   11 type  2   force =    -0.03404629    0.13558013    0.01139829
     atom   12 type  2   force =    -0.01158959   -0.01339465    0.26709965
     atom   13 type  1   force =    -0.00221839    0.02678065   -0.00616571
     atom   14 type  2   force =     0.01310310   -0.00782795   -0.24596006
     atom   15 type  2   force =    -0.01389262   -0.00792463    0.26222207
     atom   16 type  1   force =     0.00788947    0.04212892   -0.01490878
     atom   17 type  2   force =     0.00290858   -0.03040954   -0.25238922
     atom   18 type  2   force =    -0.00414016   -0.00530783    0.27217743
     atom   19 type  1   force =     0.01998055   -0.01084247   -0.01516451
     atom   20 type  2   force =     0.00481241   -0.01684777    0.26742464
     atom   21 type  1   force =    -0.00256359    0.01303341    0.00108330
     atom   22 type  2   force =    -0.00693921    0.00675174   -0.25182873
     atom   23 type  2   force =     0.00791354   -0.01035805    0.26984808
     atom   24 type  1   force =     0.00751092    0.02095475   -0.01142725
     atom   25 type  2   force =     0.00935673    0.00480743   -0.25855594
     atom   26 type  2   force =    -0.00323830   -0.01434177    0.26518573
     atom   27 type  1   force =     0.00106079    0.01410753    0.00893325
     atom   28 type  2   force =    -0.00446559   -0.02638001   -0.27175335
     atom   29 type  2   force =     0.00589587    0.00266716    0.26170209
     atom   30 type  1   force =     0.00537581    0.00913970    0.01196851
     atom   31 type  2   force =    -0.00948744    0.00027409   -0.25358787
     atom   32 type  2   force =    -0.00475378   -0.01075903    0.27161210
     atom   33 type  1   force =    -0.00417144    0.00927486    0.00694349
     atom   34 type  2   force =    -0.00318798   -0.03748523   -0.26897726
     atom   35 type  2   force =    -0.00263938   -0.00917367    0.27160597
     atom   36 type  3   force =     0.01240138   -0.05240358   -0.06276908
     The ionic contribution  to forces
     atom    1 type  1   force =     0.41537587    0.53493440    5.48994152
     atom    2 type  2   force =    -0.43822567    0.66236308   39.18248385
     atom    3 type  2   force =    -0.13132582    0.05792100  -36.13683344
     atom    4 type  1   force =     0.13761059    0.55989263    0.65687484
     atom    5 type  2   force =    -0.96236507    1.53934431   38.74152697
     atom    6 type  2   force =     0.34751821   -0.48426636  -38.03072107
     atom    7 type  1   force =    -2.59139005   -3.11067543    2.26671266
     atom    8 type  2   force =    -0.91146776   -0.11174641   37.35711895
     atom    9 type  2   force =     0.35844773   -0.06858197  -38.02028933
     atom   10 type  1   force =    -0.69355003   -0.26924011    5.14408903
     atom   11 type  2   force =    -0.23909216   -2.92027801   37.51201448
     atom   12 type  2   force =     0.45239877    0.67003675  -37.96554825
     atom   13 type  1   force =     0.37126450    1.13421817    2.78218257
     atom   14 type  2   force =    -0.16570472    0.34832271   38.36135434
     atom   15 type  2   force =     0.13256882   -0.01659450  -36.86685701
     atom   16 type  1   force =    -0.05975045    3.92437896    0.46329900
     atom   17 type  2   force =     0.78223111    1.52530769   37.93549943
     atom   18 type  2   force =    -0.17156287   -0.63546320  -38.55925465
     atom   19 type  1   force =     2.59023404   -2.59447107    0.55073847
     atom   20 type  2   force =     0.21531536   -0.23181636  -38.49894678
     atom   21 type  1   force =    -0.32131847    0.10802486    0.47068148
     atom   22 type  2   force =     0.20069198   -1.79698479   38.34242206
     atom   23 type  2   force =    -0.12089818    0.65402882  -38.33372146
     atom   24 type  1   force =    -0.46618015    1.26392418    5.79354574
     atom   25 type  2   force =     0.63610059    0.34508386   39.25815455
     atom   26 type  2   force =    -0.29393278    0.08764309  -37.34401663
     atom   27 type  1   force =     0.01582303    0.39438524   -2.23510360
     atom   28 type  2   force =     0.07451922    1.02869430   38.21196225
     atom   29 type  2   force =    -0.25647656   -0.41757584  -37.25740489
     atom   30 type  1   force =    -0.24218015   -1.02573615   -0.10338696
     atom   31 type  2   force =     1.21413641   -0.10822530   37.32606543
     atom   32 type  2   force =    -0.48390786   -0.02541961  -38.63221080
     atom   33 type  1   force =     0.75353820   -0.83761909    1.97322615
     atom   34 type  2   force =     0.40176177   -1.48352846   39.30977443
     atom   35 type  2   force =    -0.27308821    0.46721591  -37.84789417
     atom   36 type  3   force =    -0.27711923    0.83250269    8.70252085
     The local contribution  to forces
     atom    1 type  1   force =    -0.40196536   -0.60170177   -5.47221259
     atom    2 type  2   force =     0.43800826   -0.64336091  -38.93813348
     atom    3 type  2   force =     0.13363393   -0.04217746   35.88176899
     atom    4 type  1   force =    -0.12233709   -0.57706139   -0.65780281
     atom    5 type  2   force =     0.95458102   -1.51347339  -38.51628932
     atom    6 type  2   force =    -0.34145454    0.48801964   37.79172182
     atom    7 type  1   force =     2.61222872    3.08871230   -2.27520114
     atom    8 type  2   force =     0.90475956    0.11497672  -37.11619769
     atom    9 type  2   force =    -0.35272112    0.08089401   37.77231712
     atom   10 type  1   force =     0.67194844    0.28330318   -5.16295618
     atom   11 type  2   force =     0.30272519    2.73971960  -37.63286104
     atom   12 type  2   force =    -0.44245191   -0.65761076   37.72655710
     atom   13 type  1   force =    -0.36514325   -1.15655713   -2.78101629
     atom   14 type  2   force =     0.15992270   -0.33880931  -38.12320133
     atom   15 type  2   force =    -0.13101999    0.02512118   36.61388847
     atom   16 type  1   force =     0.04203329   -3.96772619   -0.45044217
     atom   17 type  2   force =    -0.77997694   -1.49441637  -37.69960487
     atom   18 type  2   force =     0.17284179    0.63526302   38.32335629
     atom   19 type  1   force =    -2.59226238    2.59150237   -0.54321130
     atom   20 type  2   force =    -0.21275822    0.24339807   38.25859363
     atom   21 type  1   force =     0.32050084   -0.10734499   -0.48243206
     atom   22 type  2   force =    -0.19914882    1.78963221  -38.10969691
     atom   23 type  2   force =     0.11170205   -0.64290561   38.09205515
     atom   24 type  1   force =     0.45087040   -1.28583249   -5.80184413
     atom   25 type  2   force =    -0.62952112   -0.32979661  -39.01216129
     atom   26 type  2   force =     0.28585525   -0.07418134   37.09542052
     atom   27 type  1   force =    -0.02178339   -0.41364974    2.23561324
     atom   28 type  2   force =    -0.06905506   -1.00442744  -37.96647562
     atom   29 type  2   force =     0.25339589    0.41658716   37.01272305
     atom   30 type  1   force =     0.23139416    1.03173077    0.08797483
     atom   31 type  2   force =    -1.20447668    0.10641719  -37.07629652
     atom   32 type  2   force =     0.47900027    0.04090576   38.38923446
     atom   33 type  1   force =    -0.73647978    0.82255549   -1.98531726
     atom   34 type  2   force =    -0.39196059    1.47629659  -39.07239887
     atom   35 type  2   force =     0.26866818   -0.45348937   37.61222791
     atom   36 type  3   force =     0.24076204   -0.70212121   -8.51494604
     The core correction contribution to forces
     atom    1 type  1   force =     0.00000000    0.00000000    0.00000000
     atom    2 type  2   force =     0.00063525    0.00029788    0.02019018
     atom    3 type  2   force =     0.00067778    0.00033586   -0.02101499
     atom    4 type  1   force =     0.00000000    0.00000000    0.00000000
     atom    5 type  2   force =    -0.00066405    0.00187804    0.02025822
     atom    6 type  2   force =     0.00016132   -0.00095781   -0.02082809
     atom    7 type  1   force =     0.00000000    0.00000000    0.00000000
     atom    8 type  2   force =    -0.00048194    0.00075736    0.02002384
     atom    9 type  2   force =     0.00005198    0.00050144   -0.02111959
     atom   10 type  1   force =     0.00000000    0.00000000    0.00000000
     atom   11 type  2   force =     0.00248361   -0.01022332    0.00280822
     atom   12 type  2   force =     0.00107924    0.00117244   -0.02103431
     atom   13 type  1   force =     0.00000000    0.00000000    0.00000000
     atom   14 type  2   force =    -0.00089707    0.00027747    0.01961002
     atom   15 type  2   force =     0.00075490    0.00050617   -0.02061800
     atom   16 type  1   force =     0.00000000    0.00000000    0.00000000
     atom   17 type  2   force =     0.00000101    0.00164484    0.02029029
     atom   18 type  2   force =     0.00013042   -0.00034541   -0.02092256
     atom   19 type  1   force =     0.00000000    0.00000000    0.00000000
     atom   20 type  2   force =    -0.00010912    0.00052393   -0.02124639
     atom   21 type  1   force =     0.00000000    0.00000000    0.00000000
     atom   22 type  2   force =    -0.00009926   -0.00066706    0.02000604
     atom   23 type  2   force =    -0.00058592    0.00100604   -0.02099563
     atom   24 type  1   force =     0.00000000    0.00000000    0.00000000
     atom   25 type  2   force =    -0.00009008   -0.00034945    0.02056171
     atom   26 type  2   force =    -0.00011146    0.00080746   -0.02095008
     atom   27 type  1   force =     0.00000000    0.00000000    0.00000000
     atom   28 type  2   force =     0.00030225    0.00189195    0.02077803
     atom   29 type  2   force =    -0.00054306   -0.00058432   -0.02049158
     atom   30 type  1   force =     0.00000000    0.00000000    0.00000000
     atom   31 type  2   force =     0.00055972    0.00004570    0.02049571
     atom   32 type  2   force =    -0.00002841    0.00060431   -0.02092942
     atom   33 type  1   force =     0.00000000    0.00000000    0.00000000
     atom   34 type  2   force =     0.00063319    0.00115049    0.02082714
     atom   35 type  2   force =    -0.00006669    0.00087936   -0.02113596
     atom   36 type  3   force =     0.00000000    0.00000000    0.00000000
     The Hubbard contrib.    to forces
     atom    1 type  1   force =     0.00000000    0.00000000    0.00000000
     atom    2 type  2   force =     0.00000000    0.00000000    0.00000000
     atom    3 type  2   force =     0.00000000    0.00000000    0.00000000
     atom    4 type  1   force =     0.00000000    0.00000000    0.00000000
     atom    5 type  2   force =     0.00000000    0.00000000    0.00000000
     atom    6 type  2   force =     0.00000000    0.00000000    0.00000000
     atom    7 type  1   force =     0.00000000    0.00000000    0.00000000
     atom    8 type  2   force =     0.00000000    0.00000000    0.00000000
     atom    9 type  2   force =     0.00000000    0.00000000    0.00000000
     atom   10 type  1   force =     0.00000000    0.00000000    0.00000000
     atom   11 type  2   force =     0.00000000    0.00000000    0.00000000
     atom   12 type  2   force =     0.00000000    0.00000000    0.00000000
     atom   13 type  1   force =     0.00000000    0.00000000    0.00000000
     atom   14 type  2   force =     0.00000000    0.00000000    0.00000000
     atom   15 type  2   force =     0.00000000    0.00000000    0.00000000
     atom   16 type  1   force =     0.00000000    0.00000000    0.00000000
     atom   17 type  2   force =     0.00000000    0.00000000    0.00000000
     atom   18 type  2   force =     0.00000000    0.00000000    0.00000000
     atom   19 type  1   force =     0.00000000    0.00000000    0.00000000
     atom   20 type  2   force =     0.00000000    0.00000000    0.00000000
     atom   21 type  1   force =     0.00000000    0.00000000    0.00000000
     atom   22 type  2   force =     0.00000000    0.00000000    0.00000000
     atom   23 type  2   force =     0.00000000    0.00000000    0.00000000
     atom   24 type  1   force =     0.00000000    0.00000000    0.00000000
     atom   25 type  2   force =     0.00000000    0.00000000    0.00000000
     atom   26 type  2   force =     0.00000000    0.00000000    0.00000000
     atom   27 type  1   force =     0.00000000    0.00000000    0.00000000
     atom   28 type  2   force =     0.00000000    0.00000000    0.00000000
     atom   29 type  2   force =     0.00000000    0.00000000    0.00000000
     atom   30 type  1   force =     0.00000000    0.00000000    0.00000000
     atom   31 type  2   force =     0.00000000    0.00000000    0.00000000
     atom   32 type  2   force =     0.00000000    0.00000000    0.00000000
     atom   33 type  1   force =     0.00000000    0.00000000    0.00000000
     atom   34 type  2   force =     0.00000000    0.00000000    0.00000000
     atom   35 type  2   force =     0.00000000    0.00000000    0.00000000
     atom   36 type  3   force =     0.00000000    0.00000000    0.00000000
     The SCF correction term to forces
     atom    1 type  1   force =    -0.00003955    0.00000949   -0.00078658
     atom    2 type  2   force =     0.00000684    0.00001025   -0.00037168
     atom    3 type  2   force =    -0.00000021    0.00002061   -0.00020405
     atom    4 type  1   force =    -0.00006546    0.00000226   -0.00075668
     atom    5 type  2   force =    -0.00001027    0.00000894   -0.00042229
     atom    6 type  2   force =    -0.00002862    0.00002324   -0.00015714
     atom    7 type  1   force =     0.00005949    0.00002998   -0.00084110
     atom    8 type  2   force =     0.00000502   -0.00000704   -0.00038666
     atom    9 type  2   force =    -0.00003092    0.00001134   -0.00020416
     atom   10 type  1   force =     0.00001180    0.00000613   -0.00076909
     atom   11 type  2   force =    -0.00002809    0.00006047   -0.00037604
     atom   12 type  2   force =    -0.00001038   -0.00002661   -0.00019199
     atom   13 type  1   force =     0.00001198   -0.00001841   -0.00077057
     atom   14 type  2   force =     0.00000138   -0.00000486   -0.00038488
     atom   15 type  2   force =     0.00000791    0.00000325   -0.00018661
     atom   16 type  1   force =     0.00005265   -0.00015421   -0.00080908
     atom   17 type  2   force =     0.00002335    0.00000541   -0.00042488
     atom   18 type  2   force =     0.00003093    0.00001578   -0.00016521
     atom   19 type  1   force =    -0.00004246    0.00007738   -0.00080059
     atom   20 type  2   force =     0.00003157   -0.00001407   -0.00020468
     atom   21 type  1   force =     0.00001236    0.00000301   -0.00074129
     atom   22 type  2   force =     0.00000755    0.00002645   -0.00034914
     atom   23 type  2   force =     0.00001181    0.00000292   -0.00021221
     atom   24 type  1   force =     0.00000028   -0.00002614   -0.00076184
     atom   25 type  2   force =    -0.00001199   -0.00000397   -0.00039072
     atom   26 type  2   force =    -0.00000115    0.00001043   -0.00019101
     atom   27 type  1   force =     0.00003126   -0.00002793   -0.00074343
     atom   28 type  2   force =    -0.00001277   -0.00001673   -0.00039920
     atom   29 type  2   force =    -0.00000448   -0.00000417   -0.00019515
     atom   30 type  1   force =    -0.00002480   -0.00000240   -0.00075796
     atom   31 type  2   force =    -0.00002296    0.00000655   -0.00036546
     atom   32 type  2   force =     0.00000285    0.00000613   -0.00021350
     atom   33 type  1   force =    -0.00001053    0.00002550   -0.00074606
     atom   34 type  2   force =     0.00000818    0.00001285   -0.00035510
     atom   35 type  2   force =    -0.00000007   -0.00000827   -0.00021234
     atom   36 type  3   force =    -0.00000525    0.00001631   -0.00002876

     Total force =     0.221960     Total SCF correction =     0.003057

     BFGS Geometry Optimization
     Energy error            =      0.0E+00 Ry
     Gradient error          =      1.2E-01 Ry/Bohr

     number of scf cycles    =   1
     number of bfgs steps    =   0

     energy             new  =   -2205.5485239425 Ry

     new trust radius        =       0.1490647868 bohr
     new conv_thr            =       0.0000010000 Ry


ATOMIC_POSITIONS (angstrom)
Mo            6.5810957059        1.7734844241        2.8254896593
S             8.1692581563        0.8191435628        4.4354738995
S             8.1867150355        0.8155985648        1.2758994544
Mo            8.1012253280        4.4900551579        2.7179787957
S             6.4990120675        3.7197134951        4.3429695722
S             6.5559246623        3.5181343705        1.1226428303
Mo            6.4834282467        7.2097638670        2.6590112753
S             8.0856307234        6.3382836742        4.2494290950
S             8.0854732154        6.3070327463        1.0896909070
Mo            8.1545049977        9.9102618827        2.8311823606
S             6.5121235949        8.9137486705        4.3264610746
S             6.6176434787        9.0488062584        1.1435352221
Mo            3.4237312718        1.7492978372        2.7734038256
S             4.9785656234        0.8179786541        4.3565613000
S             5.0517053239        0.8468515565        1.2205319087
Mo            4.9745839125        4.5124529808        2.6313565747
S             3.4305865162        3.6727291928        4.2814793227
S             3.4364918214        3.5451408383        1.0663765877
Mo            3.4633391327        7.2090582144        2.6261977208
S             4.9870929179        6.3244166996        1.0402139498
Mo            5.0104811605        9.9088596904        2.7373498251
S             3.4680540839        8.9430956157        4.3258701386
S             3.4074466029        9.0659301003        1.0997447599
Mo            0.2919636403        1.7469923804        2.8385892161
S             1.8588412376        0.8031419241        4.4022216006
S             1.8547523285        0.8543943316        1.2069783336
Mo            1.8581150743        4.4929243174        2.6647869570
S             0.2728954115        3.6542742088        4.3344543796
S             0.2324311572        3.5278273138        1.1700636864
Mo            0.2682760491        7.2246548558        2.6994590656
S             1.9026134218        6.3120160058        4.2310617023
S             1.8571120771        6.3131696172        1.0485103378
Mo            1.8511605446        9.9370906667        2.7698134648
S             0.2997518168        9.0669514536        4.4079659237
S             0.2730003573        9.0463972346        1.1581082380
H             6.2918269830        9.7558518238        5.4154598546



     Writing config-only to output data dir ./MoS2-V-O.save/
     NEW-OLD atomic charge density approx. for the potential

     negative rho (up, down):  1.511E-04 0.000E+00

     total cpu time spent up to now is      134.9 secs

     Self-consistent Calculation

     iteration #  1     ecut=    80.00 Ry     beta= 0.70
     Davidson diagonalization with overlap
     ethr =  1.00E-06,  avg # of iterations = 20.0

     negative rho (up, down):  3.084E-04 0.000E+00

     total cpu time spent up to now is      149.3 secs

     total energy              =   -2205.57194182 Ry
     estimated scf accuracy    <       0.00608372 Ry

     iteration #  2     ecut=    80.00 Ry     beta= 0.70
     Davidson diagonalization with overlap
     ethr =  1.98E-06,  avg # of iterations =  2.0

     negative rho (up, down):  5.309E-04 0.000E+00

     total cpu time spent up to now is      168.2 secs

     total energy              =   -2205.57205497 Ry
     estimated scf accuracy    <       0.00093434 Ry

     iteration #  3     ecut=    80.00 Ry     beta= 0.70
     Davidson diagonalization with overlap
     ethr =  3.04E-07,  avg # of iterations =  5.0

     negative rho (up, down):  6.327E-04 0.000E+00

     total cpu time spent up to now is      181.7 secs

     total energy              =   -2205.57216273 Ry
     estimated scf accuracy    <       0.00010731 Ry

     iteration #  4     ecut=    80.00 Ry     beta= 0.70
     Davidson diagonalization with overlap
     ethr =  3.50E-08,  avg # of iterations =  4.0

     negative rho (up, down):  6.620E-04 0.000E+00

     total cpu time spent up to now is      193.8 secs

     total energy              =   -2205.57217885 Ry
     estimated scf accuracy    <       0.00002427 Ry

     iteration #  5     ecut=    80.00 Ry     beta= 0.70
     Davidson diagonalization with overlap
     ethr =  7.90E-09,  avg # of iterations =  4.0

     negative rho (up, down):  6.163E-04 0.000E+00

     total cpu time spent up to now is      206.0 secs

     total energy              =   -2205.57218200 Ry
     estimated scf accuracy    <       0.00000701 Ry

     iteration #  6     ecut=    80.00 Ry     beta= 0.70
     Davidson diagonalization with overlap
     ethr =  2.28E-09,  avg # of iterations =  5.0

     negative rho (up, down):  5.104E-04 0.000E+00

     total cpu time spent up to now is      217.7 secs

     total energy              =   -2205.57218345 Ry
     estimated scf accuracy    <       0.00000147 Ry

     iteration #  7     ecut=    80.00 Ry     beta= 0.70
     Davidson diagonalization with overlap
     ethr =  4.78E-10,  avg # of iterations =  4.0

     negative rho (up, down):  1.370E-04 0.000E+00

     total cpu time spent up to now is      220.1 secs

     End of self-consistent calculation

          k = 0.0000 0.0000 0.0000 (105382 PWs)   bands (ev):

   -62.8340 -62.8185 -62.8090 -62.8003 -62.7746 -62.7685 -62.7637 -62.7545
   -62.7542 -62.7236 -62.6281 -62.5244 -37.1615 -37.1127 -37.1018 -37.0814
   -37.0736 -37.0541 -37.0433 -37.0163 -37.0080 -37.0001 -36.9980 -36.9862
   -36.9758 -36.9691 -36.9597 -36.9534 -36.9495 -36.9485 -36.9323 -36.9274
   -36.9148 -36.9059 -36.8846 -36.8741 -36.8603 -36.8533 -36.8477 -36.8405
   -36.8191 -36.8043 -36.7727 -36.7595 -36.7070 -36.6729 -36.6066 -36.5516
   -16.3047 -15.6942 -15.0713 -15.0411 -14.8728 -14.8390 -14.6300 -14.4133
   -14.4024 -14.3778 -14.3351 -14.3167 -14.2885 -14.2232 -14.1334 -14.0645
   -14.0534 -14.0485 -13.9647 -13.8342 -13.7880 -13.7768 -13.7602  -9.0080
    -7.6332  -7.3840  -7.3087  -7.2348  -7.2070  -7.1749  -7.0977  -7.0021
    -6.7968  -6.7267  -6.7190  -6.6637  -6.5458  -6.4620  -6.4519  -6.4195
    -6.3339  -6.2375  -6.1962  -5.9118  -5.8828  -5.8615  -5.7731  -5.7467
    -5.7146  -5.6748  -5.6400  -5.5939  -5.5652  -5.5224  -5.4711  -5.4277
    -5.3821  -5.3096  -5.1643  -5.1024  -5.0541  -4.9703  -4.9418  -4.8772
    -4.8572  -4.7860  -4.6589  -4.5047  -4.4845  -4.2915  -4.2513  -4.1602
    -4.1217  -4.0285  -3.9704  -3.8836  -3.7634  -3.7547  -3.6788  -3.6265
    -3.6022  -3.5183  -3.4927  -3.4684  -3.4374  -3.4001  -3.3748  -3.3394
    -3.3138  -3.1609  -3.1157  -2.9224  -2.8607  -2.7756  -2.7374  -2.6741
    -2.6536  -2.6179  -2.6011  -2.5828  -2.4978  -2.1967  -1.9997  -1.9308
    -1.9042  -0.8981  -0.6645  -0.3449  -0.1117  -0.0769   0.0048   0.0103
     0.1499   0.1583   0.2088   0.2702   0.2966   0.3611   0.4415   0.5135
     0.5450   0.5925   0.6082   0.6326   0.6999   0.7253   0.7626   0.7818
     0.8153   0.8389   0.9019   0.9219   1.0120   1.0399   1.1045   1.4060
     1.4145

     the Fermi energy is    -0.8999 ev

!    total energy              =   -2205.57218414 Ry
     estimated scf accuracy    <       0.00000054 Ry
     smearing contrib. (-TS)   =      -0.00592391 Ry
     internal energy E=F+TS    =   -2205.56626023 Ry

     The total energy is F=E-TS. E is the sum of the following terms:
     one-electron contribution =  -18056.78613014 Ry
     hartree contribution      =    9015.63600215 Ry
     xc contribution           =    -385.39107724 Ry
     ewald contribution        =    7220.97494500 Ry

     convergence has been achieved in   7 iterations

     negative rho (up, down):  1.370E-04 0.000E+00

     Forces acting on atoms (cartesian axes, Ry/au):

     atom    1 type  1   force =     0.00188964   -0.01424478   -0.00048799
     atom    2 type  2   force =    -0.00954768    0.01035906    0.00065837
     atom    3 type  2   force =    -0.01056435    0.00770526   -0.00962400
     atom    4 type  1   force =     0.00835595   -0.00473577    0.00147425
     atom    5 type  2   force =    -0.00072358   -0.00613217   -0.00775764
     atom    6 type  2   force =     0.00429668    0.00691615    0.00340801
     atom    7 type  1   force =    -0.00352212   -0.01853778   -0.01499663
     atom    8 type  2   force =     0.00536211   -0.00951490    0.00699397
     atom    9 type  2   force =     0.00912564    0.00223252    0.00638203
     atom   10 type  1   force =     0.00080363    0.01058279   -0.01319719
     atom   11 type  2   force =     0.00194423    0.04512494    0.01961155
     atom   12 type  2   force =    -0.00223562    0.00106891   -0.00160667
     atom   13 type  1   force =     0.00341695    0.00294695   -0.00274492
     atom   14 type  2   force =     0.00635286   -0.00137038    0.00863795
     atom   15 type  2   force =    -0.00860450    0.00285651   -0.01069071
     atom   16 type  1   force =    -0.00585226    0.00003875   -0.00037699
     atom   17 type  2   force =     0.00374238    0.00124885    0.00405603
     atom   18 type  2   force =    -0.00311843   -0.00483842    0.01035088
     atom   19 type  1   force =     0.00830056   -0.01131114   -0.00007499
     atom   20 type  2   force =     0.00369517   -0.00786625   -0.00427048
     atom   21 type  1   force =    -0.00516974    0.00731042   -0.00743452
     atom   22 type  2   force =    -0.00029078   -0.00129148   -0.00172309
     atom   23 type  2   force =    -0.00059636    0.00015702    0.00316957
     atom   24 type  1   force =    -0.00489219   -0.00092241   -0.01002212
     atom   25 type  2   force =     0.01093733    0.01484266    0.00116710
     atom   26 type  2   force =    -0.00765400   -0.00086888   -0.00486936
     atom   27 type  1   force =    -0.00310240   -0.00187135    0.00728773
     atom   28 type  2   force =     0.00104657   -0.00273153   -0.00437076
     atom   29 type  2   force =     0.00266552    0.00121868   -0.00537445
     atom   30 type  1   force =    -0.00198472    0.00433166    0.00315693
     atom   31 type  2   force =     0.00114895   -0.00004816    0.00927006
     atom   32 type  2   force =    -0.00749599    0.00451704    0.00683013
     atom   33 type  1   force =     0.00604389   -0.00183509    0.00091222
     atom   34 type  2   force =     0.00287562   -0.03148638   -0.01403561
     atom   35 type  2   force =    -0.00516704    0.00732518    0.00794816
     atom   36 type  3   force =    -0.00148191   -0.01117646    0.01234317
     The non-local contrib.  to forces
     atom    1 type  1   force =     0.00089836    0.03475848   -0.01414724
     atom    2 type  2   force =    -0.01151649   -0.00531537   -0.26049684
     atom    3 type  2   force =    -0.01290075   -0.00839116    0.26687430
     atom    4 type  1   force =    -0.00181975    0.00737388    0.00119587
     atom    5 type  2   force =     0.00782139   -0.03430457   -0.25337268
     atom    6 type  2   force =    -0.00221025    0.00490724    0.26474791
     atom    7 type  1   force =    -0.03360570    0.00735263   -0.01484427
     atom    8 type  2   force =     0.01164865   -0.01417454   -0.25412507
     atom    9 type  2   force =     0.00265177   -0.00984338    0.27793856
     atom   10 type  1   force =     0.00850664    0.00164320   -0.00324598
     atom   11 type  2   force =    -0.06139200    0.21133553    0.11888767
     atom   12 type  2   force =    -0.01257424   -0.01460664    0.26419638
     atom   13 type  1   force =    -0.00039272    0.02722294   -0.00637898
     atom   14 type  2   force =     0.01364065   -0.00892594   -0.24433399
     atom   15 type  2   force =    -0.01087051   -0.00689995    0.26138125
     atom   16 type  1   force =     0.00796020    0.04186121   -0.01797298
     atom   17 type  2   force =     0.00167751   -0.03046223   -0.25191401
     atom   18 type  2   force =    -0.00476059   -0.00460910    0.26951795
     atom   19 type  1   force =     0.02238474   -0.00936879   -0.01814506
     atom   20 type  2   force =     0.00182390   -0.01899797    0.26078842
     atom   21 type  1   force =    -0.00291068    0.01467097    0.00271294
     atom   22 type  2   force =    -0.00292452    0.00522708   -0.25544902
     atom   23 type  2   force =     0.00996450   -0.01273167    0.26814524
     atom   24 type  1   force =     0.00507686    0.02160817   -0.01060750
     atom   25 type  2   force =     0.00569431    0.00081248   -0.26246844
     atom   26 type  2   force =    -0.00064724   -0.01453523    0.26532465
     atom   27 type  1   force =     0.00002739    0.01281160    0.00791611
     atom   28 type  2   force =    -0.00424470   -0.02635049   -0.27113523
     atom   29 type  2   force =     0.00609155    0.00099913    0.26112845
     atom   30 type  1   force =     0.00481588    0.01165575    0.01091536
     atom   31 type  2   force =    -0.00919911    0.00060200   -0.25913939
     atom   32 type  2   force =    -0.00200652   -0.01075796    0.27268223
     atom   33 type  1   force =    -0.00226231    0.00749300    0.00507988
     atom   34 type  2   force =    -0.00696130   -0.02741873   -0.27342974
     atom   35 type  2   force =    -0.00188870   -0.00779338    0.26817061
     atom   36 type  3   force =     0.00876904   -0.03516932   -0.04329459
     The ionic contribution  to forces
     atom    1 type  1   force =     0.15379371    0.87133970    5.62316035
     atom    2 type  2   force =    -0.27187361    0.51468157   39.32200836
     atom    3 type  2   force =    -0.08771459    0.08317880  -36.26666326
     atom    4 type  1   force =    -0.00735088    0.66376698    0.77909999
     atom    5 type  2   force =    -0.97587432    1.55016361   38.66287848
     atom    6 type  2   force =     0.31037673   -0.51964227  -37.92529163
     atom    7 type  1   force =    -2.36491603   -3.23439756    1.79615309
     atom    8 type  2   force =    -0.96279128   -0.07519832   37.41615994
     atom    9 type  2   force =     0.40711842   -0.12444636  -37.94949011
     atom   10 type  1   force =    -0.31463948   -0.26494246    4.96763563
     atom   11 type  2   force =    -0.35044479   -2.56038650   37.42362386
     atom   12 type  2   force =     0.42779195    0.63478182  -37.97712494
     atom   13 type  1   force =     0.32544838    1.02933001    2.78678147
     atom   14 type  2   force =    -0.21766351    0.29793984   38.48529290
     atom   15 type  2   force =     0.12831359    0.07343189  -36.95160926
     atom   16 type  1   force =     0.11713780    3.73906583    0.50487405
     atom   17 type  2   force =     0.78690955    1.50193099   38.00910321
     atom   18 type  2   force =    -0.19355048   -0.60137525  -38.51481238
     atom   19 type  1   force =     2.29472875   -2.47409816    0.55081026
     atom   20 type  2   force =     0.15509996   -0.29760851  -38.60642946
     atom   21 type  1   force =    -0.47577492    0.06207023    0.52712632
     atom   22 type  2   force =     0.26953532   -1.79795601   38.37214511
     atom   23 type  2   force =    -0.15424609    0.59929174  -38.29646955
     atom   24 type  1   force =    -0.25194108    1.05911052    5.53964347
     atom   25 type  2   force =     0.51934300    0.26581535   39.25581519
     atom   26 type  2   force =    -0.25623832    0.06123600  -37.31501580
     atom   27 type  1   force =     0.02098723    0.55861507   -1.94169374
     atom   28 type  2   force =     0.07936372    0.95890916   38.25540893
     atom   29 type  2   force =    -0.22052941   -0.35616802  -37.32484842
     atom   30 type  1   force =    -0.13900481   -1.18545519   -0.07631498
     atom   31 type  2   force =     1.21569737   -0.04428287   37.36190278
     atom   32 type  2   force =    -0.48069280   -0.04450150  -38.53544505
     atom   33 type  1   force =     0.60559978   -0.68745381    2.15583726
     atom   34 type  2   force =     0.33058327   -1.27930625   39.25223537
     atom   35 type  2   force =    -0.20786250    0.47758350  -37.76994111
     atom   36 type  3   force =    -0.21471960    0.54497644    8.40345365
     The local contribution  to forces
     atom    1 type  1   force =    -0.15293419   -0.92020355   -5.60881535
     atom    2 type  2   force =     0.27330885   -0.49941045  -39.08058327
     atom    3 type  2   force =     0.08950522   -0.06745439   36.01112128
     atom    4 type  1   force =     0.01743868   -0.67578762   -0.77814271
     atom    5 type  2   force =     0.96804691   -1.52392779  -38.43709526
     atom    6 type  2   force =    -0.30403774    0.52238020   37.68484603
     atom    7 type  1   force =     2.39501114    3.20862734   -1.79534330
     atom    8 type  2   force =     0.95689079    0.07917763  -37.17486061
     atom    9 type  2   force =    -0.40071344    0.13603731   37.69903649
     atom   10 type  1   force =     0.30711838    0.27373859   -4.97671868
     atom   11 type  2   force =     0.40992236    2.40786111  -37.52033064
     atom   12 type  2   force =    -0.41855622   -0.62035520   37.73228650
     atom   13 type  1   force =    -0.32173621   -1.05374641   -2.78237826
     atom   14 type  2   force =     0.21128254   -0.29066800  -38.25144856
     atom   15 type  2   force =    -0.12670412   -0.06418118   36.70019719
     atom   16 type  1   force =    -0.13088693   -3.78091245   -0.48647300
     atom   17 type  2   force =    -0.78491727   -1.47186224  -37.77297485
     atom   18 type  2   force =     0.19503900    0.60146074   38.27651838
     atom   19 type  1   force =    -2.30900468    2.47230618   -0.53183424
     atom   20 type  2   force =    -0.15328000    0.30824548   38.36250409
     atom   21 type  1   force =     0.47338821   -0.06963305   -0.53654498
     atom   22 type  2   force =    -0.26672746    1.79197478  -38.13814832
     atom   23 type  2   force =     0.14431426   -0.58753053   38.05254016
     atom   24 type  1   force =     0.24214364   -1.08185986   -5.53824543
     atom   25 type  2   force =    -0.51413448   -0.25166592  -39.01243027
     atom   26 type  2   force =     0.24944190   -0.04839559   37.06587364
     atom   27 type  1   force =    -0.02407958   -0.57311818    1.94172572
     atom   28 type  2   force =    -0.07435385   -0.93712725  -38.00902998
     atom   29 type  2   force =     0.21763558    0.35683859   37.07890113
     atom   30 type  1   force =     0.13236796    1.17814043    0.06938301
     atom   31 type  2   force =    -1.20584358    0.04365478  -37.11377311
     atom   32 type  2   force =     0.47539875    0.05927047   38.29063997
     atom   33 type  1   force =    -0.59732886    0.67810358   -2.15913867
     atom   34 type  2   force =    -0.32143231    1.27441016  -39.01339221
     atom   35 type  2   force =     0.20471384   -0.46333658   37.53082464
     atom   36 type  3   force =     0.20447001   -0.52099852   -8.34773064
     The core correction contribution to forces
     atom    1 type  1   force =     0.00000000    0.00000000    0.00000000
     atom    2 type  2   force =     0.00059098    0.00037351    0.02019335
     atom    3 type  2   force =     0.00057804    0.00038031   -0.02089055
     atom    4 type  1   force =     0.00000000    0.00000000    0.00000000
     atom    5 type  2   force =    -0.00073297    0.00193071    0.02025331
     atom    6 type  2   force =     0.00018526   -0.00078188   -0.02084617
     atom    7 type  1   force =     0.00000000    0.00000000    0.00000000
     atom    8 type  2   force =    -0.00040832    0.00077585    0.02022968
     atom    9 type  2   force =     0.00010391    0.00050935   -0.02104710
     atom   10 type  1   force =     0.00000000    0.00000000    0.00000000
     atom   11 type  2   force =     0.00385990   -0.01380122   -0.00209331
     atom   12 type  2   force =     0.00109645    0.00121336   -0.02091072
     atom   13 type  1   force =     0.00000000    0.00000000    0.00000000
     atom   14 type  2   force =    -0.00095125    0.00029547    0.01956846
     atom   15 type  2   force =     0.00063718    0.00052470   -0.02059907
     atom   16 type  1   force =     0.00000000    0.00000000    0.00000000
     atom   17 type  2   force =     0.00006467    0.00162107    0.02028801
     atom   18 type  2   force =     0.00011358   -0.00035624   -0.02087818
     atom   19 type  1   force =     0.00000000    0.00000000    0.00000000
     atom   20 type  2   force =     0.00000640    0.00056693   -0.02108546
     atom   21 type  1   force =     0.00000000    0.00000000    0.00000000
     atom   22 type  2   force =    -0.00022820   -0.00061668    0.02016216
     atom   23 type  2   force =    -0.00067537    0.00108420   -0.02095912
     atom   24 type  1   force =     0.00000000    0.00000000    0.00000000
     atom   25 type  2   force =     0.00002085   -0.00019290    0.02065150
     atom   26 type  2   force =    -0.00019868    0.00079849   -0.02093625
     atom   27 type  1   force =     0.00000000    0.00000000    0.00000000
     atom   28 type  2   force =     0.00029796    0.00180840    0.02081200
     atom   29 type  2   force =    -0.00052004   -0.00046180   -0.02051836
     atom   30 type  1   force =     0.00000000    0.00000000    0.00000000
     atom   31 type  2   force =     0.00053691    0.00009926    0.02063084
     atom   32 type  2   force =    -0.00017839    0.00056560   -0.02094827
     atom   33 type  1   force =     0.00000000    0.00000000    0.00000000
     atom   34 type  2   force =     0.00073107    0.00081874    0.02099929
     atom   35 type  2   force =    -0.00007575    0.00084987   -0.02104173
     atom   36 type  3   force =     0.00000000    0.00000000    0.00000000
     The Hubbard contrib.    to forces
     atom    1 type  1   force =     0.00000000    0.00000000    0.00000000
     atom    2 type  2   force =     0.00000000    0.00000000    0.00000000
     atom    3 type  2   force =     0.00000000    0.00000000    0.00000000
     atom    4 type  1   force =     0.00000000    0.00000000    0.00000000
     atom    5 type  2   force =     0.00000000    0.00000000    0.00000000
     atom    6 type  2   force =     0.00000000    0.00000000    0.00000000
     atom    7 type  1   force =     0.00000000    0.00000000    0.00000000
     atom    8 type  2   force =     0.00000000    0.00000000    0.00000000
     atom    9 type  2   force =     0.00000000    0.00000000    0.00000000
     atom   10 type  1   force =     0.00000000    0.00000000    0.00000000
     atom   11 type  2   force =     0.00000000    0.00000000    0.00000000
     atom   12 type  2   force =     0.00000000    0.00000000    0.00000000
     atom   13 type  1   force =     0.00000000    0.00000000    0.00000000
     atom   14 type  2   force =     0.00000000    0.00000000    0.00000000
     atom   15 type  2   force =     0.00000000    0.00000000    0.00000000
     atom   16 type  1   force =     0.00000000    0.00000000    0.00000000
     atom   17 type  2   force =     0.00000000    0.00000000    0.00000000
     atom   18 type  2   force =     0.00000000    0.00000000    0.00000000
     atom   19 type  1   force =     0.00000000    0.00000000    0.00000000
     atom   20 type  2   force =     0.00000000    0.00000000    0.00000000
     atom   21 type  1   force =     0.00000000    0.00000000    0.00000000
     atom   22 type  2   force =     0.00000000    0.00000000    0.00000000
     atom   23 type  2   force =     0.00000000    0.00000000    0.00000000
     atom   24 type  1   force =     0.00000000    0.00000000    0.00000000
     atom   25 type  2   force =     0.00000000    0.00000000    0.00000000
     atom   26 type  2   force =     0.00000000    0.00000000    0.00000000
     atom   27 type  1   force =     0.00000000    0.00000000    0.00000000
     atom   28 type  2   force =     0.00000000    0.00000000    0.00000000
     atom   29 type  2   force =     0.00000000    0.00000000    0.00000000
     atom   30 type  1   force =     0.00000000    0.00000000    0.00000000
     atom   31 type  2   force =     0.00000000    0.00000000    0.00000000
     atom   32 type  2   force =     0.00000000    0.00000000    0.00000000
     atom   33 type  1   force =     0.00000000    0.00000000    0.00000000
     atom   34 type  2   force =     0.00000000    0.00000000    0.00000000
     atom   35 type  2   force =     0.00000000    0.00000000    0.00000000
     atom   36 type  3   force =     0.00000000    0.00000000    0.00000000
     The SCF correction term to forces
     atom    1 type  1   force =     0.00013217   -0.00014295   -0.00067042
     atom    2 type  2   force =    -0.00005701    0.00002626   -0.00044790
     atom    3 type  2   force =    -0.00003187   -0.00001184   -0.00005045
     atom    4 type  1   force =     0.00008830   -0.00009256   -0.00066357
     atom    5 type  2   force =     0.00001582    0.00000232   -0.00040616
     atom    6 type  2   force =    -0.00001692    0.00004931   -0.00003279
     atom    7 type  1   force =    -0.00001112   -0.00012373   -0.00094682
     atom    8 type  2   force =     0.00002267   -0.00009907   -0.00039464
     atom    9 type  2   force =    -0.00003462   -0.00002795   -0.00004049
     atom   10 type  1   force =    -0.00018151    0.00013991   -0.00085284
     atom   11 type  2   force =    -0.00000084    0.00011248   -0.00046071
     atom   12 type  2   force =     0.00000684    0.00003203   -0.00003856
     atom   13 type  1   force =     0.00009791    0.00013686   -0.00075383
     atom   14 type  2   force =     0.00004484   -0.00001531   -0.00042554
     atom   15 type  2   force =     0.00001976   -0.00002249   -0.00004549
     atom   16 type  1   force =    -0.00006293    0.00002062   -0.00078973
     atom   17 type  2   force =     0.00000833    0.00001772   -0.00043100
     atom   18 type  2   force =     0.00004046    0.00003788    0.00002044
     atom   19 type  1   force =     0.00019215   -0.00015391   -0.00089063
     atom   20 type  2   force =     0.00004530   -0.00007573   -0.00003274
     atom   21 type  1   force =     0.00012806    0.00019871   -0.00071347
     atom   22 type  2   force =     0.00005448    0.00007581   -0.00041769
     atom   23 type  2   force =     0.00004674    0.00003973   -0.00007184
     atom   24 type  1   force =    -0.00017120    0.00021521   -0.00079733
     atom   25 type  2   force =     0.00001406    0.00007011   -0.00038554
     atom   26 type  2   force =    -0.00001125    0.00002391   -0.00010028
     atom   27 type  1   force =    -0.00003704   -0.00018337   -0.00064504
     atom   28 type  2   force =    -0.00001615    0.00002511   -0.00041114
     atom   29 type  2   force =    -0.00001176    0.00000724   -0.00002192
     atom   30 type  1   force =    -0.00016336   -0.00001286   -0.00081114
     atom   31 type  2   force =    -0.00004223   -0.00012488   -0.00033572
     atom   32 type  2   force =    -0.00001663   -0.00006311   -0.00008343
     atom   33 type  1   force =     0.00003569    0.00001860   -0.00085092
     atom   34 type  2   force =    -0.00004471    0.00000616   -0.00043299
     atom   35 type  2   force =    -0.00005351    0.00001823   -0.00004893
     atom   36 type  3   force =    -0.00000096    0.00001141   -0.00006993

     Total force =     0.090066     Total SCF correction =     0.003143
     Energy error            =      2.4E-02 Ry
     Gradient error          =      4.5E-02 Ry/Bohr

     number of scf cycles    =   2
     number of bfgs steps    =   1

     energy             old  =   -2205.5485239425 Ry
     energy             new  =   -2205.5721841394 Ry

     CASE: energy            _new < energy            _old

     new trust radius        =       0.0454977173 bohr
     new conv_thr            =       0.0000000451 Ry


ATOMIC_POSITIONS (angstrom)
Mo            6.5833805626        1.7627323110        2.8255530888
S             8.1624482961        0.8267824767        4.4360213896
S             8.1794989910        0.8207883149        1.2700561379
Mo            8.1071005148        4.4864361343        2.7188473929
S             6.4984345502        3.7157253968        4.3378729980
S             6.5588454744        3.5232519063        1.1248339760
Mo            6.4802132417        7.1976121465        2.6480989059
S             8.0894031989        6.3318367824        4.2546963504
S             8.0915079878        6.3087337310        1.0943993922
Mo            8.1538328573        9.9177772392        2.8214037067
S             6.5163623532        8.9340381299        4.3271574655
S             6.6163151254        9.0494321093        1.1432910970
Mo            3.4260584809        1.7514075250        2.7712751085
S             4.9828090170        0.8173904489        4.3625905844
S             5.0456765598        0.8485860276        1.2133162785
Mo            4.9702979352        4.5123410965        2.6308597700
S             3.4332232891        3.6736485465        4.2841144534
S             3.4344532507        3.5418169659        1.0737495188
Mo            3.4698135945        7.2012789526        2.6253275962
S             4.9899085943        6.3194754751        1.0383305626
Mo            5.0072098381        9.9143609893        2.7320011530
S             3.4673521355        8.9422395418        4.3249410712
S             3.4069257149        9.0661931255        1.1022276585
Mo            0.2884172336        1.7463719192        2.8308804718
S             1.8666133234        0.8135186421        4.4036269536
S             1.8492793896        0.8538940379        1.2037597652
Mo            1.8558736471        4.4913527534        2.6697820940
S             0.2736168989        3.6526967313        4.3313889126
S             0.2341697189        3.5286276287        1.1666441954
Mo            0.2666152734        7.2285993989        2.7008422907
S             1.9033365719        6.3118439841        4.2379290522
S             1.8518993010        6.3162621883        1.0531271119
Mo            1.8558587437        9.9354832004        2.7697538596
S             0.3020974455        9.0447757949        4.3988879798
S             0.2693632706        9.0510963021        1.1640551911
H             6.2886412979        9.7571162343        5.4346792856



     Writing config-only to output data dir ./MoS2-V-O.save/
     NEW-OLD atomic charge density approx. for the potential

     negative rho (up, down):  1.418E-04 0.000E+00

     total cpu time spent up to now is      223.8 secs

     Self-consistent Calculation

     iteration #  1     ecut=    80.00 Ry     beta= 0.70
     Davidson diagonalization with overlap
     ethr =  1.00E-06,  avg # of iterations =  8.0

     negative rho (up, down):  1.345E-04 0.000E+00

     total cpu time spent up to now is      236.9 secs

     total energy              =   -2205.57974566 Ry
     estimated scf accuracy    <       0.00079589 Ry

     iteration #  2     ecut=    80.00 Ry     beta= 0.70
     Davidson diagonalization with overlap
     ethr =  2.59E-07,  avg # of iterations =  2.0

     negative rho (up, down):  1.345E-04 0.000E+00

     total cpu time spent up to now is      249.8 secs

     total energy              =   -2205.57979730 Ry
     estimated scf accuracy    <       0.00015669 Ry

     iteration #  3     ecut=    80.00 Ry     beta= 0.70
     Davidson diagonalization with overlap
     ethr =  5.10E-08,  avg # of iterations =  3.0

     negative rho (up, down):  1.339E-04 0.000E+00

     total cpu time spent up to now is      267.7 secs

     total energy              =   -2205.57981415 Ry
     estimated scf accuracy    <       0.00003302 Ry

     iteration #  4     ecut=    80.00 Ry     beta= 0.70
     Davidson diagonalization with overlap
     ethr =  1.08E-08,  avg # of iterations =  6.0

     negative rho (up, down):  1.326E-04 0.000E+00

     total cpu time spent up to now is      293.4 secs

     total energy              =   -2205.57982394 Ry
     estimated scf accuracy    <       0.00000208 Ry

     iteration #  5     ecut=    80.00 Ry     beta= 0.70
     Davidson diagonalization with overlap
     ethr =  6.77E-10,  avg # of iterations =  4.0

     negative rho (up, down):  1.305E-04 0.000E+00

     total cpu time spent up to now is      308.3 secs

     total energy              =   -2205.57982456 Ry
     estimated scf accuracy    <       0.00000059 Ry

     iteration #  6     ecut=    80.00 Ry     beta= 0.70
     Davidson diagonalization with overlap
     ethr =  1.92E-10,  avg # of iterations =  3.0

     negative rho (up, down):  1.302E-04 0.000E+00

     total cpu time spent up to now is      324.7 secs

     total energy              =   -2205.57982469 Ry
     estimated scf accuracy    <       0.00000018 Ry

     iteration #  7     ecut=    80.00 Ry     beta= 0.70
     Davidson diagonalization with overlap
     ethr =  5.88E-11,  avg # of iterations =  2.0

     negative rho (up, down):  1.307E-04 0.000E+00

     total cpu time spent up to now is      339.2 secs

     total energy              =   -2205.57982469 Ry
     estimated scf accuracy    <       0.00000008 Ry

     iteration #  8     ecut=    80.00 Ry     beta= 0.70
     Davidson diagonalization with overlap
     ethr =  2.66E-11,  avg # of iterations =  5.0

     negative rho (up, down):  1.373E-04 0.000E+00

     total cpu time spent up to now is      341.5 secs

     End of self-consistent calculation

          k = 0.0000 0.0000 0.0000 (105382 PWs)   bands (ev):

   -62.8388 -62.8234 -62.8128 -62.8040 -62.7785 -62.7712 -62.7681 -62.7583
   -62.7558 -62.7264 -62.6356 -62.5305 -37.1640 -37.1152 -37.1065 -37.0853
   -37.0763 -37.0562 -37.0452 -37.0220 -37.0123 -37.0027 -37.0013 -36.9900
   -36.9803 -36.9716 -36.9640 -36.9572 -36.9537 -36.9511 -36.9375 -36.9323
   -36.9190 -36.9088 -36.8873 -36.8752 -36.8630 -36.8569 -36.8506 -36.8443
   -36.8262 -36.8078 -36.7786 -36.7628 -36.7130 -36.6820 -36.6122 -36.5576
   -16.2751 -15.6868 -15.0730 -15.0472 -14.8781 -14.8365 -14.6302 -14.4117
   -14.4043 -14.3759 -14.3486 -14.3214 -14.2939 -14.2315 -14.1342 -14.0729
   -14.0610 -14.0530 -13.9685 -13.8391 -13.7884 -13.7840 -13.7689  -8.9640
    -7.6299  -7.3831  -7.3003  -7.2430  -7.2010  -7.1805  -7.1090  -7.0133
    -6.7938  -6.7237  -6.7209  -6.6602  -6.5487  -6.4675  -6.4586  -6.4303
    -6.3314  -6.2373  -6.2002  -5.9122  -5.8824  -5.8657  -5.7750  -5.7516
    -5.7167  -5.6799  -5.6394  -5.5997  -5.5796  -5.5231  -5.4815  -5.4267
    -5.3760  -5.3010  -5.1558  -5.1005  -5.0534  -4.9734  -4.9428  -4.8937
    -4.8684  -4.7935  -4.6561  -4.5077  -4.4884  -4.2941  -4.2644  -4.1665
    -4.1349  -4.0352  -3.9741  -3.8776  -3.7717  -3.7608  -3.6838  -3.6260
    -3.6099  -3.5251  -3.4895  -3.4683  -3.4515  -3.4066  -3.3829  -3.3464
    -3.3238  -3.1696  -3.1169  -2.9280  -2.8575  -2.7796  -2.7407  -2.6845
    -2.6552  -2.6237  -2.6092  -2.5865  -2.5010  -2.1972  -2.0075  -1.9352
    -1.9183  -0.8985  -0.6653  -0.3633  -0.1145  -0.0795  -0.0050   0.0279
     0.1537   0.1656   0.1938   0.2695   0.3046   0.3556   0.4443   0.5068
     0.5406   0.5922   0.6011   0.6345   0.6997   0.7227   0.7652   0.7687
     0.8116   0.8395   0.9033   0.9178   1.0151   1.0391   1.0986   1.3974
     1.4190

     the Fermi energy is    -0.9003 ev

!    total energy              =   -2205.57982467 Ry
     estimated scf accuracy    <       0.00000002 Ry
     smearing contrib. (-TS)   =      -0.00592685 Ry
     internal energy E=F+TS    =   -2205.57389781 Ry

     The total energy is F=E-TS. E is the sum of the following terms:
     one-electron contribution =  -18056.67771842 Ry
     hartree contribution      =    9015.58946663 Ry
     xc contribution           =    -385.38771206 Ry
     ewald contribution        =    7220.90206604 Ry

     convergence has been achieved in   8 iterations

     negative rho (up, down):  1.373E-04 0.000E+00

     Forces acting on atoms (cartesian axes, Ry/au):

     atom    1 type  1   force =    -0.00377147   -0.00524375   -0.00397030
     atom    2 type  2   force =    -0.00443018    0.00639770   -0.00090964
     atom    3 type  2   force =    -0.00832126    0.00638296   -0.01201087
     atom    4 type  1   force =     0.00614015   -0.00229321    0.00092337
     atom    5 type  2   force =    -0.00010966   -0.00640444   -0.00694723
     atom    6 type  2   force =     0.00320942    0.00349345    0.00355016
     atom    7 type  1   force =     0.00158846   -0.00601950   -0.00062554
     atom    8 type  2   force =     0.00164770   -0.00687893    0.00367236
     atom    9 type  2   force =     0.00818507    0.00032869    0.00320512
     atom   10 type  1   force =     0.00287059    0.00832951   -0.00294862
     atom   11 type  2   force =    -0.00040159    0.03515754    0.01634860
     atom   12 type  2   force =    -0.00291198    0.00002603   -0.00294748
     atom   13 type  1   force =     0.00264432    0.00108152   -0.00046241
     atom   14 type  2   force =     0.00341909   -0.00127974    0.00462069
     atom   15 type  2   force =    -0.00643149    0.00282170   -0.00949580
     atom   16 type  1   force =    -0.00244197    0.00028899    0.00026353
     atom   17 type  2   force =     0.00268262    0.00078758    0.00440992
     atom   18 type  2   force =    -0.00350472   -0.00320153    0.00671922
     atom   19 type  1   force =     0.00457386   -0.00771723    0.00251836
     atom   20 type  2   force =     0.00116350   -0.00952555   -0.00890112
     atom   21 type  1   force =    -0.00346369    0.00484526   -0.00142684
     atom   22 type  2   force =     0.00214460   -0.00177021   -0.00289850
     atom   23 type  2   force =    -0.00037280   -0.00179545    0.00131224
     atom   24 type  1   force =    -0.00338443   -0.00040723   -0.00411018
     atom   25 type  2   force =     0.00673836    0.01063140   -0.00216025
     atom   26 type  2   force =    -0.00424354   -0.00124159   -0.00372142
     atom   27 type  1   force =    -0.00182232   -0.00066240    0.00521689
     atom   28 type  2   force =     0.00092693   -0.00424692   -0.00245783
     atom   29 type  2   force =     0.00294002    0.00130912   -0.00544606
     atom   30 type  1   force =    -0.00110854   -0.00143642    0.00484080
     atom   31 type  2   force =     0.00143467   -0.00008312    0.00594686
     atom   32 type  2   force =    -0.00529442    0.00320003    0.00631839
     atom   33 type  1   force =     0.00171728    0.00031361    0.00336198
     atom   34 type  2   force =     0.00069434   -0.02061743   -0.01314227
     atom   35 type  2   force =    -0.00269512    0.00691119    0.00354076
     atom   36 type  3   force =    -0.00001182   -0.01148163    0.00781311
     The non-local contrib.  to forces
     atom    1 type  1   force =     0.00185396    0.03145003   -0.01425644
     atom    2 type  2   force =    -0.00793880   -0.00819701   -0.26068040
     atom    3 type  2   force =    -0.01001559   -0.00987484    0.26405657
     atom    4 type  1   force =    -0.00027588    0.00766893    0.00074070
     atom    5 type  2   force =     0.00854406   -0.03477052   -0.25380786
     atom    6 type  2   force =    -0.00314500    0.00180797    0.26569772
     atom    7 type  1   force =    -0.03522991    0.00442053   -0.01831142
     atom    8 type  2   force =     0.00980650   -0.01262828   -0.25644603
     atom    9 type  2   force =     0.00050114   -0.01134081    0.27618565
     atom   10 type  1   force =     0.00832450    0.00267245   -0.00471235
     atom   11 type  2   force =    -0.06477663    0.20783597    0.11840739
     atom   12 type  2   force =    -0.01302533   -0.01591045    0.26545355
     atom   13 type  1   force =     0.00041495    0.02818104   -0.00638966
     atom   14 type  2   force =     0.01096326   -0.00783482   -0.24601239
     atom   15 type  2   force =    -0.00901011   -0.00753244    0.26094772
     atom   16 type  1   force =     0.00724167    0.04247738   -0.01959369
     atom   17 type  2   force =     0.00058062   -0.03046047   -0.25175038
     atom   18 type  2   force =    -0.00515371   -0.00349473    0.26720527
     atom   19 type  1   force =     0.02474839   -0.00961374   -0.02035780
     atom   20 type  2   force =     0.00015485   -0.01972079    0.25722010
     atom   21 type  1   force =    -0.00375792    0.01550919    0.00167669
     atom   22 type  2   force =    -0.00082345    0.00431257   -0.25683536
     atom   23 type  2   force =     0.01063988   -0.01472227    0.26724041
     atom   24 type  1   force =     0.00374088    0.02242232   -0.00944026
     atom   25 type  2   force =     0.00258176   -0.00280037   -0.26465402
     atom   26 type  2   force =     0.00176806   -0.01428002    0.26618752
     atom   27 type  1   force =    -0.00047847    0.01229438    0.00705098
     atom   28 type  2   force =    -0.00388257   -0.02648408   -0.27018660
     atom   29 type  2   force =     0.00605662   -0.00042975    0.26139657
     atom   30 type  1   force =     0.00444935    0.01287627    0.01075991
     atom   31 type  2   force =    -0.00916906    0.00018868   -0.26181660
     atom   32 type  2   force =     0.00036144   -0.01148357    0.27262455
     atom   33 type  1   force =    -0.00120021    0.00647568    0.00415939
     atom   34 type  2   force =    -0.00823184   -0.01828842   -0.27350056
     atom   35 type  2   force =    -0.00046922   -0.00808722    0.26593431
     atom   36 type  3   force =     0.00904611   -0.03376544   -0.04363082
     The ionic contribution  to forces
     atom    1 type  1   force =     0.00391361    1.08492981    5.61059023
     atom    2 type  2   force =    -0.13145765    0.42532477   39.39602655
     atom    3 type  2   force =    -0.05723454    0.08761787  -36.40352074
     atom    4 type  1   force =    -0.14057561    0.73721057    0.87803678
     atom    5 type  2   force =    -0.97872819    1.57242281   38.57633104
     atom    6 type  2   force =     0.28435336   -0.52826192  -37.83683131
     atom    7 type  1   force =    -2.21053324   -2.83285071    1.63206243
     atom    8 type  2   force =    -1.06542932    0.02446235   37.45494426
     atom    9 type  2   force =     0.43887329   -0.12975877  -37.89419718
     atom   10 type  1   force =    -0.24442242   -0.47289300    4.72803739
     atom   11 type  2   force =    -0.31931736   -2.68716181   37.28933422
[...]
     atom   27 type  1   force =    -0.00048506    0.01147859    0.00387404
     atom   28 type  2   force =    -0.00195619   -0.01431479   -0.26960554
     atom   29 type  2   force =    -0.00021138   -0.01110557    0.26412425
     atom   30 type  1   force =     0.00553869    0.01356642    0.00745609
     atom   31 type  2   force =    -0.01139739    0.00367144   -0.26576415
     atom   32 type  2   force =     0.00331169   -0.01695879    0.26789393
     atom   33 type  1   force =     0.00041020    0.00511701    0.00230343
     atom   34 type  2   force =    -0.00852139   -0.00645216   -0.26490251
     atom   35 type  2   force =     0.00027835   -0.00925699    0.26658078
     atom   36 type  3   force =     0.00666672   -0.02136420   -0.05477469
     The ionic contribution  to forces
     atom    1 type  1   force =    -0.01903012    1.03120358    1.51744594
     atom    2 type  2   force =    -0.10688229    0.40920923   38.89563920
     atom    3 type  2   force =     0.10329718   -0.14602173  -37.69055771
     atom    4 type  1   force =    -0.62823523    1.15446319    0.90083789
     atom    5 type  2   force =    -0.86582038    1.45520594   38.06315203
     atom    6 type  2   force =     0.24646902   -0.02171358  -38.05639170
     atom    7 type  1   force =    -2.18035212   -2.79663081    3.77228893
     atom    8 type  2   force =    -1.30205198    0.01729329   38.04663094
     atom    9 type  2   force =     0.23210875    0.11613690  -37.37203006
     atom   10 type  1   force =    -0.06360779   -0.98560914    3.50928283
     atom   11 type  2   force =    -0.20952611   -2.24435812   36.83647112
     atom   12 type  2   force =     0.32169029    0.06178615  -37.63867037
     atom   13 type  1   force =     0.02366398    0.65172237    1.41217202
     atom   14 type  2   force =    -0.14880748    0.31001183   38.47086173
     atom   15 type  2   force =    -0.00209512   -0.12309175  -38.05761512
     atom   16 type  1   force =     0.75798548    3.92966831    0.65785145
     atom   17 type  2   force =     0.89849487    1.23893063   38.40974996
     atom   18 type  2   force =    -0.25585160   -0.15050470  -38.45443828
     atom   19 type  1   force =     2.38994944   -1.75304690    3.73481269
     atom   20 type  2   force =     0.14195338    0.06250564  -38.37079489
     atom   21 type  1   force =    -0.50106864   -0.83722459    0.21593073
     atom   22 type  2   force =     0.30304601   -1.55961075   38.41324953
     atom   23 type  2   force =    -0.24545462    0.00583229  -37.65441884
     atom   24 type  1   force =     0.03975443    0.45803723    1.86979971
     atom   25 type  2   force =     0.21021555    0.11301616   38.79829437
     atom   26 type  2   force =    -0.12144474   -0.24404464  -37.65539581
     atom   27 type  1   force =     0.02701355    0.92568860    0.29452865
     atom   28 type  2   force =    -0.05024015    0.61187687   38.32828755
     atom   29 type  2   force =    -0.07622452    0.08231116  -37.85465439
     atom   30 type  1   force =    -0.10572467   -0.87894162    2.69157535
     atom   31 type  2   force =     1.11966179    0.15688157   38.27447320
     atom   32 type  2   force =    -0.35236769    0.22342018  -37.60498641
     atom   33 type  1   force =     0.56558840   -0.82529678    3.04876316
     atom   34 type  2   force =     0.08368282   -0.65062076   38.97226374
     atom   35 type  2   force =    -0.05854672   -0.06536450  -37.31595389
     atom   36 type  3   force =    -0.17124298    0.26687925    8.59154478
     The local contribution  to forces
     atom    1 type  1   force =     0.01981515   -1.05747025   -1.51061037
     atom    2 type  2   force =     0.10935767   -0.39123835  -38.65854974
     atom    3 type  2   force =    -0.10089401    0.15768973   37.44308187
     atom    4 type  1   force =     0.62453702   -1.16041369   -0.90194559
     atom    5 type  2   force =     0.85778167   -1.43388612  -37.83136918
     atom    6 type  2   force =    -0.24287188    0.02971191   37.81141263
     atom    7 type  1   force =     2.21409930    2.79902708   -3.75457276
     atom    8 type  2   force =     1.29869865   -0.01656754  -37.80918563
     atom    9 type  2   force =    -0.22368241   -0.10229109   37.11892771
     atom   10 type  1   force =     0.05269380    0.97929703   -3.50379458
     atom   11 type  2   force =     0.24529101    2.11427474  -37.03696716
     atom   12 type  2   force =    -0.31438231   -0.05394073   37.38675674
     atom   13 type  1   force =    -0.02426626   -0.68083380   -1.41009546
     atom   14 type  2   force =     0.14547602   -0.29756115  -38.23788783
     atom   15 type  2   force =     0.00243677    0.13190035   37.81663154
     atom   16 type  1   force =    -0.76676259   -3.97353613   -0.64123372
     atom   17 type  2   force =    -0.89460291   -1.21400351  -38.17461486
     atom   18 type  2   force =     0.25739381    0.15738956   38.21375652
     atom   19 type  1   force =    -2.42334396    1.76285218   -3.70804238
     atom   20 type  2   force =    -0.14344309   -0.05000350   38.12868267
     atom   21 type  1   force =     0.50666121    0.81984967   -0.21316832
     atom   22 type  2   force =    -0.30251027    1.56034119  -38.17726907
     atom   23 type  2   force =     0.23423916    0.00150629   37.40708368
     atom   24 type  1   force =    -0.04171598   -0.48255242   -1.86876551
     atom   25 type  2   force =    -0.20929245   -0.10019411  -38.55454669
     atom   26 type  2   force =     0.11917619    0.25448945   37.40766649
     atom   27 type  1   force =    -0.02632156   -0.93734805   -0.29831831
     atom   28 type  2   force =     0.05188275   -0.59770693  -38.07994644
     atom   29 type  2   force =     0.07596387   -0.07129765   37.61120493
     atom   30 type  1   force =     0.10025799    0.86522152   -2.69998470
     atom   31 type  2   force =    -1.10967225   -0.15916780  -38.03038739
     atom   32 type  2   force =     0.34895666   -0.20871589   37.35807268
     atom   33 type  1   force =    -0.56609942    0.82027305   -3.05089284
     atom   34 type  2   force =    -0.07621532    0.65638675  -38.72757180
     atom   35 type  2   force =     0.05851366    0.07428661   37.07014957
     atom   36 type  3   force =     0.16525646   -0.24817569   -8.53645807
     The core correction contribution to forces
     atom    1 type  1   force =     0.00000000    0.00000000    0.00000000
     atom    2 type  2   force =     0.00018538    0.00129136    0.02027240
     atom    3 type  2   force =     0.00009833    0.00048900   -0.02102270
     atom    4 type  1   force =     0.00000000    0.00000000    0.00000000
     atom    5 type  2   force =    -0.00069405    0.00111162    0.02014147
     atom    6 type  2   force =     0.00024976    0.00017784   -0.02079573
     atom    7 type  1   force =     0.00000000    0.00000000    0.00000000
     atom    8 type  2   force =    -0.00021465    0.00003815    0.02032803
     atom    9 type  2   force =     0.00053849    0.00082202   -0.02101969
     atom   10 type  1   force =     0.00000000    0.00000000    0.00000000
     atom   11 type  2   force =     0.00256952   -0.00880416   -0.00748890
     atom   12 type  2   force =     0.00073949    0.00062952   -0.02116932
     atom   13 type  1   force =     0.00000000    0.00000000    0.00000000
     atom   14 type  2   force =    -0.00034089    0.00078191    0.02006555
     atom   15 type  2   force =     0.00003647    0.00044580   -0.02071589
     atom   16 type  1   force =     0.00000000    0.00000000    0.00000000
     atom   17 type  2   force =     0.00045592    0.00121751    0.02037235
     atom   18 type  2   force =    -0.00023829   -0.00006225   -0.02070062
     atom   19 type  1   force =     0.00000000    0.00000000    0.00000000
     atom   20 type  2   force =     0.00006406    0.00055694   -0.02114152
     atom   21 type  1   force =     0.00000000    0.00000000    0.00000000
     atom   22 type  2   force =    -0.00030515   -0.00018554    0.02007743
     atom   23 type  2   force =    -0.00086193    0.00037890   -0.02085407
     atom   24 type  1   force =     0.00000000    0.00000000    0.00000000
     atom   25 type  2   force =     0.00008980    0.00071170    0.02064478
     atom   26 type  2   force =    -0.00020088    0.00035227   -0.02093612
     atom   27 type  1   force =     0.00000000    0.00000000    0.00000000
     atom   28 type  2   force =     0.00014742    0.00093999    0.02096841
     atom   29 type  2   force =    -0.00003445    0.00038122   -0.02070062
     atom   30 type  1   force =     0.00000000    0.00000000    0.00000000
     atom   31 type  2   force =     0.00055364    0.00004118    0.02069967
     atom   32 type  2   force =    -0.00040883    0.00094310   -0.02080623
     atom   33 type  1   force =     0.00000000    0.00000000    0.00000000
     atom   34 type  2   force =     0.00057355    0.00019433    0.02072833
     atom   35 type  2   force =    -0.00008568    0.00054399   -0.02100169
     atom   36 type  3   force =     0.00000000    0.00000000    0.00000000
     The Hubbard contrib.    to forces
     atom    1 type  1   force =     0.00000000    0.00000000    0.00000000
     atom    2 type  2   force =     0.00000000    0.00000000    0.00000000
     atom    3 type  2   force =     0.00000000    0.00000000    0.00000000
     atom    4 type  1   force =     0.00000000    0.00000000    0.00000000
     atom    5 type  2   force =     0.00000000    0.00000000    0.00000000
     atom    6 type  2   force =     0.00000000    0.00000000    0.00000000
     atom    7 type  1   force =     0.00000000    0.00000000    0.00000000
     atom    8 type  2   force =     0.00000000    0.00000000    0.00000000
     atom    9 type  2   force =     0.00000000    0.00000000    0.00000000
     atom   10 type  1   force =     0.00000000    0.00000000    0.00000000
     atom   11 type  2   force =     0.00000000    0.00000000    0.00000000
     atom   12 type  2   force =     0.00000000    0.00000000    0.00000000
     atom   13 type  1   force =     0.00000000    0.00000000    0.00000000
     atom   14 type  2   force =     0.00000000    0.00000000    0.00000000
     atom   15 type  2   force =     0.00000000    0.00000000    0.00000000
     atom   16 type  1   force =     0.00000000    0.00000000    0.00000000
     atom   17 type  2   force =     0.00000000    0.00000000    0.00000000
     atom   18 type  2   force =     0.00000000    0.00000000    0.00000000
     atom   19 type  1   force =     0.00000000    0.00000000    0.00000000
     atom   20 type  2   force =     0.00000000    0.00000000    0.00000000
     atom   21 type  1   force =     0.00000000    0.00000000    0.00000000
     atom   22 type  2   force =     0.00000000    0.00000000    0.00000000
     atom   23 type  2   force =     0.00000000    0.00000000    0.00000000
     atom   24 type  1   force =     0.00000000    0.00000000    0.00000000
     atom   25 type  2   force =     0.00000000    0.00000000    0.00000000
     atom   26 type  2   force =     0.00000000    0.00000000    0.00000000
     atom   27 type  1   force =     0.00000000    0.00000000    0.00000000
     atom   28 type  2   force =     0.00000000    0.00000000    0.00000000
     atom   29 type  2   force =     0.00000000    0.00000000    0.00000000
     atom   30 type  1   force =     0.00000000    0.00000000    0.00000000
     atom   31 type  2   force =     0.00000000    0.00000000    0.00000000
     atom   32 type  2   force =     0.00000000    0.00000000    0.00000000
     atom   33 type  1   force =     0.00000000    0.00000000    0.00000000
     atom   34 type  2   force =     0.00000000    0.00000000    0.00000000
     atom   35 type  2   force =     0.00000000    0.00000000    0.00000000
     atom   36 type  3   force =     0.00000000    0.00000000    0.00000000
     The SCF correction term to forces
     atom    1 type  1   force =    -0.00000201   -0.00005363    0.00004732
     atom    2 type  2   force =    -0.00001076   -0.00003792    0.00003065
     atom    3 type  2   force =    -0.00000575   -0.00002551    0.00000363
     atom    4 type  1   force =    -0.00002352    0.00006081    0.00004340
     atom    5 type  2   force =    -0.00000218    0.00001786    0.00002604
     atom    6 type  2   force =    -0.00000113    0.00001278    0.00000141
     atom    7 type  1   force =     0.00000215    0.00005281    0.00007027
     atom    8 type  2   force =    -0.00001366    0.00003634    0.00003277
     atom    9 type  2   force =    -0.00000268    0.00001958    0.00001038
     atom   10 type  1   force =    -0.00004695   -0.00006618    0.00007523
     atom   11 type  2   force =    -0.00000493    0.00000069    0.00003031
     atom   12 type  2   force =    -0.00000938   -0.00000255    0.00002797
     atom   13 type  1   force =     0.00003763   -0.00005100    0.00003694
     atom   14 type  2   force =     0.00000787   -0.00004367    0.00002183
     atom   15 type  2   force =     0.00000095   -0.00003248    0.00000949
     atom   16 type  1   force =     0.00002150    0.00004560    0.00003765
     atom   17 type  2   force =     0.00001313    0.00001133    0.00002753
     atom   18 type  2   force =     0.00001220    0.00000815    0.00000323
     atom   19 type  1   force =     0.00003499    0.00007980    0.00005414
     atom   20 type  2   force =     0.00001043    0.00001577    0.00000671
     atom   21 type  1   force =     0.00003752   -0.00006130    0.00006858
     atom   22 type  2   force =     0.00002753   -0.00000444    0.00002222
     atom   23 type  2   force =     0.00001601   -0.00000344    0.00001456
     atom   24 type  1   force =    -0.00002296   -0.00004415    0.00003519
     atom   25 type  2   force =     0.00000295   -0.00003148    0.00003005
     atom   26 type  2   force =     0.00000222   -0.00002835   -0.00000133
     atom   27 type  1   force =     0.00000193    0.00003802    0.00003890
     atom   28 type  2   force =    -0.00001005    0.00001152    0.00002962
     atom   29 type  2   force =    -0.00000980    0.00000858   -0.00000157
     atom   30 type  1   force =    -0.00004235    0.00005726    0.00005611
     atom   31 type  2   force =    -0.00000498    0.00002638    0.00003268
     atom   32 type  2   force =    -0.00000637    0.00002168   -0.00000098
     atom   33 type  1   force =     0.00000166   -0.00004518    0.00005502
     atom   34 type  2   force =    -0.00001738   -0.00001151    0.00002814
     atom   35 type  2   force =    -0.00000497   -0.00000839    0.00001292
     atom   36 type  3   force =     0.00000047   -0.00000345   -0.00000180

     Total force =     0.006816     Total SCF correction =     0.000324
     Energy error            =      9.1E-05 Ry
     Gradient error          =      2.7E-03 Ry/Bohr

     bfgs converged in  20 scf cycles and  19 bfgs steps
     (criteria: energy <  1.0E-04 Ry, force <  1.0E-02 Ry/Bohr)

     End of BFGS Geometry Optimization

     Final energy             =   -2205.5966838277 Ry

     File ./MoS2-V-O.bfgs deleted, as requested
Begin final coordinates

ATOMIC_POSITIONS (angstrom)
Mo            6.5602593929        1.7568156407        2.7399754607
S             8.1416756097        0.8826868765        4.3696663239
S             8.1463841386        0.8405409394        1.1678320017
Mo            8.1278585171        4.4840440961        2.7170043265
S             6.5055833330        3.6605045816        4.2884575560
S             6.5678636268        3.5687901624        1.1022130100
Mo            6.4968602525        7.2183214936        2.6925079235
S             8.0833269289        6.2988566247        4.3075682181
S             8.1278313342        6.3333513211        1.1359206515
Mo            8.1545866011        9.9653946746        2.7905097436
S             6.5176634012        9.0268145060        4.3102861847
S             6.5993279845        9.0518211265        1.1524949829
Mo            3.4201267384        1.7617366230        2.7361963412
S             4.9827984091        0.8497966195        4.3306072214
S             4.9929447638        0.8451442418        1.1348038876
Mo            4.9630593152        4.5086185714        2.6337292844
S             3.4479400905        3.6586082110        4.3019944746
S             3.4100270095        3.5607755630        1.0870253403
Mo            3.4955661654        7.1670982459        2.6912914190
S             5.0153087286        6.3156301399        1.0625921300
Mo            4.9892468434        9.9475911387        2.7256254477
S             3.4713910414        8.9599772924        4.3342737546
S             3.4021125822        9.0222885916        1.1393976445
Mo            0.2692921364        1.7541659251        2.7581262002
S             1.8575416149        0.8603723937        4.3588287561
S             1.8398933122        0.8337887278        1.1649969163
Mo            1.8544239620        4.4917091016        2.7075493996
S             0.2693628908        3.6067924152        4.3178871099
S             0.2607453626        3.5685561002        1.1339720322
Mo            0.2653115901        7.2236568691        2.7554696201
S             1.9146530304        6.2925362094        4.3146849597
S             1.8532733550        6.3384885009        1.1289066369
Mo            1.8538849198        9.9374604081        2.7754594600
S             0.2866985096        9.0339152828        4.3750603351
S             0.2664640487        9.0491790539        1.1874841535
H             6.3655661384        9.5196959192        5.5959239114
End final coordinates



     Writing all to output data dir ./MoS2-V-O.save/
 
     init_run     :      3.06s CPU      3.35s WALL (       1 calls)
     electrons    :   1758.31s CPU   1967.70s WALL (      20 calls)
     update_pot   :     27.01s CPU     28.42s WALL (      19 calls)
     forces       :     27.94s CPU     32.79s WALL (      20 calls)

     Called by init_run:
     wfcinit      :      0.37s CPU      0.43s WALL (       1 calls)
     potinit      :      2.01s CPU      2.14s WALL (       1 calls)
     hinit0       :      0.16s CPU      0.18s WALL (       1 calls)

     Called by electrons:
     c_bands      :    234.08s CPU    238.52s WALL (     172 calls)
     sum_band     :     51.25s CPU     69.47s WALL (     172 calls)
     v_of_rho     :     73.87s CPU     91.04s WALL (     177 calls)
     newd         :     25.50s CPU     42.71s WALL (     177 calls)
     mix_rho      :   1383.07s CPU   1535.96s WALL (     172 calls)

     Called by c_bands:
     init_us_2    :      3.66s CPU      3.94s WALL (     345 calls)
     init_us_2:cp :      3.66s CPU      3.94s WALL (     345 calls)
     regterg      :    221.16s CPU    225.32s WALL (     172 calls)

     Called by *egterg:
     rdiaghg      :     15.83s CPU     16.04s WALL (     903 calls)
     h_psi        :    118.46s CPU    119.64s WALL (     938 calls)
     s_psi        :     14.03s CPU     14.10s WALL (     938 calls)
     g_psi        :      1.74s CPU      1.75s WALL (     765 calls)

     Called by h_psi:
     h_psi:calbec :     16.22s CPU     16.35s WALL (     938 calls)
     vloc_psi     :     84.49s CPU     85.40s WALL (     938 calls)
     add_vuspsi   :     14.33s CPU     14.45s WALL (     938 calls)

     General routines
     calbec       :     23.18s CPU     23.35s WALL (    1190 calls)
     fft          :     48.84s CPU     57.13s WALL (   11971 calls)
     ffts         :    622.54s CPU    770.15s WALL (  338584 calls)
     fftw         :     72.25s CPU     72.92s WALL (  104430 calls)
     interpolate  :      1.26s CPU      1.53s WALL (     177 calls)
 
     Parallel routines
 
     PWSCF        :  30m20.12s CPU  33m59.07s WALL

 
   This run was terminated on:  10:26:57   4Nov2023            

=------------------------------------------------------------------------------=
   JOB DONE.
=------------------------------------------------------------------------------=
