
     Program PWSCF v.7.2 starts on  4Nov2023 at  9:20:52 

     This program is part of the open-source Quantum ESPRESSO suite
     for quantum simulation of materials; please cite
         "P. Giannozzi et al., J. Phys.:Condens. Matter 21 395502 (2009);
         "P. Giannozzi et al., J. Phys.:Condens. Matter 29 465901 (2017);
         "P. Giannozzi et al., J. Chem. Phys. 152 154105 (2020);
          URL http://www.quantum-espresso.org", 
     in publications or presentations arising from this work. More details at
     http://www.quantum-espresso.org/quote

     Parallel version (MPI & OpenMP), running on      48 processor cores
     Number of MPI processes:                48
     Threads/MPI process:                     1

     MPI processes distributed on     1 nodes
     63598 MiB available memory on the printing compute node when the environment starts
 
     Waiting for input...
     Reading input from standard input
Warning: card &CELL ignored
Warning: card CELL_DYNAMICS = 'BFGS', ignored
Warning: card CELL_DOFREE = '2DXY' ignored
Warning: card / ignored

     Current dimensions of program PWSCF are:
     Max number of different atomic species (ntypx) = 10
     Max number of k-points (npk) =  40000
     Max angular momentum in pseudopotentials (lmaxx) =  4

     IMPORTANT: XC functional enforced from input :
     Exchange-correlation= RVV10
                           (   1   4  13   4  26   0   0)
     Any further DFT definition will be discarded
     Please, verify this is what you really want


     gamma-point specific algorithms are used
     signal trapping enabled: kill the code with -SIGUSR1 to stop cleanly the simulation 
 
     R & G space division:  proc/nbgrp/npool/nimage =      48
     Subspace diagonalization in iterative solution of the eigenvalue problem:
     one sub-group per band group will be used
     scalapack distributed-memory algorithm (size of sub-group:  2*  2 procs)

 
     Parallelization info
     --------------------
     sticks:   dense  smooth     PW     G-vecs:    dense   smooth      PW
     Min         243     194     47                49060    35090    4376
     Max         246     196     50                49086    35128    4410
     Sum       11735    9389   2349              2355467  1685513  210763
 
     Using Slab Decomposition
 


     bravais-lattice index     =            0
     lattice parameter (alat)  =      17.8707  a.u.
     unit-cell volume          =   17436.2743 (a.u.)^3
     number of atoms/cell      =           36
     number of atomic types    =            3
     number of electrons       =       307.00
     number of Kohn-Sham states=          185
     kinetic-energy cutoff     =      80.0000  Ry
     charge density cutoff     =     400.0000  Ry
     scf convergence threshold =      1.0E-06
     mixing beta               =       0.7000
     number of iterations used =            8  local-TF  mixing
     energy convergence thresh.=      1.0E-04
     force convergence thresh. =      1.0E-02
     Exchange-correlation= RVV10
                           (   1   4  13   4  26   0   0)
     nstep                     =          200


     celldm(1)=  17.870686  celldm(2)=   0.000000  celldm(3)=   0.000000
     celldm(4)=   0.000000  celldm(5)=   0.000000  celldm(6)=   0.000000

     crystal axes: (cart. coord. in units of alat)
               a(1) = (   1.000000   0.000000   0.000000 )  
               a(2) = (   0.000000   1.155671   0.000000 )  
               a(3) = (   0.000000   0.000000   2.643601 )  

     reciprocal axes: (cart. coord. in units 2 pi/alat)
               b(1) = (  1.000000  0.000000  0.000000 )  
               b(2) = (  0.000000  0.865298  0.000000 )  
               b(3) = (  0.000000  0.000000  0.378272 )  


     PseudoPot. # 1 for Mo read from file:
     ../pseudo/Mo_ONCV_PBE-1.0.oncvpsp.upf
     MD5 check sum: 1b5d28e075c9ccadda658a603575cd1f
     Pseudo is Norm-conserving, Zval = 14.0
     Generated using ONCVPSP code by D. R. Hamann
     Using radial grid of 1526 points,  6 beta functions with: 
                l(1) =   0
                l(2) =   0
                l(3) =   1
                l(4) =   1
                l(5) =   2
                l(6) =   2

     PseudoPot. # 2 for S  read from file:
     ../pseudo/s_pbe_v1.4.uspp.F.UPF
     MD5 check sum: 88d86576ff6df21479756cfb9bdac1df
     Pseudo is Ultrasoft + core correction, Zval =  6.0
     Generated by new atomic code, or converted to UPF format
     Using radial grid of  907 points,  6 beta functions with: 
                l(1) =   0
                l(2) =   0
                l(3) =   1
                l(4) =   1
                l(5) =   2
                l(6) =   2
     Q(r) pseudized with  8 coefficients,  rinner =    1.300   1.300   1.300
                                                       1.300   1.300

     PseudoPot. # 3 for H  read from file:
     ../pseudo/H_ONCV_PBE-1.0.oncvpsp.upf
     MD5 check sum: 1790becc920ee074925cf490c71280fe
     Pseudo is Norm-conserving, Zval =  1.0
     Generated using ONCVPSP code by D. R. Hamann
     Using radial grid of 1166 points,  2 beta functions with: 
                l(1) =   0
                l(2) =   0

     atomic species   valence    mass     pseudopotential
        Mo            14.00    95.94000     Mo( 1.00)
        S              6.00    32.06500     S ( 1.00)
        H              1.00     1.00794     H ( 1.00)

     No symmetry found



   Cartesian axes

     site n.     atom                  positions (alat units)
         1           Mo  tau(   1) = (   0.6952221   0.1890506   0.2985846  )
         2           S   tau(   2) = (   0.8646417   0.0856217   0.4689279  )
         3           S   tau(   3) = (   0.8663890   0.0857843   0.1351291  )
         4           Mo  tau(   4) = (   0.8560186   0.4753274   0.2873942  )
         5           S   tau(   5) = (   0.6873294   0.3936244   0.4596353  )
         6           S   tau(   6) = (   0.6929804   0.3713468   0.1185692  )
         7           Mo  tau(   7) = (   0.6862796   0.7633098   0.2825370  )
         8           S   tau(   8) = (   0.8545980   0.6708292   0.4486168  )
         9           S   tau(   9) = (   0.8545123   0.6666874   0.1146125  )
        10           Mo  tau(  10) = (   0.8629403   1.0471007   0.3006803  )
        11           S   tau(  11) = (   0.6868280   0.9456650   0.4634891  )
        12           S   tau(  12) = (   0.6998113   0.9568511   0.1205389  )
        13           Mo  tau(  13) = (   0.3618216   0.1847309   0.2935964  )
        14           S   tau(  14) = (   0.5260962   0.0863870   0.4600448  )
        15           S   tau(  15) = (   0.5348379   0.0894875   0.1297123  )
        16           Mo  tau(  16) = (   0.5265817   0.4772436   0.2784130  )
        17           S   tau(  17) = (   0.3624753   0.3882513   0.4525556  )
        18           S   tau(  18) = (   0.3635411   0.3752055   0.1119148  )
        19           Mo  tau(  19) = (   0.3652268   0.7630864   0.2781795  )
        20           S   tau(  20) = (   0.5269494   0.6690381   0.1096838  )
        21           Mo  tau(  21) = (   0.5300192   1.0470394   0.2900995  )
        22           S   tau(  22) = (   0.3670346   0.9457522   0.4574073  )
        23           S   tau(  23) = (   0.3604225   0.9585725   0.1159032  )
        24           Mo  tau(  24) = (   0.0313099   0.1847895   0.3013130  )
        25           S   tau(  25) = (   0.1956761   0.0838230   0.4650863  )
        26           S   tau(  26) = (   0.1967693   0.0903508   0.1278874  )
        27           Mo  tau(  27) = (   0.1967578   0.4753919   0.2813011  )
        28           S   tau(  28) = (   0.0287851   0.3864324   0.4586755  )
        29           S   tau(  29) = (   0.0244514   0.3729871   0.1239344  )
        30           Mo  tau(  30) = (   0.0286728   0.7631204   0.2856894  )
        31           S   tau(  31) = (   0.2011512   0.6675435   0.4465001  )
        32           S   tau(  32) = (   0.1969214   0.6672839   0.1104564  )
        33           Mo  tau(  33) = (   0.1950294   1.0511147   0.2932237  )
        34           S   tau(  34) = (   0.0312912   0.9612169   0.4667423  )
        35           S   tau(  35) = (   0.0292670   0.9563028   0.1216485  )
        36           H   tau(  36) = (   0.4444444   1.0272628   0.5792558  )

     number of k points=     1  Gaussian smearing, width (Ry)=  0.0100
                       cart. coord. in units 2pi/alat
        k(    1) = (   0.0000000   0.0000000   0.0000000), wk =   2.0000000

     Dense  grid:  1177734 G-vectors     FFT dimensions: ( 120, 135, 320)

     Smooth grid:   842757 G-vectors     FFT dimensions: ( 108, 120, 270)

     Estimated max dynamical RAM per process >     146.59 MB

     Estimated total dynamical RAM >       6.87 GB

     Initial potential from superposition of free atoms

     starting charge     306.9873, renormalised to     307.0000

     negative rho (up, down):  1.404E-04 0.000E+00


---------------------------------------------------------------------------------
Carrying out rVV10 run using the following parameters:
Nqs =      20    Nr_points =    1024   r_max =   100.000
b_value =  6.30000    beta =  0.00901
     q_mesh =  0.00010000  0.00030000  0.00058939  0.00100810
               0.00161396  0.00249058  0.00375900  0.00559430
               0.00824984  0.01209221  0.01765183  0.02569619
               0.03733578  0.05417739  0.07854596  0.11380545
               0.16482331  0.23864234  0.34545298  0.50000000

Gradients computed in Reciprocal space

---------------------------------------------------------------------------------


     Starting wfcs are  213 randomized atomic wfcs

     total cpu time spent up to now is        2.8 secs

     Self-consistent Calculation

     iteration #  1     ecut=    80.00 Ry     beta= 0.70
     Davidson diagonalization with overlap
     ethr =  1.00E-02,  avg # of iterations =  2.0

     Threshold (ethr) on eigenvalues was too large:
     Diagonalizing with lowered threshold

     Davidson diagonalization with overlap
     ethr =  3.75E-04,  avg # of iterations =  4.0

     negative rho (up, down):  2.291E-08 0.000E+00

     total cpu time spent up to now is       30.1 secs

     total energy              =   -2205.62464589 Ry
     estimated scf accuracy    <       1.43819504 Ry

     iteration #  2     ecut=    80.00 Ry     beta= 0.70
     Davidson diagonalization with overlap
     ethr =  4.68E-04,  avg # of iterations =  2.0

     total cpu time spent up to now is       32.6 secs

     total energy              =   -2205.44729222 Ry
     estimated scf accuracy    <       0.58950276 Ry

     iteration #  3     ecut=    80.00 Ry     beta= 0.70
     Davidson diagonalization with overlap
     ethr =  1.92E-04,  avg # of iterations =  5.0

     total cpu time spent up to now is       35.2 secs

     total energy              =   -2205.55190192 Ry
     estimated scf accuracy    <       0.04865529 Ry

     iteration #  4     ecut=    80.00 Ry     beta= 0.70
     Davidson diagonalization with overlap
     c_bands:  1 eigenvalues not converged
     ethr =  1.58E-05,  avg # of iterations = 20.0

     total cpu time spent up to now is       38.6 secs

     total energy              =   -2205.55280720 Ry
     estimated scf accuracy    <       0.02614600 Ry

     iteration #  5     ecut=    80.00 Ry     beta= 0.70
     Davidson diagonalization with overlap
     ethr =  8.52E-06,  avg # of iterations = 10.0

     total cpu time spent up to now is       41.1 secs

     total energy              =   -2205.55285165 Ry
     estimated scf accuracy    <       0.01990804 Ry

     iteration #  6     ecut=    80.00 Ry     beta= 0.70
     Davidson diagonalization with overlap
     ethr =  6.48E-06,  avg # of iterations =  1.0

     total cpu time spent up to now is       43.3 secs

     total energy              =   -2205.55124744 Ry
     estimated scf accuracy    <       0.01266534 Ry

     iteration #  7     ecut=    80.00 Ry     beta= 0.70
     Davidson diagonalization with overlap
     ethr =  4.13E-06,  avg # of iterations =  2.0

     negative rho (up, down):  1.199E-04 0.000E+00

     total cpu time spent up to now is       48.7 secs

     total energy              =   -2205.54993038 Ry
     estimated scf accuracy    <       0.00627213 Ry

     iteration #  8     ecut=    80.00 Ry     beta= 0.70
     Davidson diagonalization with overlap
     ethr =  2.04E-06,  avg # of iterations =  2.0

     negative rho (up, down):  1.323E-02 0.000E+00

     total cpu time spent up to now is       53.0 secs

     total energy              =   -2205.54955609 Ry
     estimated scf accuracy    <       0.00331644 Ry

     iteration #  9     ecut=    80.00 Ry     beta= 0.70
     Davidson diagonalization with overlap
     ethr =  1.08E-06,  avg # of iterations =  2.0

     negative rho (up, down):  3.409E-02 0.000E+00

     total cpu time spent up to now is       57.5 secs

     total energy              =   -2205.54959954 Ry
     estimated scf accuracy    <       0.00180424 Ry

     iteration # 10     ecut=    80.00 Ry     beta= 0.70
     Davidson diagonalization with overlap
     ethr =  5.88E-07,  avg # of iterations =  2.0

     negative rho (up, down):  2.321E-02 0.000E+00

     total cpu time spent up to now is       62.2 secs

     total energy              =   -2205.54962130 Ry
     estimated scf accuracy    <       0.00056818 Ry

     iteration # 11     ecut=    80.00 Ry     beta= 0.70
     Davidson diagonalization with overlap
     ethr =  1.85E-07,  avg # of iterations =  2.0

     negative rho (up, down):  8.330E-03 0.000E+00

     total cpu time spent up to now is       67.3 secs

     total energy              =   -2205.54967897 Ry
     estimated scf accuracy    <       0.00009931 Ry

     iteration # 12     ecut=    80.00 Ry     beta= 0.70
     Davidson diagonalization with overlap
     ethr =  3.23E-08,  avg # of iterations =  8.0

     negative rho (up, down):  1.622E-03 0.000E+00

     total cpu time spent up to now is       74.8 secs

     total energy              =   -2205.54971715 Ry
     estimated scf accuracy    <       0.00001296 Ry

     iteration # 13     ecut=    80.00 Ry     beta= 0.70
     Davidson diagonalization with overlap
     ethr =  4.22E-09,  avg # of iterations = 15.0

     negative rho (up, down):  4.321E-04 0.000E+00

     total cpu time spent up to now is       83.6 secs

     total energy              =   -2205.54972256 Ry
     estimated scf accuracy    <       0.00000302 Ry

     iteration # 14     ecut=    80.00 Ry     beta= 0.70
     Davidson diagonalization with overlap
     ethr =  9.84E-10,  avg # of iterations =  4.0

     negative rho (up, down):  1.367E-04 0.000E+00

     total cpu time spent up to now is       85.7 secs

     End of self-consistent calculation

          k = 0.0000 0.0000 0.0000 (105382 PWs)   bands (ev):

   -62.8726 -62.8440 -62.8278 -62.8171 -62.8045 -62.7998 -62.7906 -62.7830
   -62.7819 -62.7560 -62.6837 -62.5756 -37.1890 -37.1344 -37.1263 -37.1137
   -37.0978 -37.0961 -37.0743 -37.0489 -37.0385 -37.0289 -37.0164 -37.0037
   -36.9995 -36.9961 -36.9861 -36.9830 -36.9816 -36.9738 -36.9630 -36.9557
   -36.9391 -36.9187 -36.9141 -36.9016 -36.8901 -36.8771 -36.8737 -36.8685
   -36.8642 -36.8304 -36.8180 -36.7881 -36.7482 -36.7209 -36.6530 -36.6026
   -16.0751 -15.5021 -15.0968 -15.0438 -14.9133 -14.8257 -14.6396 -14.4594
   -14.4197 -14.3918 -14.3590 -14.3244 -14.3118 -14.2680 -14.1336 -14.0991
   -14.0786 -14.0677 -13.9947 -13.8660 -13.8130 -13.7979 -13.7601  -8.4498
    -7.6272  -7.3819  -7.2730  -7.2618  -7.2396  -7.1868  -7.0919  -7.0401
    -6.8129  -6.7437  -6.7217  -6.6650  -6.5232  -6.4832  -6.4568  -6.3893
    -6.2945  -6.2325  -6.2194  -5.9273  -5.9035  -5.8742  -5.7951  -5.7591
    -5.7483  -5.6926  -5.6607  -5.6208  -5.5813  -5.5292  -5.4919  -5.4316
    -5.4210  -5.3381  -5.1915  -5.1290  -5.0279  -5.0177  -4.9512  -4.9160
    -4.8606  -4.8126  -4.6732  -4.5024  -4.4037  -4.3134  -4.2706  -4.2283
    -4.1858  -4.0386  -3.9783  -3.8365  -3.8030  -3.7649  -3.7066  -3.6623
    -3.6303  -3.5371  -3.5076  -3.4608  -3.4562  -3.4297  -3.4094  -3.3512
    -3.3290  -3.1759  -3.1361  -2.9525  -2.8788  -2.7903  -2.7533  -2.7246
    -2.6822  -2.6403  -2.6248  -2.5963  -2.5199  -2.2288  -2.0127  -1.9647
    -1.9185  -1.0080  -0.7013  -0.4607  -0.1345  -0.1175  -0.0533   0.0050
     0.1262   0.1349   0.1890   0.2302   0.2615   0.2898   0.4413   0.4829
     0.4960   0.5573   0.5931   0.6011   0.7027   0.7061   0.7409   0.7695
     0.7895   0.8030   0.8892   0.8970   0.9749   0.9953   1.0688   1.3431
     1.3903

     the Fermi energy is    -1.0081 ev

!    total energy              =   -2205.54972446 Ry
     estimated scf accuracy    <       0.00000084 Ry
     smearing contrib. (-TS)   =      -0.00567680 Ry
     internal energy E=F+TS    =   -2205.54404766 Ry

     The total energy is F=E-TS. E is the sum of the following terms:
     one-electron contribution =  -18044.46761302 Ry
     hartree contribution      =    9009.28855748 Ry
     xc contribution           =    -385.27581782 Ry
     ewald contribution        =    7214.91082570 Ry

     convergence has been achieved in  14 iterations

     negative rho (up, down):  1.367E-04 0.000E+00

     Forces acting on atoms (cartesian axes, Ry/au):

     atom    1 type  1   force =     0.01459398   -0.02563785    0.00541143
     atom    2 type  2   force =    -0.01358850    0.01815482    0.00075473
     atom    3 type  2   force =    -0.01189290    0.00926933   -0.00364143
     atom    4 type  1   force =     0.01009975   -0.00368212    0.00070172
     atom    5 type  2   force =    -0.00109830   -0.00463619   -0.00607814
     atom    6 type  2   force =     0.00047815    0.01106195    0.00198649
     atom    7 type  1   force =    -0.00683620   -0.00599485   -0.01376230
     atom    8 type  2   force =     0.00180902   -0.00505601    0.01633365
     atom    9 type  2   force =     0.01253372    0.00449429    0.01099847
     atom   10 type  1   force =    -0.01113360    0.00831922   -0.02367939
     atom   11 type  2   force =     0.00385913   -0.00126663   -0.00334849
     atom   12 type  2   force =    -0.00068025   -0.00013652    0.00536153
     atom   13 type  1   force =     0.00636575    0.00240441   -0.00751417
     atom   14 type  2   force =     0.00889612   -0.00022685    0.01211588
     atom   15 type  2   force =    -0.01205873    0.00198900   -0.01115899
     atom   16 type  1   force =     0.00458601    0.00136654   -0.00229336
     atom   17 type  2   force =     0.00560332    0.00154947    0.00139325
     atom   18 type  2   force =    -0.00498067   -0.00563383    0.01557861
     atom   19 type  1   force =     0.01958949   -0.01023712   -0.01093602
     atom   20 type  2   force =     0.00179067   -0.00456625    0.00400596
     atom   21 type  1   force =     0.00129320    0.01159898   -0.02375872
     atom   22 type  2   force =     0.02580694    0.03719247    0.05273832
     atom   23 type  2   force =    -0.00057644    0.00086851    0.00865504
     atom   24 type  1   force =    -0.01141426    0.00089323   -0.02044351
     atom   25 type  2   force =     0.01320681    0.02112559    0.00749655
     atom   26 type  2   force =    -0.01080399   -0.00216479   -0.00458606
     atom   27 type  1   force =    -0.00628892   -0.00902819    0.00808410
     atom   28 type  2   force =     0.00057776   -0.00034155   -0.00536116
     atom   29 type  2   force =     0.00292521    0.00103249   -0.00327566
     atom   30 type  1   force =    -0.00211847    0.01422185   -0.00191720
     atom   31 type  2   force =    -0.00359247   -0.00433543    0.01340897
     atom   32 type  2   force =    -0.00658791    0.00441799    0.00685447
     atom   33 type  1   force =     0.01675408    0.00242155    0.00083764
     atom   34 type  2   force =    -0.00202897   -0.04334517   -0.01119003
     atom   35 type  2   force =    -0.00855875    0.00684201    0.01383564
     atom   36 type  3   force =    -0.03652979   -0.03293436   -0.03360784
     The non-local contrib.  to forces
     atom    1 type  1   force =    -0.00132558    0.03820627   -0.01385317
     atom    2 type  2   force =    -0.00938005    0.00126259   -0.26930178
     atom    3 type  2   force =    -0.01483601   -0.00419881    0.27137261
     atom    4 type  1   force =    -0.00126185    0.00971420    0.00451064
     atom    5 type  2   force =     0.00567283   -0.03425916   -0.25429367
     atom    6 type  2   force =    -0.00133426    0.01006209    0.26177874
     atom    7 type  1   force =    -0.02261275   -0.00556385   -0.01821044
     atom    8 type  2   force =     0.00662716   -0.00570849   -0.25664856
     atom    9 type  2   force =     0.00781478   -0.00842842    0.27628181
     atom   10 type  1   force =     0.00293964    0.00277310   -0.00195176
     atom   11 type  2   force =     0.01343211    0.00827756   -0.24634104
     atom   12 type  2   force =    -0.01358391   -0.01316044    0.26443868
     atom   13 type  1   force =    -0.00000950    0.02492115   -0.00818646
     atom   14 type  2   force =     0.00590069   -0.00772366   -0.23381468
     atom   15 type  2   force =    -0.01287382   -0.00675587    0.26273996
     atom   16 type  1   force =    -0.00333259    0.03682229   -0.01949003
     atom   17 type  2   force =     0.00195372   -0.02940410   -0.24953416
     atom   18 type  2   force =    -0.00384336   -0.00613141    0.27382144
     atom   19 type  1   force =     0.02435599    0.01065704   -0.00900215
     atom   20 type  2   force =    -0.00330076   -0.01669971    0.26698034
     atom   21 type  1   force =     0.00835184    0.01734252    0.00575960
     atom   22 type  2   force =     0.16458451    0.18548219    0.07635250
     atom   23 type  2   force =     0.00738314   -0.01140405    0.27195204
     atom   24 type  1   force =     0.00492772    0.02019774   -0.00987492
     atom   25 type  2   force =     0.01156329    0.00273521   -0.25677995
     atom   26 type  2   force =    -0.00149986   -0.01874109    0.26442584
     atom   27 type  1   force =    -0.00015817    0.01184860    0.00767635
     atom   28 type  2   force =    -0.00332407   -0.02530921   -0.27184269
     atom   29 type  2   force =     0.00776228    0.00293535    0.26132457
     atom   30 type  1   force =    -0.00556574    0.00989242    0.01178148
     atom   31 type  2   force =    -0.01673202   -0.00648388   -0.24866647
     atom   32 type  2   force =    -0.00127070   -0.01168387    0.27435230
     atom   33 type  1   force =    -0.00567081    0.00857073   -0.00528700
     atom   34 type  2   force =    -0.00261275   -0.04070045   -0.27081923
     atom   35 type  2   force =    -0.00201129   -0.00895784    0.27211287
     atom   36 type  3   force =    -0.01665483   -0.01688097   -0.02551633
     The ionic contribution  to forces
     atom    1 type  1   force =     0.50458326    0.39962895    5.59679655
     atom    2 type  2   force =    -0.60702140    0.47490491   39.26064876
     atom    3 type  2   force =    -0.15102952    0.03909129  -36.09946338
     atom    4 type  1   force =     0.11533647    0.56933064    0.67960050
     atom    5 type  2   force =    -0.93532484    1.52415365   38.74369543
     atom    6 type  2   force =     0.35665195   -0.48885416  -38.02225370
     atom    7 type  1   force =    -2.47442401   -2.95790677    2.42070059
     atom    8 type  2   force =    -0.95456404   -0.02999201   37.38048700
     atom    9 type  2   force =     0.35005024   -0.05575495  -38.00241059
     atom   10 type  1   force =    -0.98948446   -0.30020891    5.54649689
     atom   11 type  2   force =    -0.19615497   -1.73794965   38.96816367
     atom   12 type  2   force =     0.47868266    0.67954393  -37.90775597
     atom   13 type  1   force =     0.41152769    1.25078059    2.65782693
     atom   14 type  2   force =     0.22438987    0.43491604   38.28754956
     atom   15 type  2   force =     0.17481441   -0.01785668  -36.86824181
     atom   16 type  1   force =     0.00085084    3.92375609    0.45264379
     atom   17 type  2   force =     0.79497193    1.54296622   37.92076331
     atom   18 type  2   force =    -0.16627324   -0.63228880  -38.56872095
     atom   19 type  1   force =     2.63855703   -2.72219857    0.38737879
     atom   20 type  2   force =     0.23759531   -0.23147162  -38.50091048
     atom   21 type  1   force =     0.28286196    0.11145793    0.37737058
     atom   22 type  2   force =    -0.16735120   -2.37893565   37.45525351
     atom   23 type  2   force =    -0.10678334    0.64740002  -38.38297728
     atom   24 type  1   force =    -0.60465154    1.24402055    5.80172652
     atom   25 type  2   force =     0.47282410    0.45721506   39.19005246
     atom   26 type  2   force =    -0.31703180    0.09800418  -37.36917529
     atom   27 type  1   force =    -0.02104622    0.38852032   -2.26249900
     atom   28 type  2   force =     0.03588430    1.02569681   38.20899277
     atom   29 type  2   force =    -0.27101836   -0.41892558  -37.25573471
     atom   30 type  1   force =    -0.40134039   -1.00301277   -0.08840780
     atom   31 type  2   force =     1.15760620   -0.16233705   37.29900286
     atom   32 type  2   force =    -0.49686957   -0.03230778  -38.64506308
     atom   33 type  1   force =     0.48597145   -0.81827015    1.72557882
     atom   34 type  2   force =     0.14334712   -1.47234353   39.31726479
     atom   35 type  2   force =    -0.31704260    0.46903226  -37.83891137
     atom   36 type  3   force =     0.31090473    0.18019520    8.13453133
     The local contribution  to forces
     atom    1 type  1   force =    -0.48888368   -0.46336494   -5.57628369
     atom    2 type  2   force =     0.60256851   -0.45784768  -39.01080210
     atom    3 type  2   force =     0.15325884   -0.02564971   35.84581646
     atom    4 type  1   force =    -0.10390647   -0.58273867   -0.68231195
     atom    5 type  2   force =     0.92927930   -1.49656929  -38.51535146
     atom    6 type  2   force =    -0.35500960    0.49089368   37.78356708
     atom    7 type  1   force =     2.49036940    2.95770383   -2.41536330
     atom    8 type  2   force =     0.95001028    0.03001167  -37.12758282
     atom    9 type  2   force =    -0.34520623    0.06813415   37.75847345
     atom   10 type  1   force =     0.97531476    0.30563226   -5.56691632
     atom   11 type  2   force =     0.18692269    1.72912906  -38.74461850
     atom   12 type  2   force =    -0.46699554   -0.66788260   37.67002859
     atom   13 type  1   force =    -0.40498499   -1.27317620   -2.65599225
     atom   14 type  2   force =    -0.22115647   -0.42754208  -38.06031057
     atom   15 type  2   force =    -0.17468860    0.02626686   36.61545455
     atom   16 type  1   force =     0.00704861   -3.95962324   -0.43457918
     atom   17 type  2   force =    -0.79146374   -1.51366840  -37.68954743
     atom   18 type  2   force =     0.16492980    0.63310856   38.33178199
     atom   19 type  1   force =    -2.64342403    2.70117112   -0.38840601
     atom   20 type  2   force =    -0.23275039    0.24309921   38.25939642
     atom   21 type  1   force =    -0.28969779   -0.11713172   -0.40582744
     atom   22 type  2   force =     0.03859596    2.24177408  -37.47941425
     atom   23 type  2   force =     0.09942792   -0.63628123   38.14114717
     atom   24 type  1   force =     0.58833052   -1.26307061   -5.81097088
     atom   25 type  2   force =    -0.47090514   -0.43859564  -38.94578494
     atom   26 type  2   force =     0.30797090   -0.08234999   37.12149540
     atom   27 type  1   force =     0.01483962   -0.40943105    2.26395530
     atom   28 type  2   force =    -0.03220743   -1.00255229  -37.96283528
     atom   29 type  2   force =     0.26682906    0.41773361   37.01200250
     atom   30 type  1   force =     0.40478933    1.00712629    0.07572617
     atom   31 type  2   force =    -1.14530795    0.16414224  -37.05682321
     atom   32 type  2   force =     0.49176906    0.04763284   38.39898401
     atom   33 type  1   force =    -0.46358077    0.81214515   -1.71821066
     atom   34 type  2   force =    -0.14316824    1.46841011  -39.07818474
     atom   35 type  2   force =     0.31059680   -0.45420500   37.60218347
     atom   36 type  3   force =    -0.33077264   -0.19623830   -8.14254855
     The core correction contribution to forces
     atom    1 type  1   force =     0.00000000    0.00000000    0.00000000
     atom    2 type  2   force =     0.00020890   -0.00006406    0.02067728
     atom    3 type  2   force =     0.00065546    0.00013130   -0.02095059
     atom    4 type  1   force =     0.00000000    0.00000000    0.00000000
     atom    5 type  2   force =    -0.00061003    0.00194216    0.02037546
     atom    6 type  2   force =     0.00020973   -0.00102328   -0.02080102
     atom    7 type  1   force =     0.00000000    0.00000000    0.00000000
     atom    8 type  2   force =    -0.00024745    0.00055131    0.02049261
     atom    9 type  2   force =    -0.00017503    0.00048286   -0.02096955
     atom   10 type  1   force =     0.00000000    0.00000000    0.00000000
     atom   11 type  2   force =    -0.00033808   -0.00073772    0.01981481
     atom   12 type  2   force =     0.00115393    0.00122134   -0.02089969
     atom   13 type  1   force =     0.00000000    0.00000000    0.00000000
     atom   14 type  2   force =    -0.00021072    0.00021050    0.01908187
     atom   15 type  2   force =     0.00069913    0.00041754   -0.02063934
     atom   16 type  1   force =     0.00000000    0.00000000    0.00000000
     atom   17 type  2   force =     0.00002327    0.00157621    0.02018795
     atom   18 type  2   force =     0.00013589   -0.00029285   -0.02101142
     atom   19 type  1   force =     0.00000000    0.00000000    0.00000000
     atom   20 type  2   force =     0.00025434    0.00053940   -0.02122257
     atom   21 type  1   force =     0.00000000    0.00000000    0.00000000
     atom   22 type  2   force =    -0.01002888   -0.01114580    0.00103422
     atom   23 type  2   force =    -0.00055364    0.00106474   -0.02109493
     atom   24 type  1   force =     0.00000000    0.00000000    0.00000000
     atom   25 type  2   force =    -0.00027224   -0.00013659    0.02044475
     atom   26 type  2   force =    -0.00019341    0.00103660   -0.02091023
     atom   27 type  1   force =     0.00000000    0.00000000    0.00000000
     atom   28 type  2   force =     0.00022487    0.00183453    0.02078905
     atom   29 type  2   force =    -0.00061721   -0.00059833   -0.02047303
     atom   30 type  1   force =     0.00000000    0.00000000    0.00000000
     atom   31 type  2   force =     0.00079288    0.00024931    0.02027537
     atom   32 type  2   force =    -0.00018810    0.00066344   -0.02104891
     atom   33 type  1   force =     0.00000000    0.00000000    0.00000000
     atom   34 type  2   force =     0.00037988    0.00130269    0.02096464
     atom   35 type  2   force =    -0.00010869    0.00086561   -0.02115666
     atom   36 type  3   force =     0.00000000    0.00000000    0.00000000
     The Hubbard contrib.    to forces
     atom    1 type  1   force =     0.00000000    0.00000000    0.00000000
     atom    2 type  2   force =     0.00000000    0.00000000    0.00000000
     atom    3 type  2   force =     0.00000000    0.00000000    0.00000000
     atom    4 type  1   force =     0.00000000    0.00000000    0.00000000
     atom    5 type  2   force =     0.00000000    0.00000000    0.00000000
     atom    6 type  2   force =     0.00000000    0.00000000    0.00000000
     atom    7 type  1   force =     0.00000000    0.00000000    0.00000000
     atom    8 type  2   force =     0.00000000    0.00000000    0.00000000
     atom    9 type  2   force =     0.00000000    0.00000000    0.00000000
     atom   10 type  1   force =     0.00000000    0.00000000    0.00000000
     atom   11 type  2   force =     0.00000000    0.00000000    0.00000000
     atom   12 type  2   force =     0.00000000    0.00000000    0.00000000
     atom   13 type  1   force =     0.00000000    0.00000000    0.00000000
     atom   14 type  2   force =     0.00000000    0.00000000    0.00000000
     atom   15 type  2   force =     0.00000000    0.00000000    0.00000000
     atom   16 type  1   force =     0.00000000    0.00000000    0.00000000
     atom   17 type  2   force =     0.00000000    0.00000000    0.00000000
     atom   18 type  2   force =     0.00000000    0.00000000    0.00000000
     atom   19 type  1   force =     0.00000000    0.00000000    0.00000000
     atom   20 type  2   force =     0.00000000    0.00000000    0.00000000
     atom   21 type  1   force =     0.00000000    0.00000000    0.00000000
     atom   22 type  2   force =     0.00000000    0.00000000    0.00000000
     atom   23 type  2   force =     0.00000000    0.00000000    0.00000000
     atom   24 type  1   force =     0.00000000    0.00000000    0.00000000
     atom   25 type  2   force =     0.00000000    0.00000000    0.00000000
     atom   26 type  2   force =     0.00000000    0.00000000    0.00000000
     atom   27 type  1   force =     0.00000000    0.00000000    0.00000000
     atom   28 type  2   force =     0.00000000    0.00000000    0.00000000
     atom   29 type  2   force =     0.00000000    0.00000000    0.00000000
     atom   30 type  1   force =     0.00000000    0.00000000    0.00000000
     atom   31 type  2   force =     0.00000000    0.00000000    0.00000000
     atom   32 type  2   force =     0.00000000    0.00000000    0.00000000
     atom   33 type  1   force =     0.00000000    0.00000000    0.00000000
     atom   34 type  2   force =     0.00000000    0.00000000    0.00000000
     atom   35 type  2   force =     0.00000000    0.00000000    0.00000000
     atom   36 type  3   force =     0.00000000    0.00000000    0.00000000
     The SCF correction term to forces
     atom    1 type  1   force =     0.00021921   -0.00011083   -0.00122343
     atom    2 type  2   force =     0.00003479   -0.00010365   -0.00044259
     atom    3 type  2   force =     0.00005757   -0.00010745   -0.00039169
     atom    4 type  1   force =    -0.00006916    0.00000901   -0.00107263
     atom    5 type  2   force =    -0.00011632    0.00009374   -0.00047907
     atom    6 type  2   force =    -0.00004043   -0.00001910   -0.00027977
     atom    7 type  1   force =    -0.00016960   -0.00023077   -0.00086431
     atom    8 type  2   force =    -0.00001769    0.00007881   -0.00038974
     atom    9 type  2   force =     0.00004920    0.00005794   -0.00035181
     atom   10 type  1   force =     0.00009570    0.00012006   -0.00128337
     atom   11 type  2   force =    -0.00000339    0.00001141   -0.00034260
     atom   12 type  2   force =     0.00006186    0.00013854   -0.00042524
     atom   13 type  1   force =    -0.00016820   -0.00012384   -0.00113755
     atom   14 type  2   force =    -0.00002800   -0.00009036   -0.00036546
     atom   15 type  2   force =    -0.00001060   -0.00008556   -0.00044752
     atom   16 type  1   force =     0.00001838    0.00040869   -0.00084311
     atom   17 type  2   force =     0.00011739    0.00007682   -0.00045159
     atom   18 type  2   force =     0.00006948   -0.00003203   -0.00026762
     atom   19 type  1   force =     0.00009973    0.00013058   -0.00088180
     atom   20 type  2   force =    -0.00000859   -0.00003623   -0.00021292
     atom   21 type  1   force =    -0.00022356   -0.00007246   -0.00103663
     atom   22 type  2   force =     0.00000578    0.00001494   -0.00046282
     atom   23 type  2   force =    -0.00005127    0.00008631   -0.00034714
     atom   24 type  1   force =    -0.00002173   -0.00025716   -0.00129940
     atom   25 type  2   force =    -0.00000396   -0.00009515   -0.00041093
     atom   26 type  2   force =    -0.00005057   -0.00011720   -0.00039695
     atom   27 type  1   force =     0.00007509    0.00003123   -0.00102372
     atom   28 type  2   force =    -0.00000066   -0.00001410   -0.00044018
     atom   29 type  2   force =    -0.00003132   -0.00011528   -0.00037016
     atom   30 type  1   force =    -0.00000242    0.00021320   -0.00099221
     atom   31 type  2   force =     0.00004766    0.00009123   -0.00035474
     atom   32 type  2   force =    -0.00002936    0.00011065   -0.00034501
     atom   33 type  1   force =     0.00003346   -0.00002690   -0.00121869
     atom   34 type  2   force =     0.00002427   -0.00001670   -0.00039066
     atom   35 type  2   force =     0.00000628    0.00010427   -0.00036783
     atom   36 type  3   force =    -0.00000780   -0.00001300   -0.00004945

     Total force =     0.138373     Total SCF correction =     0.004280

     BFGS Geometry Optimization
     Energy error            =      0.0E+00 Ry
     Gradient error          =      5.3E-02 Ry/Bohr

     number of scf cycles    =   1
     number of bfgs steps    =   0

     energy             new  =   -2205.5497244565 Ry

     new trust radius        =       0.0695025773 bohr
     new conv_thr            =       0.0000010000 Ry


ATOMIC_POSITIONS (angstrom)
Mo            6.5822712080        1.7742392649        2.8265066352
S             8.1695186161        0.8193111425        4.4349377361
S             8.1869396355        0.8161468606        1.2759564652
Mo            8.1005071233        4.4931084527        2.7181897287
S             6.4993280636        3.7199581232        4.3434442333
S             6.5536028252        3.5175912866        1.1223314335
Mo            6.4863641333        7.2152649444        2.6646017904
S             8.0826850223        6.3411954663        4.2511049572
S             8.0875502087        6.3070805925        1.0896831380
Mo            8.1547274000        9.9065827560        2.8309311682
S             6.4972097592        8.9422565423        4.3813335869
S             6.6175872283        9.0486389713        1.1427445036
Mo            3.4250282753        1.7482282101        2.7724948342
S             4.9798731152        0.8168211630        4.3569445425
S             5.0514525466        0.8473146432        1.2207533765
Mo            4.9821834921        4.5139011426        2.6316709572
S             3.4308068117        3.6724196284        4.2804468576
S             3.4352849232        3.5452474037        1.0665955266
Mo            3.4642280526        7.2109072885        2.6248897717
S             4.9841817733        6.3245159317        1.0393735930
Mo            5.0129482538        9.9077379688        2.7308283898
S             3.4846145590        8.9634326739        4.3534992316
S             3.4081241286        9.0654495778        1.1006483477
Mo            0.2900503194        1.7479822092        2.8386264680
S             1.8574509534        0.8038731900        4.4021764442
S             1.8550828084        0.8532803617        1.2069740166
Mo            1.8573633562        4.4908892511        2.6644753006
S             0.2725195866        3.6542180881        4.3347470977
S             0.2327791617        3.5277955976        1.1702844816
Mo            0.2700311057        7.2241719707        2.7006818913
S             1.9003371932        6.3105046220        4.2295398402
S             1.8587520431        6.3126817111        1.0481865125
Mo            1.8532125393        9.9414205823        2.7733895118
S             0.2948392155        9.0670605531        4.4079479563
S             0.2722423061        9.0471463507        1.1577222871
H             4.1836737130        9.6971496655        5.4600989241



     Writing config-only to output data dir ./MoS2-V-O.save/
     NEW-OLD atomic charge density approx. for the potential

     negative rho (up, down):  1.444E-04 0.000E+00

     total cpu time spent up to now is       89.2 secs

     Self-consistent Calculation

     iteration #  1     ecut=    80.00 Ry     beta= 0.70
     Davidson diagonalization with overlap
     ethr =  1.00E-06,  avg # of iterations = 10.0

     negative rho (up, down):  8.569E-05 0.000E+00

     total cpu time spent up to now is      109.3 secs

     total energy              =   -2205.56556875 Ry
     estimated scf accuracy    <       0.00209132 Ry

     iteration #  2     ecut=    80.00 Ry     beta= 0.70
     Davidson diagonalization with overlap
     ethr =  6.81E-07,  avg # of iterations =  2.0

     negative rho (up, down):  7.518E-05 0.000E+00

     total cpu time spent up to now is      130.5 secs

     total energy              =   -2205.56563597 Ry
     estimated scf accuracy    <       0.00044834 Ry

     iteration #  3     ecut=    80.00 Ry     beta= 0.70
     Davidson diagonalization with overlap
     ethr =  1.46E-07,  avg # of iterations =  2.0

     negative rho (up, down):  7.116E-05 0.000E+00

     total cpu time spent up to now is      144.1 secs

     total energy              =   -2205.56565067 Ry
     estimated scf accuracy    <       0.00013720 Ry

     iteration #  4     ecut=    80.00 Ry     beta= 0.70
     Davidson diagonalization with overlap
     ethr =  4.47E-08,  avg # of iterations =  5.0

     negative rho (up, down):  6.727E-05 0.000E+00

     total cpu time spent up to now is      153.5 secs

     total energy              =   -2205.56567149 Ry
     estimated scf accuracy    <       0.00001438 Ry

     iteration #  5     ecut=    80.00 Ry     beta= 0.70
     Davidson diagonalization with overlap
     ethr =  4.68E-09,  avg # of iterations =  9.0

     negative rho (up, down):  6.204E-05 0.000E+00

     total cpu time spent up to now is      167.3 secs

     total energy              =   -2205.56567626 Ry
     estimated scf accuracy    <       0.00000517 Ry

     iteration #  6     ecut=    80.00 Ry     beta= 0.70
     Davidson diagonalization with overlap
     ethr =  1.68E-09,  avg # of iterations =  2.0

     negative rho (up, down):  5.709E-05 0.000E+00

     total cpu time spent up to now is      181.2 secs

     total energy              =   -2205.56567725 Ry
     estimated scf accuracy    <       0.00000147 Ry

     iteration #  7     ecut=    80.00 Ry     beta= 0.70
     Davidson diagonalization with overlap
     ethr =  4.80E-10,  avg # of iterations =  5.0

     negative rho (up, down):  1.370E-04 0.000E+00

     total cpu time spent up to now is      183.6 secs

     End of self-consistent calculation

          k = 0.0000 0.0000 0.0000 (105382 PWs)   bands (ev):

   -62.8718 -62.8357 -62.8189 -62.8145 -62.7962 -62.7911 -62.7841 -62.7758
   -62.7746 -62.7403 -62.6805 -62.5603 -37.1800 -37.1257 -37.1228 -37.1046
   -37.0916 -37.0882 -37.0664 -37.0397 -37.0310 -37.0199 -37.0080 -36.9971
   -36.9941 -36.9873 -36.9769 -36.9765 -36.9748 -36.9670 -36.9561 -36.9496
   -36.9327 -36.9109 -36.9025 -36.8905 -36.8804 -36.8696 -36.8676 -36.8605
   -36.8576 -36.8220 -36.8107 -36.7815 -36.7351 -36.7112 -36.6418 -36.5910
   -16.1012 -15.5572 -15.0848 -15.0501 -14.8972 -14.8208 -14.6396 -14.4451
   -14.3985 -14.3878 -14.3542 -14.3193 -14.3155 -14.2633 -14.1269 -14.0881
   -14.0778 -14.0650 -13.9906 -13.8517 -13.8000 -13.7940 -13.7671  -8.5993
    -7.6208  -7.3768  -7.2617  -7.2437  -7.2282  -7.1842  -7.1032  -7.0433
    -6.7990  -6.7350  -6.7047  -6.6547  -6.5255  -6.4781  -6.4518  -6.3876
    -6.3072  -6.2241  -6.2164  -5.9144  -5.8918  -5.8652  -5.7865  -5.7540
    -5.7383  -5.6933  -5.6497  -5.6172  -5.5781  -5.5338  -5.4932  -5.4202
    -5.3976  -5.3069  -5.1755  -5.1105  -5.0087  -5.0044  -4.9484  -4.9203
    -4.8600  -4.8100  -4.6660  -4.5026  -4.4369  -4.2881  -4.2738  -4.2147
    -4.1782  -4.0373  -3.9782  -3.8336  -3.7983  -3.7612  -3.7068  -3.6510
    -3.6238  -3.5345  -3.4981  -3.4602  -3.4482  -3.4226  -3.4035  -3.3470
    -3.3294  -3.1749  -3.1328  -2.9535  -2.8682  -2.7797  -2.7470  -2.7194
    -2.6640  -2.6347  -2.6192  -2.5960  -2.5126  -2.2149  -2.0099  -1.9570
    -1.9236  -0.9801  -0.6894  -0.4455  -0.1193  -0.1120  -0.0313   0.0223
     0.1275   0.1553   0.1911   0.2310   0.2758   0.2994   0.4460   0.4887
     0.5036   0.5658   0.6066   0.6129   0.7004   0.7234   0.7444   0.7590
     0.7949   0.8231   0.8884   0.9050   0.9963   1.0073   1.0712   1.3465
     1.4029

     the Fermi energy is    -0.9804 ev

!    total energy              =   -2205.56567717 Ry
     estimated scf accuracy    <       0.00000068 Ry
     smearing contrib. (-TS)   =      -0.00570018 Ry
     internal energy E=F+TS    =   -2205.55997699 Ry

     The total energy is F=E-TS. E is the sum of the following terms:
     one-electron contribution =  -18043.22153832 Ry
     hartree contribution      =    9008.75582062 Ry
     xc contribution           =    -385.29137312 Ry
     ewald contribution        =    7214.19711384 Ry

     convergence has been achieved in   7 iterations

     negative rho (up, down):  1.370E-04 0.000E+00

     Forces acting on atoms (cartesian axes, Ry/au):

     atom    1 type  1   force =     0.00382095   -0.01344529    0.00045235
     atom    2 type  2   force =    -0.00823901    0.01157928   -0.00081468
     atom    3 type  2   force =    -0.01058978    0.00738882   -0.00924493
     atom    4 type  1   force =     0.00784834   -0.00171391    0.00219429
     atom    5 type  2   force =     0.00070323   -0.00543550   -0.00601015
     atom    6 type  2   force =     0.00200500    0.00648413    0.00294442
     atom    7 type  1   force =    -0.00383627   -0.00378774   -0.00417511
     atom    8 type  2   force =     0.00053395   -0.00380357    0.00971169
     atom    9 type  2   force =     0.01114882    0.00352615    0.00770922
     atom   10 type  1   force =    -0.00446092    0.00702169   -0.00765055
     atom   11 type  2   force =     0.00279151   -0.00046286   -0.00848940
     atom   12 type  2   force =    -0.00085145   -0.00072949   -0.00168131
     atom   13 type  1   force =     0.00444276    0.00085354   -0.00288077
     atom   14 type  2   force =     0.00800503    0.00069210    0.00573953
     atom   15 type  2   force =    -0.00782735    0.00332891   -0.01189912
     atom   16 type  1   force =     0.00240908    0.00055890   -0.00054576
     atom   17 type  2   force =     0.00553803    0.00084048    0.00129382
     atom   18 type  2   force =    -0.00402693   -0.00409040    0.01184719
     atom   19 type  1   force =     0.01297461   -0.00370010    0.00236471
     atom   20 type  2   force =     0.00219912   -0.00620841   -0.00271039
     atom   21 type  1   force =     0.00019324    0.00831183   -0.00639762
     atom   22 type  2   force =     0.01850685    0.02292295    0.03367775
     atom   23 type  2   force =    -0.00038654   -0.00054024    0.00498488
     atom   24 type  1   force =    -0.00650588    0.00002660   -0.00942412
     atom   25 type  2   force =     0.00837375    0.01812162    0.00174792
     atom   26 type  2   force =    -0.00727794   -0.00245591   -0.00450907
     atom   27 type  1   force =    -0.00393229   -0.00493868    0.00700889
     atom   28 type  2   force =    -0.00011774   -0.00232373   -0.00422597
     atom   29 type  2   force =     0.00228081    0.00164407   -0.00544669
     atom   30 type  1   force =    -0.00047991    0.00540166    0.00423752
     atom   31 type  2   force =    -0.00077781   -0.00172779    0.00719827
     atom   32 type  2   force =    -0.00451288    0.00313447    0.00664807
     atom   33 type  1   force =     0.00950990    0.00328397    0.00861001
     atom   34 type  2   force =    -0.00313740   -0.03142272   -0.01484472
     atom   35 type  2   force =    -0.00486355    0.00828190    0.00854130
     atom   36 type  3   force =    -0.03146132   -0.02661674   -0.02596147
     The non-local contrib.  to forces
     atom    1 type  1   force =     0.00105322    0.03524451   -0.01448627
     atom    2 type  2   force =    -0.00580427   -0.00315707   -0.26864408
     atom    3 type  2   force =    -0.01235550   -0.00660229    0.26655763
     atom    4 type  1   force =    -0.00014980    0.01066500    0.00356578
     atom    5 type  2   force =     0.00726400   -0.03584374   -0.25503258
     atom    6 type  2   force =    -0.00017414    0.00568356    0.26321241
     atom    7 type  1   force =    -0.02450780   -0.00861993   -0.02099412
     atom    8 type  2   force =     0.00568863   -0.00553214   -0.26162345
     atom    9 type  2   force =     0.00613684   -0.00913869    0.27471699
     atom   10 type  1   force =     0.00153888    0.00247180   -0.00269387
     atom   11 type  2   force =     0.01213650    0.00899512   -0.25043150
     atom   12 type  2   force =    -0.01380199   -0.01328223    0.26095993
     atom   13 type  1   force =     0.00074362    0.02604056   -0.00810946
     atom   14 type  2   force =     0.00696203   -0.00459173   -0.23813002
     atom   15 type  2   force =    -0.00930712   -0.00686378    0.26163648
     atom   16 type  1   force =    -0.00300378    0.03880287   -0.02061415
     atom   17 type  2   force =     0.00180176   -0.02944332   -0.25035262
     atom   18 type  2   force =    -0.00292404   -0.00524851    0.27174437
     atom   19 type  1   force =     0.02773908    0.00826631   -0.01370955
     atom   20 type  2   force =    -0.00338531   -0.01745338    0.26278442
     atom   21 type  1   force =     0.00871670    0.01718715    0.00286113
     atom   22 type  2   force =     0.16882145    0.18864085    0.07329730
     atom   23 type  2   force =     0.00886002   -0.01245910    0.27043131
     atom   24 type  1   force =     0.00259079    0.02154563   -0.00920369
     atom   25 type  2   force =     0.00807259   -0.00024142   -0.26047799
     atom   26 type  2   force =     0.00051880   -0.01825388    0.26512076
     atom   27 type  1   force =    -0.00110676    0.01074405    0.00650255
     atom   28 type  2   force =    -0.00376836   -0.02590931   -0.27098222
     atom   29 type  2   force =     0.00711098    0.00146845    0.26030782
     atom   30 type  1   force =    -0.00621808    0.01069253    0.01132113
     atom   31 type  2   force =    -0.01488445   -0.00551672   -0.25320410
     atom   32 type  2   force =     0.00153829   -0.01275419    0.27536739
     atom   33 type  1   force =    -0.00407201    0.00725442   -0.00826629
     atom   34 type  2   force =    -0.00364875   -0.03050722   -0.27373701
     atom   35 type  2   force =     0.00026102   -0.00714344    0.26946795
     atom   36 type  3   force =    -0.02022963   -0.02047529   -0.03099439
     The ionic contribution  to forces
     atom    1 type  1   force =     0.23778637    0.73707236    5.72035323
     atom    2 type  2   force =    -0.41451161    0.33486564   39.35619883
     atom    3 type  2   force =    -0.10491411    0.04228910  -36.23019951
     atom    4 type  1   force =     0.00532135    0.69261414    0.75991724
     atom    5 type  2   force =    -0.94751240    1.53387241   38.67362640
     atom    6 type  2   force =     0.33905190   -0.52452014  -37.94609201
     atom    7 type  1   force =    -2.30414949   -2.92608509    2.29104114
     atom    8 type  2   force =    -0.98991905    0.00567701   37.42509424
     atom    9 type  2   force =     0.36695954   -0.08483953  -37.92465564
     atom   10 type  1   force =    -0.67804434   -0.39135602    5.29732419
     atom   11 type  2   force =    -0.18356364   -1.76129065   38.91143620
     atom   12 type  2   force =     0.47855192    0.59855352  -37.92833828
     atom   13 type  1   force =     0.35257847    1.22698118    2.58552059
     atom   14 type  2   force =     0.15637985    0.43411191   38.36808436
     atom   15 type  2   force =     0.18121899    0.09563045  -36.96869952
     atom   16 type  1   force =    -0.00873688    3.80695875    0.47458452
     atom   17 type  2   force =     0.80792535    1.54946119   37.92543612
     atom   18 type  2   force =    -0.16700159   -0.56568167  -38.48750256
     atom   19 type  1   force =     2.28898768   -2.51216666    0.46129477
     atom   20 type  2   force =     0.21666367   -0.27975489  -38.57263056
     atom   21 type  1   force =     0.14112291   -0.07028478   -0.03657243
     atom   22 type  2   force =    -0.28069985   -2.56119457   37.50736206
     atom   23 type  2   force =    -0.19452402    0.57494188  -38.31609110
     atom   24 type  1   force =    -0.35917182    1.03288510    5.48954167
     atom   25 type  2   force =     0.34536454    0.42147690   39.16721234
     atom   26 type  2   force =    -0.29657509    0.07105510  -37.34834957
     atom   27 type  1   force =     0.07471531    0.61405390   -2.00490877
     atom   28 type  2   force =     0.04723963    0.97192262   38.23796739
     atom   29 type  2   force =    -0.24602142   -0.34812385  -37.32890011
     atom   30 type  1   force =    -0.23810181   -1.11903812   -0.04986668
     atom   31 type  2   force =     1.21255757   -0.07046723   37.27014143
     atom   32 type  2   force =    -0.48983683   -0.04327675  -38.52710293
     atom   33 type  1   force =     0.35867297   -0.89691002    2.07086435
     atom   34 type  2   force =     0.13103705   -1.29273242   39.20190349
     atom   35 type  2   force =    -0.21056112    0.46888425  -37.73922586
     atom   36 type  3   force =     0.37170999    0.23441498    8.21423098
     The local contribution  to forces
     atom    1 type  1   force =    -0.23490061   -0.78574203   -5.70630643
     atom    2 type  2   force =     0.41180470   -0.32003485  -39.10959997
     atom    3 type  2   force =     0.10610822   -0.02852030   35.97511638
     atom    4 type  1   force =     0.00268141   -0.70509314   -0.76221670
     atom    5 type  2   force =     0.94165391   -1.50546670  -38.44538716
     atom    6 type  2   force =    -0.33702009    0.52621372   37.70642652
     atom    7 type  1   force =     2.32494215    2.93083819   -2.27514613
     atom    8 type  2   force =     0.98504891   -0.00455453  -37.17480863
     atom    9 type  2   force =    -0.36185983    0.09703119   37.67836134
     atom   10 type  1   force =     0.67199808    0.39593482   -5.30341298
     atom   11 type  2   force =     0.17452098    1.75262312  -38.68981248
     atom   12 type  2   force =    -0.46669985   -0.58712533   37.68627898
     atom   13 type  1   force =    -0.34898786   -1.25195714   -2.58123249
     atom   14 type  2   force =    -0.15496387   -0.42884144  -38.14390319
     atom   15 type  2   force =    -0.18029428   -0.08599773   36.71556129
     atom   16 type  1   force =     0.01415389   -3.84527205   -0.45540219
     atom   17 type  2   force =    -0.80426174   -1.52074738  -37.69444654
     atom   18 type  2   force =     0.16581536    0.56707801   38.24840547
     atom   19 type  1   force =    -2.30367159    2.49983319   -0.44630510
     atom   20 type  2   force =    -0.21128007    0.29041249   38.32807660
     atom   21 type  1   force =    -0.14937994    0.06165334    0.02629565
     atom   22 type  2   force =     0.14101233    2.40733983  -37.54734348
     atom   23 type  2   force =     0.18598834   -0.56402545   38.07137749
     atom   24 type  1   force =     0.35002902   -1.05419293   -5.49074777
     atom   25 type  2   force =    -0.34482748   -0.40302840  -38.92589745
     atom   26 type  2   force =     0.28900887   -0.05618909   37.09939077
     atom   27 type  1   force =    -0.07756422   -0.62992762    2.00452566
     atom   28 type  2   force =    -0.04382861   -0.95010381  -37.99248844
     atom   29 type  2   force =     0.24174886    0.34873113   37.08348420
     atom   30 type  1   force =     0.24365675    1.11366495    0.04189143
     atom   31 type  2   force =    -1.19929169    0.07384930  -37.03044156
     atom   32 type  2   force =     0.48406606    0.05844867   38.27915495
     atom   33 type  1   force =    -0.34536402    0.89318606   -2.05508346
     atom   34 type  2   force =    -0.13092927    1.29069574  -38.96447787
     atom   35 type  2   force =     0.20547830   -0.45428329   37.49912849
     atom   36 type  3   force =    -0.38295343   -0.24056542   -8.20926742
     The core correction contribution to forces
     atom    1 type  1   force =     0.00000000    0.00000000    0.00000000
     atom    2 type  2   force =     0.00016600    0.00003631    0.02069846
     atom    3 type  2   force =     0.00054793    0.00025060   -0.02086006
     atom    4 type  1   force =     0.00000000    0.00000000    0.00000000
     atom    5 type  2   force =    -0.00069314    0.00199897    0.02035762
     atom    6 type  2   force =     0.00015369   -0.00086237   -0.02080179
     atom    7 type  1   force =     0.00000000    0.00000000    0.00000000
     atom    8 type  2   force =    -0.00023201    0.00055437    0.02062706
     atom    9 type  2   force =    -0.00007890    0.00047855   -0.02092605
     atom   10 type  1   force =     0.00000000    0.00000000    0.00000000
     atom   11 type  2   force =    -0.00025209   -0.00079177    0.01990069
     atom   12 type  2   force =     0.00116263    0.00117427   -0.02080928
     atom   13 type  1   force =     0.00000000    0.00000000    0.00000000
     atom   14 type  2   force =    -0.00030188    0.00007770    0.01923412
     atom   15 type  2   force =     0.00056884    0.00053395   -0.02061795
     atom   16 type  1   force =     0.00000000    0.00000000    0.00000000
     atom   17 type  2   force =     0.00005425    0.00157592    0.02020704
     atom   18 type  2   force =     0.00008323   -0.00028135   -0.02095818
     atom   19 type  1   force =     0.00000000    0.00000000    0.00000000
     atom   20 type  2   force =     0.00026840    0.00052845   -0.02113889
     atom   21 type  1   force =     0.00000000    0.00000000    0.00000000
     atom   22 type  2   force =    -0.01052169   -0.01170226    0.00033358
     atom   23 type  2   force =    -0.00067373    0.00107745   -0.02109597
     atom   24 type  1   force =     0.00000000    0.00000000    0.00000000
     atom   25 type  2   force =    -0.00018285    0.00002328    0.02051508
     atom   26 type  2   force =    -0.00027078    0.00100588   -0.02092677
     atom   27 type  1   force =     0.00000000    0.00000000    0.00000000
     atom   28 type  2   force =     0.00024356    0.00179138    0.02080672
     atom   29 type  2   force =    -0.00057135   -0.00047635   -0.02048277
     atom   30 type  1   force =     0.00000000    0.00000000    0.00000000
     atom   31 type  2   force =     0.00072672    0.00026509    0.02036046
     atom   32 type  2   force =    -0.00034280    0.00067160   -0.02105174
     atom   33 type  1   force =     0.00000000    0.00000000    0.00000000
     atom   34 type  2   force =     0.00036948    0.00095078    0.02105708
     atom   35 type  2   force =    -0.00015742    0.00080690   -0.02107750
     atom   36 type  3   force =     0.00000000    0.00000000    0.00000000
     The Hubbard contrib.    to forces
     atom    1 type  1   force =     0.00000000    0.00000000    0.00000000
     atom    2 type  2   force =     0.00000000    0.00000000    0.00000000
     atom    3 type  2   force =     0.00000000    0.00000000    0.00000000
     atom    4 type  1   force =     0.00000000    0.00000000    0.00000000
     atom    5 type  2   force =     0.00000000    0.00000000    0.00000000
     atom    6 type  2   force =     0.00000000    0.00000000    0.00000000
     atom    7 type  1   force =     0.00000000    0.00000000    0.00000000
     atom    8 type  2   force =     0.00000000    0.00000000    0.00000000
     atom    9 type  2   force =     0.00000000    0.00000000    0.00000000
     atom   10 type  1   force =     0.00000000    0.00000000    0.00000000
     atom   11 type  2   force =     0.00000000    0.00000000    0.00000000
     atom   12 type  2   force =     0.00000000    0.00000000    0.00000000
     atom   13 type  1   force =     0.00000000    0.00000000    0.00000000
     atom   14 type  2   force =     0.00000000    0.00000000    0.00000000
     atom   15 type  2   force =     0.00000000    0.00000000    0.00000000
     atom   16 type  1   force =     0.00000000    0.00000000    0.00000000
     atom   17 type  2   force =     0.00000000    0.00000000    0.00000000
     atom   18 type  2   force =     0.00000000    0.00000000    0.00000000
     atom   19 type  1   force =     0.00000000    0.00000000    0.00000000
     atom   20 type  2   force =     0.00000000    0.00000000    0.00000000
     atom   21 type  1   force =     0.00000000    0.00000000    0.00000000
     atom   22 type  2   force =     0.00000000    0.00000000    0.00000000
     atom   23 type  2   force =     0.00000000    0.00000000    0.00000000
     atom   24 type  1   force =     0.00000000    0.00000000    0.00000000
     atom   25 type  2   force =     0.00000000    0.00000000    0.00000000
     atom   26 type  2   force =     0.00000000    0.00000000    0.00000000
     atom   27 type  1   force =     0.00000000    0.00000000    0.00000000
     atom   28 type  2   force =     0.00000000    0.00000000    0.00000000
     atom   29 type  2   force =     0.00000000    0.00000000    0.00000000
     atom   30 type  1   force =     0.00000000    0.00000000    0.00000000
     atom   31 type  2   force =     0.00000000    0.00000000    0.00000000
     atom   32 type  2   force =     0.00000000    0.00000000    0.00000000
     atom   33 type  1   force =     0.00000000    0.00000000    0.00000000
     atom   34 type  2   force =     0.00000000    0.00000000    0.00000000
     atom   35 type  2   force =     0.00000000    0.00000000    0.00000000
     atom   36 type  3   force =     0.00000000    0.00000000    0.00000000
     The SCF correction term to forces
     atom    1 type  1   force =    -0.00011719   -0.00002170    0.00087778
     atom    2 type  2   force =     0.00010700   -0.00013233    0.00051804
     atom    3 type  2   force =     0.00002450   -0.00002986    0.00012660
     atom    4 type  1   force =    -0.00000379    0.00009851    0.00091394
     atom    5 type  2   force =    -0.00000831    0.00000198    0.00041153
     atom    6 type  2   force =    -0.00000552   -0.00003222    0.00018526
     atom    7 type  1   force =    -0.00012031    0.00007752    0.00090996
     atom    8 type  2   force =    -0.00005170    0.00005015    0.00040844
     atom    9 type  2   force =    -0.00000801   -0.00000694    0.00019854
     atom   10 type  1   force =     0.00004729   -0.00003048    0.00111807
     atom   11 type  2   force =    -0.00004941   -0.00000024    0.00040365
     atom   12 type  2   force =    -0.00006334   -0.00005129    0.00021330
     atom   13 type  1   force =     0.00010935   -0.00021263    0.00092654
     atom   14 type  2   force =    -0.00007027   -0.00006593    0.00044022
     atom   15 type  2   force =    -0.00001295    0.00002444    0.00020655
     atom   16 type  1   force =    -0.00000333    0.00006776    0.00087202
     atom   17 type  2   force =     0.00001923   -0.00000751    0.00043579
     atom   18 type  2   force =     0.00000093    0.00004155    0.00014404
     atom   19 type  1   force =    -0.00007974    0.00036548    0.00107055
     atom   20 type  2   force =    -0.00006674    0.00005735    0.00018400
     atom   21 type  1   force =    -0.00026561   -0.00024544    0.00100398
     atom   22 type  2   force =    -0.00010457   -0.00016247    0.00001425
     atom   23 type  2   force =    -0.00003632   -0.00007659    0.00034911
     atom   24 type  1   force =     0.00004695   -0.00021277    0.00097163
     atom   25 type  2   force =    -0.00005222   -0.00011032    0.00038190
     atom   26 type  2   force =     0.00004108   -0.00007549    0.00024170
     atom   27 type  1   force =     0.00002422    0.00018942    0.00087541
     atom   28 type  2   force =    -0.00000313   -0.00002617    0.00045654
     atom   29 type  2   force =     0.00001456    0.00004312    0.00013014
     atom   30 type  1   force =     0.00018407    0.00008073    0.00087761
     atom   31 type  2   force =     0.00011486    0.00014020    0.00032800
     atom   32 type  2   force =     0.00006322    0.00004356    0.00026636
     atom   33 type  1   force =     0.00027378   -0.00024807    0.00108137
     atom   34 type  2   force =     0.00003491    0.00016883    0.00039555
     atom   35 type  2   force =     0.00011649    0.00001591    0.00023418
     atom   36 type  3   force =     0.00001258    0.00000741    0.00005532

     Total force =     0.095930     Total SCF correction =     0.003781
     Energy error            =      1.6E-02 Ry
     Gradient error          =      3.4E-02 Ry/Bohr

     number of scf cycles    =   2
     number of bfgs steps    =   1

     energy             old  =   -2205.5497244565 Ry
     energy             new  =   -2205.5656771686 Ry

     CASE: energy            _new < energy            _old

     new trust radius        =       0.0764528350 bohr
     new conv_thr            =       0.0000000337 Ry


ATOMIC_POSITIONS (angstrom)
Mo            6.5864729175        1.7621174291        2.8273855622
S             8.1623103455        0.8293441664        4.4344422918
S             8.1782518203        0.8223092084        1.2690701089
Mo            8.1070790144        4.4915203711        2.7198073756
S             6.4997094548        3.7156509116        4.3385830824
S             6.5550640408        3.5233023096        1.1246102924
Mo            6.4829550740        7.2119771909        2.6602368586
S             8.0832483192        6.3379937986        4.2596344265
S             8.0966980000        6.3100287615        1.0962501521
Mo            8.1504334750        9.9123882139        2.8230921573
S             6.4995748958        8.9417994709        4.3750095272
S             6.6169172804        9.0481112056        1.1421159861
Mo            3.4288156368        1.7490781903        2.7696883171
S             4.9864306754        0.8172849640        4.3622404498
S             5.0446925492        0.8498644767        1.2112196842
Mo            4.9843546434        4.5144361837        2.6310491805
S             3.4352863726        3.6731718693        4.2815021143
S             3.4319337885        3.5417839393        1.0765503722
Mo            3.4753920912        7.2072418884        2.6254221418
S             4.9859155957        6.3196717697        1.0378801247
Mo            5.0132182421        9.9147914673        2.7238633378
S             3.5003176803        8.9834242583        4.3826731371
S             3.4077922692        9.0651591485        1.1050544955
Mo            0.2842874972        1.7480934491        2.8298738374
S             1.8647145663        0.8188202548        4.4041835126
S             1.8488395931        0.8513269935        1.2033242827
Mo            1.8539433729        4.4864769894        2.6702473945
S             0.2724965210        3.6525466103        4.3312164197
S             0.2346880006        3.5290600957        1.1661102973
Mo            0.2694738091        7.2294480959        2.7034669198
S             1.8994174922        6.3088391105        4.2359967469
S             1.8548923037        6.3153461955        1.0535772167
Mo            1.8616434715        9.9439835683        2.7795384520
S             0.2924200812        9.0404471913        4.3963370892
S             0.2679315610        9.0536861206        1.1651689917
H             4.1577390043        9.6749983205        5.4383392003



     Writing config-only to output data dir ./MoS2-V-O.save/
     NEW-OLD atomic charge density approx. for the potential

     negative rho (up, down):  1.470E-04 0.000E+00

     total cpu time spent up to now is      187.0 secs

     Self-consistent Calculation

     iteration #  1     ecut=    80.00 Ry     beta= 0.70
     Davidson diagonalization with overlap
     ethr =  1.00E-06,  avg # of iterations = 10.0

     negative rho (up, down):  7.815E-05 0.000E+00

     total cpu time spent up to now is      205.0 secs

     total energy              =   -2205.57655025 Ry
     estimated scf accuracy    <       0.00175339 Ry

     iteration #  2     ecut=    80.00 Ry     beta= 0.70
     Davidson diagonalization with overlap
     ethr =  5.71E-07,  avg # of iterations =  2.0

     negative rho (up, down):  5.461E-05 0.000E+00

     total cpu time spent up to now is      222.9 secs

     total energy              =   -2205.57661510 Ry
     estimated scf accuracy    <       0.00030142 Ry

     iteration #  3     ecut=    80.00 Ry     beta= 0.70
     Davidson diagonalization with overlap
     ethr =  9.82E-08,  avg # of iterations =  3.0

     negative rho (up, down):  4.030E-05 0.000E+00

     total cpu time spent up to now is      241.9 secs

     total energy              =   -2205.57663580 Ry
     estimated scf accuracy    <       0.00007582 Ry

     iteration #  4     ecut=    80.00 Ry     beta= 0.70
     Davidson diagonalization with overlap
     ethr =  2.47E-08,  avg # of iterations =  5.0

     negative rho (up, down):  3.663E-05 0.000E+00

     total cpu time spent up to now is      257.7 secs

     total energy              =   -2205.57664669 Ry
     estimated scf accuracy    <       0.00000976 Ry

     iteration #  5     ecut=    80.00 Ry     beta= 0.70
     Davidson diagonalization with overlap
     ethr =  3.18E-09,  avg # of iterations = 12.0

     negative rho (up, down):  3.776E-05 0.000E+00

     total cpu time spent up to now is      268.8 secs

     total energy              =   -2205.57664908 Ry
     estimated scf accuracy    <       0.00000346 Ry

     iteration #  6     ecut=    80.00 Ry     beta= 0.70
     Davidson diagonalization with overlap
     ethr =  1.13E-09,  avg # of iterations =  3.0

     negative rho (up, down):  4.404E-05 0.000E+00

     total cpu time spent up to now is      281.1 secs

     total energy              =   -2205.57664943 Ry
     estimated scf accuracy    <       0.00000080 Ry

     iteration #  7     ecut=    80.00 Ry     beta= 0.70
     Davidson diagonalization with overlap
     ethr =  2.61E-10,  avg # of iterations =  5.0

     negative rho (up, down):  5.740E-05 0.000E+00

     total cpu time spent up to now is      291.2 secs

     total energy              =   -2205.57664946 Ry
     estimated scf accuracy    <       0.00000026 Ry

     iteration #  8     ecut=    80.00 Ry     beta= 0.70
     Davidson diagonalization with overlap
     ethr =  8.34E-11,  avg # of iterations =  2.0

     negative rho (up, down):  8.688E-05 0.000E+00

     total cpu time spent up to now is      302.8 secs

     total energy              =   -2205.57664940 Ry
     estimated scf accuracy    <       0.00000009 Ry

     iteration #  9     ecut=    80.00 Ry     beta= 0.70
     Davidson diagonalization with overlap
     ethr =  3.01E-11,  avg # of iterations =  4.0

     negative rho (up, down):  1.376E-04 0.000E+00

     total cpu time spent up to now is      305.1 secs

     End of self-consistent calculation

          k = 0.0000 0.0000 0.0000 (105382 PWs)   bands (ev):

   -62.8704 -62.8260 -62.8109 -62.8079 -62.7843 -62.7787 -62.7748 -62.7651
   -62.7621 -62.7225 -62.6746 -62.5385 -37.1691 -37.1198 -37.1155 -37.0953
   -37.0835 -37.0782 -37.0540 -37.0286 -37.0212 -37.0087 -36.9973 -36.9926
   -36.9838 -36.9753 -36.9668 -36.9651 -36.9646 -36.9563 -36.9461 -36.9395
   -36.9235 -36.9009 -36.8916 -36.8757 -36.8676 -36.8625 -36.8566 -36.8494
   -36.8465 -36.8106 -36.8005 -36.7715 -36.7171 -36.6954 -36.6254 -36.5723
   -16.1627 -15.6295 -15.0736 -15.0504 -14.8810 -14.8116 -14.6393 -14.4277
   -14.3873 -14.3751 -14.3479 -14.3178 -14.3018 -14.2545 -14.1221 -14.0812
   -14.0679 -14.0552 -13.9811 -13.8458 -13.7876 -13.7851 -13.7584  -8.7878
    -7.6125  -7.3710  -7.2529  -7.2315  -7.2077  -7.1769  -7.1059  -7.0396
    -6.7875  -6.7232  -6.6878  -6.6420  -6.5269  -6.4663  -6.4442  -6.3927
    -6.3156  -6.2147  -6.2096  -5.9014  -5.8806  -5.8551  -5.7778  -5.7464
    -5.7264  -5.6867  -5.6349  -5.6027  -5.5742  -5.5283  -5.4913  -5.4071
    -5.3758  -5.2823  -5.1575  -5.0895  -5.0033  -4.9880  -4.9388  -4.9174
    -4.8583  -4.8023  -4.6572  -4.4978  -4.4653  -4.2693  -4.2679  -4.1989
    -4.1648  -4.0288  -3.9746  -3.8296  -3.7957  -3.7486  -3.7004  -3.6336
    -3.6133  -3.5280  -3.4865  -3.4550  -3.4391  -3.4095  -3.3939  -3.3402
    -3.3213  -3.1752  -3.1241  -2.9502  -2.8558  -2.7687  -2.7416  -2.7092
    -2.6509  -2.6287  -2.6088  -2.5850  -2.5018  -2.2018  -2.0011  -1.9452
    -1.9217  -0.9476  -0.6698  -0.4217  -0.1123  -0.0969  -0.0078   0.0445
     0.1180   0.1804   0.1925   0.2336   0.2915   0.3120   0.4552   0.4968
     0.5121   0.5772   0.6159   0.6292   0.7009   0.7306   0.7510   0.7644
     0.8020   0.8382   0.9010   0.9141   1.0097   1.0211   1.0760   1.3471
     1.4189

     the Fermi energy is    -0.9480 ev

!    total energy              =   -2205.57664931 Ry
     estimated scf accuracy    <       0.00000002 Ry
     smearing contrib. (-TS)   =      -0.00572794 Ry
     internal energy E=F+TS    =   -2205.57092137 Ry

     The total energy is F=E-TS. E is the sum of the following terms:
     one-electron contribution =  -18042.31675497 Ry
     hartree contribution      =    9008.38189406 Ry
     xc contribution           =    -385.31654361 Ry
     ewald contribution        =    7213.68048315 Ry

     convergence has been achieved in   9 iterations

     negative rho (up, down):  1.376E-04 0.000E+00

     Forces acting on atoms (cartesian axes, Ry/au):

     atom    1 type  1   force =    -0.00372409   -0.00266719   -0.00492345
     atom    2 type  2   force =    -0.00344269    0.00573747   -0.00094591
     atom    3 type  2   force =    -0.00817236    0.00486903   -0.01096106
     atom    4 type  1   force =     0.00522099   -0.00049641    0.00164520
     atom    5 type  2   force =     0.00202320   -0.00555028   -0.00482362
     atom    6 type  2   force =     0.00311311    0.00295187    0.00322688
     atom    7 type  1   force =    -0.00154337   -0.00180323    0.00025244
     atom    8 type  2   force =    -0.00078055   -0.00299936    0.00528904
     atom    9 type  2   force =     0.00882341    0.00252514    0.00548513
     atom   10 type  1   force =    -0.00066846    0.00554721   -0.00003650
     atom   11 type  2   force =     0.00239208    0.00014852   -0.00954774
     atom   12 type  2   force =    -0.00113239   -0.00088887   -0.00420812
     atom   13 type  1   force =     0.00226423   -0.00051374   -0.00070699
     atom   14 type  2   force =     0.00625784    0.00197133    0.00152246
     atom   15 type  2   force =    -0.00444906    0.00288900   -0.01031534
     atom   16 type  1   force =     0.00100894   -0.00016127    0.00015704
     atom   17 type  2   force =     0.00501123    0.00028508    0.00182687
     atom   18 type  2   force =    -0.00306388   -0.00214716    0.00798634
     atom   19 type  1   force =     0.00840271    0.00058094    0.00854726
     atom   20 type  2   force =     0.00149163   -0.00602430   -0.00527040
     atom   21 type  1   force =    -0.00034835    0.00556104    0.00221737
     atom   22 type  2   force =     0.00244503    0.00195659    0.00456050
     atom   23 type  2   force =    -0.00021184   -0.00152572    0.00467409
     atom   24 type  1   force =    -0.00321878    0.00000466   -0.00349326
     atom   25 type  2   force =     0.00388833    0.01421379   -0.00102246
     atom   26 type  2   force =    -0.00345667   -0.00285228   -0.00222581
     atom   27 type  1   force =    -0.00154110   -0.00163887    0.00461674
     atom   28 type  2   force =    -0.00054347   -0.00374772   -0.00190356
     atom   29 type  2   force =     0.00189756    0.00194772   -0.00557674
     atom   30 type  1   force =     0.00072184   -0.00130983    0.00455405
     atom   31 type  2   force =     0.00177505   -0.00021187    0.00372817
     atom   32 type  2   force =    -0.00163656    0.00215593    0.00755393
     atom   33 type  1   force =     0.00360209    0.00357811    0.01010756
     atom   34 type  2   force =    -0.00327421   -0.01828309   -0.01245913
     atom   35 type  2   force =    -0.00077502    0.00801446    0.00587932
     atom   36 type  3   force =    -0.01835641   -0.01211669   -0.00541031
     The non-local contrib.  to forces
     atom    1 type  1   force =     0.00271556    0.03272756   -0.01443379
     atom    2 type  2   force =    -0.00250749   -0.00745115   -0.26716482
     atom    3 type  2   force =    -0.00912497   -0.00908791    0.26395037
     atom    4 type  1   force =     0.00083824    0.01149170    0.00296290
     atom    5 type  2   force =     0.00854444   -0.03655534   -0.25501971
     atom    6 type  2   force =     0.00055180    0.00204799    0.26405310
     atom    7 type  1   force =    -0.02603311   -0.01185153   -0.02270862
     atom    8 type  2   force =     0.00498072   -0.00535769   -0.26484969
     atom    9 type  2   force =     0.00353578   -0.00997648    0.27354465
     atom   10 type  1   force =     0.00064865    0.00230112   -0.00224118
     atom   11 type  2   force =     0.01118572    0.00948757   -0.25215454
     atom   12 type  2   force =    -0.01408597   -0.01276072    0.26021620
     atom   13 type  1   force =     0.00134715    0.02720641   -0.00751107
     atom   14 type  2   force =     0.00691208   -0.00200892   -0.24137843
     atom   15 type  2   force =    -0.00629104   -0.00800433    0.26131821
     atom   16 type  1   force =    -0.00278294    0.04065561   -0.02105578
     atom   17 type  2   force =     0.00105190   -0.02946652   -0.25063888
     atom   18 type  2   force =    -0.00190023   -0.00434925    0.26955665
     atom   19 type  1   force =     0.03046031    0.00588183   -0.01753381
     atom   20 type  2   force =    -0.00422230   -0.01676097    0.26081552
     atom   21 type  1   force =     0.00912996    0.01670818    0.00045041
     atom   22 type  2   force =     0.16161089    0.18256983    0.06204483
     atom   23 type  2   force =     0.01022107   -0.01279417    0.27057502
     atom   24 type  1   force =     0.00069055    0.02272843   -0.00797898
     atom   25 type  2   force =     0.00479766   -0.00438092   -0.26194683
     atom   26 type  2   force =     0.00272820   -0.01752759    0.26696700
     atom   27 type  1   force =    -0.00191148    0.00976766    0.00560649
     atom   28 type  2   force =    -0.00391087   -0.02619690   -0.26938180
     atom   29 type  2   force =     0.00660771   -0.00031070    0.26047733
     atom   30 type  1   force =    -0.00704031    0.01118904    0.01153210
     atom   31 type  2   force =    -0.01292017   -0.00501918   -0.25552560
     atom   32 type  2   force =     0.00493555   -0.01386633    0.27688268
     atom   33 type  1   force =    -0.00319217    0.00609614   -0.01016764
     atom   34 type  2   force =    -0.00342146   -0.01903496   -0.27274887
     atom   35 type  2   force =     0.00273302   -0.00696790    0.26858518
     atom   36 type  3   force =    -0.02492880   -0.02536709   -0.03861251
     The ionic contribution  to forces
     atom    1 type  1   force =     0.05975382    1.01711244    5.68821381
     atom    2 type  2   force =    -0.24515018    0.22281522   39.43261262
     atom    3 type  2   force =    -0.04475634    0.02378150  -36.39805104
     atom    4 type  1   force =    -0.11980814    0.80255027    0.82907024
     atom    5 type  2   force =    -0.95253000    1.54610329   38.58604884
     atom    6 type  2   force =     0.33041591   -0.53021065  -37.87569579
     atom    7 type  1   force =    -2.15913555   -2.88740823    2.14738367
     atom    8 type  2   force =    -1.03882579    0.03335985   37.47436873
     atom    9 type  2   force =     0.36741012   -0.08934601  -37.84561428
     atom   10 type  1   force =    -0.42525995   -0.47792114    5.11078703
     atom   11 type  2   force =    -0.15641714   -1.78632758   38.81707784
     atom   12 type  2   force =     0.47427111    0.52017531  -37.95315533
     atom   13 type  1   force =     0.27058622    1.19522263    2.48083038
     atom   14 type  2   force =     0.09589558    0.44491526   38.45276228
     atom   15 type  2   force =     0.17380750    0.15185127  -37.12412933
     atom   16 type  1   force =    -0.01862145    3.75324273    0.44941334
[...]
     atom   27 type  1   force =    -0.00318890    0.00495887    0.00098508
     atom   28 type  2   force =     0.00210715   -0.01460959   -0.26957032
     atom   29 type  2   force =     0.00015609   -0.01110256    0.26417234
     atom   30 type  1   force =    -0.00603873    0.01360482    0.00808606
     atom   31 type  2   force =    -0.00129140   -0.00117816   -0.25844990
     atom   32 type  2   force =     0.00988435   -0.01363670    0.27426611
     atom   33 type  1   force =    -0.01160199    0.00635623   -0.00548748
     atom   34 type  2   force =     0.00833534   -0.00431578   -0.26521830
     atom   35 type  2   force =    -0.00015381   -0.00960822    0.26664209
     atom   36 type  3   force =    -0.00573830   -0.01670615   -0.05696031
     The ionic contribution  to forces
     atom    1 type  1   force =     0.01931203    0.52692420    1.72002397
     atom    2 type  2   force =    -0.18592042    0.05450735   38.87208059
     atom    3 type  2   force =     0.11964164   -0.26803704  -37.58798228
     atom    4 type  1   force =     0.04934434    0.88537160    0.47743520
     atom    5 type  2   force =    -0.90537567    1.26663484   38.49525436
     atom    6 type  2   force =     0.27312275   -0.19897768  -38.45702445
     atom    7 type  1   force =    -2.46722074   -1.55039417    3.54236022
     atom    8 type  2   force =    -1.08844518    0.18272788   38.23711469
     atom    9 type  2   force =     0.35833187    0.25092063  -37.66265462
     atom   10 type  1   force =    -0.58533387   -0.79869078    3.29955074
     atom   11 type  2   force =    -0.31970561   -1.55597802   38.37739800
     atom   12 type  2   force =     0.26103900    0.03879669  -37.57609948
     atom   13 type  1   force =    -0.02358368    0.88331164    1.60423541
     atom   14 type  2   force =     0.09889997    0.21702600   38.55898551
     atom   15 type  2   force =    -0.00855165   -0.18408887  -37.96587101
     atom   16 type  1   force =    -0.83679002    3.95123148    0.66585995
     atom   17 type  2   force =     0.83226067    1.49473345   38.10475016
     atom   18 type  2   force =    -0.26327403   -0.05079128  -38.08411704
     atom   19 type  1   force =     2.19326657   -2.77978036    2.82330937
     atom   20 type  2   force =    -0.14225414    0.09934446  -38.50366740
     atom   21 type  1   force =     0.47681099   -0.79567590    0.40109057
     atom   22 type  2   force =     0.22615706   -2.10745559   36.65099218
     atom   23 type  2   force =    -0.29162947    0.13735876  -37.70629587
     atom   24 type  1   force =    -0.01317904    0.33685551    2.22335476
     atom   25 type  2   force =     0.11984826    0.33278999   38.92405548
     atom   26 type  2   force =    -0.10405001   -0.16644754  -37.61325568
     atom   27 type  1   force =     0.65285289    1.14308144    0.94261041
     atom   28 type  2   force =     0.07111032    0.64024659   38.36733223
     atom   29 type  2   force =     0.06440078    0.03669206  -37.80269500
     atom   30 type  1   force =     0.08781901   -0.76779182    2.21507878
     atom   31 type  2   force =     1.32745830    0.03160096   37.90489432
     atom   32 type  2   force =    -0.23050873    0.10754677  -37.46051090
     atom   33 type  1   force =     0.07343658   -0.90599986    3.73282842
     atom   34 type  2   force =    -0.05017887   -0.65143092   38.96714999
     atom   35 type  2   force =     0.05326997    0.00005942  -37.30370092
     atom   36 type  3   force =     0.15761813    0.16377815    8.61612934
     The local contribution  to forces
     atom    1 type  1   force =    -0.01895996   -0.55724479   -1.71784774
     atom    2 type  2   force =     0.18532715   -0.04210542  -38.62878514
     atom    3 type  2   force =    -0.11734062    0.27835699   37.34124450
     atom    4 type  1   force =    -0.04901936   -0.89657137   -0.48118639
     atom    5 type  2   force =     0.90170291   -1.24114105  -38.26025530
     atom    6 type  2   force =    -0.27442234    0.20560927   38.21693215
     atom    7 type  1   force =     2.50400084    1.56050906   -3.51558510
     atom    8 type  2   force =     1.07844699   -0.18509751  -37.99245704
     atom    9 type  2   force =    -0.35540229   -0.23578879   37.41519606
     atom   10 type  1   force =     0.58515994    0.79359652   -3.30168923
     atom   11 type  2   force =     0.31950004    1.55643835  -38.14132457
     atom   12 type  2   force =    -0.24980631   -0.03068038   37.32841448
     atom   13 type  1   force =     0.02142152   -0.91124415   -1.59634948
     atom   14 type  2   force =    -0.09625525   -0.20323968  -38.32503622
     atom   15 type  2   force =     0.00828294    0.19226131   37.72462139
     atom   16 type  1   force =     0.84664426   -3.99516739   -0.64826460
     atom   17 type  2   force =    -0.82452730   -1.47288992  -37.87345662
     atom   18 type  2   force =     0.25966948    0.05817341   37.83956313
     atom   19 type  1   force =    -2.22653957    2.78299337   -2.80883218
     atom   20 type  2   force =     0.14424721   -0.08671660   38.26239594
     atom   21 type  1   force =    -0.48308586    0.77752949   -0.39741021
     atom   22 type  2   force =    -0.25557807    1.99717720  -36.87288953
     atom   23 type  2   force =     0.28480339   -0.12773260   37.45422257
     atom   24 type  1   force =     0.01527484   -0.36132616   -2.22274863
     atom   25 type  2   force =    -0.12207919   -0.31445995  -38.68658164
     atom   26 type  2   force =     0.10130991    0.17743844   37.36610503
     atom   27 type  1   force =    -0.64991384   -1.14779457   -0.94359828
     atom   28 type  2   force =    -0.07279705   -0.62590701  -38.11833196
     atom   29 type  2   force =    -0.06433225   -0.02626873   37.55902556
     atom   30 type  1   force =    -0.08120232    0.75479220   -2.22278227
     atom   31 type  2   force =    -1.32529059   -0.03113504  -37.66599941
     atom   32 type  2   force =     0.22221341   -0.09434685   37.20628497
     atom   33 type  1   force =    -0.06186632    0.89961896   -3.72760770
     atom   34 type  2   force =     0.04262669    0.65650761  -38.72306763
     atom   35 type  2   force =    -0.05351408    0.00960083   37.05793058
     atom   36 type  3   force =    -0.15232103   -0.14801589   -8.55994967
     The core correction contribution to forces
     atom    1 type  1   force =     0.00000000    0.00000000    0.00000000
     atom    2 type  2   force =    -0.00014655    0.00074713    0.02063812
     atom    3 type  2   force =     0.00020907    0.00035544   -0.02095882
     atom    4 type  1   force =     0.00000000    0.00000000    0.00000000
     atom    5 type  2   force =    -0.00050626    0.00123673    0.02037996
     atom    6 type  2   force =     0.00021434   -0.00009607   -0.02070637
     atom    7 type  1   force =     0.00000000    0.00000000    0.00000000
     atom    8 type  2   force =    -0.00049843    0.00014756    0.02066501
     atom    9 type  2   force =     0.00036001    0.00083676   -0.02079169
     atom   10 type  1   force =     0.00000000    0.00000000    0.00000000
     atom   11 type  2   force =     0.00034428   -0.00033631    0.02005911
     atom   12 type  2   force =     0.00089076    0.00038717   -0.02083859
     atom   13 type  1   force =     0.00000000    0.00000000    0.00000000
     atom   14 type  2   force =     0.00027543    0.00087165    0.02016634
     atom   15 type  2   force =     0.00003500    0.00054125   -0.02069891
     atom   16 type  1   force =     0.00000000    0.00000000    0.00000000
     atom   17 type  2   force =     0.00071541    0.00113519    0.02014400
     atom   18 type  2   force =    -0.00024327    0.00013657   -0.02080561
     atom   19 type  1   force =     0.00000000    0.00000000    0.00000000
     atom   20 type  2   force =    -0.00003033    0.00048200   -0.02115893
     atom   21 type  1   force =     0.00000000    0.00000000    0.00000000
     atom   22 type  2   force =    -0.00206756   -0.00744283   -0.00865646
     atom   23 type  2   force =    -0.00070918    0.00076332   -0.02121446
     atom   24 type  1   force =     0.00000000    0.00000000    0.00000000
     atom   25 type  2   force =    -0.00004122    0.00135197    0.02027822
     atom   26 type  2   force =    -0.00014783    0.00054216   -0.02104662
     atom   27 type  1   force =     0.00000000    0.00000000    0.00000000
     atom   28 type  2   force =    -0.00015456    0.00099084    0.02096386
     atom   29 type  2   force =     0.00001913    0.00036898   -0.02070238
     atom   30 type  1   force =     0.00000000    0.00000000    0.00000000
     atom   31 type  2   force =     0.00010718    0.00006126    0.02029014
     atom   32 type  2   force =    -0.00058624    0.00070520   -0.02098541
     atom   33 type  1   force =     0.00000000    0.00000000    0.00000000
     atom   34 type  2   force =    -0.00055067    0.00003989    0.02072212
     atom   35 type  2   force =     0.00009369    0.00058821   -0.02100051
     atom   36 type  3   force =     0.00000000    0.00000000    0.00000000
     The Hubbard contrib.    to forces
     atom    1 type  1   force =     0.00000000    0.00000000    0.00000000
     atom    2 type  2   force =     0.00000000    0.00000000    0.00000000
     atom    3 type  2   force =     0.00000000    0.00000000    0.00000000
     atom    4 type  1   force =     0.00000000    0.00000000    0.00000000
     atom    5 type  2   force =     0.00000000    0.00000000    0.00000000
     atom    6 type  2   force =     0.00000000    0.00000000    0.00000000
     atom    7 type  1   force =     0.00000000    0.00000000    0.00000000
     atom    8 type  2   force =     0.00000000    0.00000000    0.00000000
     atom    9 type  2   force =     0.00000000    0.00000000    0.00000000
     atom   10 type  1   force =     0.00000000    0.00000000    0.00000000
     atom   11 type  2   force =     0.00000000    0.00000000    0.00000000
     atom   12 type  2   force =     0.00000000    0.00000000    0.00000000
     atom   13 type  1   force =     0.00000000    0.00000000    0.00000000
     atom   14 type  2   force =     0.00000000    0.00000000    0.00000000
     atom   15 type  2   force =     0.00000000    0.00000000    0.00000000
     atom   16 type  1   force =     0.00000000    0.00000000    0.00000000
     atom   17 type  2   force =     0.00000000    0.00000000    0.00000000
     atom   18 type  2   force =     0.00000000    0.00000000    0.00000000
     atom   19 type  1   force =     0.00000000    0.00000000    0.00000000
     atom   20 type  2   force =     0.00000000    0.00000000    0.00000000
     atom   21 type  1   force =     0.00000000    0.00000000    0.00000000
     atom   22 type  2   force =     0.00000000    0.00000000    0.00000000
     atom   23 type  2   force =     0.00000000    0.00000000    0.00000000
     atom   24 type  1   force =     0.00000000    0.00000000    0.00000000
     atom   25 type  2   force =     0.00000000    0.00000000    0.00000000
     atom   26 type  2   force =     0.00000000    0.00000000    0.00000000
     atom   27 type  1   force =     0.00000000    0.00000000    0.00000000
     atom   28 type  2   force =     0.00000000    0.00000000    0.00000000
     atom   29 type  2   force =     0.00000000    0.00000000    0.00000000
     atom   30 type  1   force =     0.00000000    0.00000000    0.00000000
     atom   31 type  2   force =     0.00000000    0.00000000    0.00000000
     atom   32 type  2   force =     0.00000000    0.00000000    0.00000000
     atom   33 type  1   force =     0.00000000    0.00000000    0.00000000
     atom   34 type  2   force =     0.00000000    0.00000000    0.00000000
     atom   35 type  2   force =     0.00000000    0.00000000    0.00000000
     atom   36 type  3   force =     0.00000000    0.00000000    0.00000000
     The SCF correction term to forces
     atom    1 type  1   force =    -0.00000316   -0.00000907   -0.00005570
     atom    2 type  2   force =     0.00001010   -0.00000308   -0.00002562
     atom    3 type  2   force =     0.00000037    0.00000077   -0.00000515
     atom    4 type  1   force =     0.00001142   -0.00000264   -0.00001532
     atom    5 type  2   force =     0.00000623    0.00000585   -0.00001680
     atom    6 type  2   force =    -0.00000298   -0.00000291   -0.00001202
     atom    7 type  1   force =    -0.00001640    0.00002387   -0.00001176
     atom    8 type  2   force =     0.00000433    0.00000274   -0.00000643
     atom    9 type  2   force =    -0.00001083   -0.00000177   -0.00000206
     atom   10 type  1   force =    -0.00000362    0.00000363   -0.00002684
     atom   11 type  2   force =    -0.00000764   -0.00001335   -0.00002572
     atom   12 type  2   force =    -0.00000628    0.00000263    0.00000374
     atom   13 type  1   force =    -0.00000533    0.00000133   -0.00004820
     atom   14 type  2   force =    -0.00000658   -0.00000854   -0.00003356
     atom   15 type  2   force =    -0.00000299   -0.00000375   -0.00000964
     atom   16 type  1   force =    -0.00000907    0.00000417   -0.00002749
     atom   17 type  2   force =    -0.00001391    0.00000640   -0.00001729
     atom   18 type  2   force =    -0.00000133   -0.00001211    0.00000054
     atom   19 type  1   force =     0.00001422    0.00002732    0.00001424
     atom   20 type  2   force =     0.00000334    0.00000974    0.00001033
     atom   21 type  1   force =    -0.00001526   -0.00002311   -0.00003571
     atom   22 type  2   force =     0.00000024   -0.00002074   -0.00002145
     atom   23 type  2   force =     0.00000730    0.00000733    0.00001295
     atom   24 type  1   force =     0.00000562   -0.00000133   -0.00003621
     atom   25 type  2   force =    -0.00000621   -0.00000400   -0.00002159
     atom   26 type  2   force =     0.00000549    0.00000512   -0.00000606
     atom   27 type  1   force =     0.00000403   -0.00001289   -0.00000682
     atom   28 type  2   force =     0.00000687    0.00000828   -0.00001128
     atom   29 type  2   force =     0.00000073   -0.00000592    0.00000214
     atom   30 type  1   force =     0.00001251    0.00001472    0.00001110
     atom   31 type  2   force =     0.00000522    0.00000498    0.00000568
     atom   32 type  2   force =     0.00000365   -0.00000009    0.00000091
     atom   33 type  1   force =     0.00001322   -0.00000516   -0.00001590
     atom   34 type  2   force =     0.00000719   -0.00000674   -0.00000971
     atom   35 type  2   force =    -0.00000261    0.00000134   -0.00000202
     atom   36 type  3   force =    -0.00000129   -0.00000396   -0.00000466

     Total force =     0.005849     Total SCF correction =     0.000146
     Energy error            =      7.1E-05 Ry
     Gradient error          =      1.2E-03 Ry/Bohr

     bfgs converged in  26 scf cycles and  25 bfgs steps
     (criteria: energy <  1.0E-04 Ry, force <  1.0E-02 Ry/Bohr)

     End of BFGS Geometry Optimization

     Final energy             =   -2205.5972244968 Ry

     File ./MoS2-V-O.bfgs deleted, as requested
Begin final coordinates

ATOMIC_POSITIONS (angstrom)
Mo            6.5878309778        1.7687489723        2.7458888979
S             8.1466344770        0.8659706727        4.3694757425
S             8.1680062249        0.8382290915        1.1719603753
Mo            8.1484906265        4.4934053468        2.7135711510
S             6.5541875258        3.6647568491        4.3107207488
S             6.5933774127        3.5628961123        1.0917315661
Mo            6.5053914479        7.1626353707        2.6907088453
S             8.0907070523        6.3003206244        4.3121395469
S             8.1455838062        6.3328558047        1.1294309973
Mo            8.1541473495        9.9408193174        2.7835197948
S             6.5366619590        8.9527144642        4.3370479414
S             6.6049570485        9.0252886483        1.1462019612
Mo            3.4500750167        1.7649426586        2.7453268554
S             5.0246598105        0.8552885299        4.3413456932
S             5.0209745499        0.8566573127        1.1457205230
Mo            5.0423627331        4.5148379354        2.6364628058
S             3.5033382496        3.6681666304        4.2941177624
S             3.4384079547        3.5720902957        1.1035320554
Mo            3.5005218289        7.2248447172        2.6796768973
S             4.9860698196        6.3144234340        1.0540063110
Mo            5.0209418060        9.9527281302        2.7318817540
S             3.4965138550        9.0102968757        4.2995099947
S             3.4073383060        9.0674913792        1.1486303834
Mo            0.2808322240        1.7577611922        2.7682848532
S             1.8745923196        0.8914542915        4.3758419725
S             1.8599783507        0.8499620918        1.1746940362
Mo            1.8779559672        4.4858412718        2.7198171795
S             0.2799284481        3.6124226792        4.3232205751
S             0.2866480619        3.5697361452        1.1415666146
Mo            0.2778082411        7.2268128355        2.7494744717
S             1.9149990210        6.3071164631        4.2977150330
S             1.8662041099        6.3305126250        1.1331273294
Mo            1.8537378518        9.9703800756        2.7963985286
S             0.2659611912        9.0320872319        4.3791238561
S             0.2834339408        9.0569915847        1.1904615806
H             3.6260918910        9.3940365276        5.6224269021
End final coordinates



     Writing all to output data dir ./MoS2-V-O.save/
 
     init_run     :      2.39s CPU      2.66s WALL (       1 calls)
     electrons    :   2222.23s CPU   2478.33s WALL (      26 calls)
     update_pot   :     35.34s CPU     37.44s WALL (      25 calls)
     forces       :     35.06s CPU     40.74s WALL (      26 calls)

     Called by init_run:
     wfcinit      :      0.39s CPU      0.43s WALL (       1 calls)
     potinit      :      1.32s CPU      1.44s WALL (       1 calls)
     hinit0       :      0.17s CPU      0.18s WALL (       1 calls)

     Called by electrons:
     c_bands      :    288.25s CPU    293.24s WALL (     217 calls)
     sum_band     :     64.74s CPU     83.72s WALL (     217 calls)
     v_of_rho     :     92.07s CPU    112.74s WALL (     225 calls)
     newd         :     29.83s CPU     47.37s WALL (     225 calls)
     mix_rho      :   1758.19s CPU   1952.75s WALL (     217 calls)

     Called by c_bands:
     init_us_2    :      4.58s CPU      4.95s WALL (     435 calls)
     init_us_2:cp :      4.58s CPU      4.95s WALL (     435 calls)
     regterg      :    271.96s CPU    276.53s WALL (     217 calls)

     Called by *egterg:
     rdiaghg      :     20.56s CPU     20.80s WALL (    1146 calls)
     h_psi        :    148.16s CPU    149.58s WALL (    1190 calls)
     s_psi        :     17.85s CPU     17.92s WALL (    1190 calls)
     g_psi        :      1.65s CPU      1.66s WALL (     972 calls)

     Called by h_psi:
     h_psi:calbec :     21.28s CPU     21.41s WALL (    1190 calls)
     vloc_psi     :    105.79s CPU    106.93s WALL (    1190 calls)
     add_vuspsi   :     17.88s CPU     18.02s WALL (    1190 calls)

     General routines
     calbec       :     30.36s CPU     30.55s WALL (    1511 calls)
     fft          :     60.11s CPU     70.75s WALL (   15250 calls)
     ffts         :    790.29s CPU    978.31s WALL (  429287 calls)
     fftw         :     90.58s CPU     91.40s WALL (  132717 calls)
     interpolate  :      1.65s CPU      1.96s WALL (     225 calls)
 
     Parallel routines
 
     PWSCF        :  38m19.60s CPU  42m47.21s WALL

 
   This run was terminated on:  10: 3:40   4Nov2023            

=------------------------------------------------------------------------------=
   JOB DONE.
=------------------------------------------------------------------------------=
