
     Program PWSCF v.7.2 starts on  4Nov2023 at  3:57:57 

     This program is part of the open-source Quantum ESPRESSO suite
     for quantum simulation of materials; please cite
         "P. Giannozzi et al., J. Phys.:Condens. Matter 21 395502 (2009);
         "P. Giannozzi et al., J. Phys.:Condens. Matter 29 465901 (2017);
         "P. Giannozzi et al., J. Chem. Phys. 152 154105 (2020);
          URL http://www.quantum-espresso.org", 
     in publications or presentations arising from this work. More details at
     http://www.quantum-espresso.org/quote

     Parallel version (MPI & OpenMP), running on      48 processor cores
     Number of MPI processes:                48
     Threads/MPI process:                     1

     MPI processes distributed on     1 nodes
     108496 MiB available memory on the printing compute node when the environment starts
 
     Waiting for input...
     Reading input from standard input
Warning: card &CELL ignored
Warning: card CELL_DYNAMICS = 'BFGS', ignored
Warning: card CELL_DOFREE = '2DXY' ignored
Warning: card / ignored

     Current dimensions of program PWSCF are:
     Max number of different atomic species (ntypx) = 10
     Max number of k-points (npk) =  40000
     Max angular momentum in pseudopotentials (lmaxx) =  4

     IMPORTANT: XC functional enforced from input :
     Exchange-correlation= RVV10
                           (   1   4  13   4  26   0   0)
     Any further DFT definition will be discarded
     Please, verify this is what you really want


     gamma-point specific algorithms are used
     signal trapping enabled: kill the code with -SIGUSR1 to stop cleanly the simulation 
 
     R & G space division:  proc/nbgrp/npool/nimage =      48
     Subspace diagonalization in iterative solution of the eigenvalue problem:
     one sub-group per band group will be used
     scalapack distributed-memory algorithm (size of sub-group:  2*  2 procs)

 
     Parallelization info
     --------------------
     sticks:   dense  smooth     PW     G-vecs:    dense   smooth      PW
     Min         243     194     47                49060    35090    4376
     Max         246     196     50                49086    35128    4410
     Sum       11735    9389   2349              2355467  1685513  210763
 
     Using Slab Decomposition
 


     bravais-lattice index     =            0
     lattice parameter (alat)  =      17.8707  a.u.
     unit-cell volume          =   17436.2743 (a.u.)^3
     number of atoms/cell      =           36
     number of atomic types    =            3
     number of electrons       =       307.00
     number of Kohn-Sham states=          185
     kinetic-energy cutoff     =      80.0000  Ry
     charge density cutoff     =     400.0000  Ry
     scf convergence threshold =      1.0E-06
     mixing beta               =       0.7000
     number of iterations used =            8  local-TF  mixing
     energy convergence thresh.=      1.0E-04
     force convergence thresh. =      1.0E-02
     Exchange-correlation= RVV10
                           (   1   4  13   4  26   0   0)
     nstep                     =          200


     celldm(1)=  17.870686  celldm(2)=   0.000000  celldm(3)=   0.000000
     celldm(4)=   0.000000  celldm(5)=   0.000000  celldm(6)=   0.000000

     crystal axes: (cart. coord. in units of alat)
               a(1) = (   1.000000   0.000000   0.000000 )  
               a(2) = (   0.000000   1.155671   0.000000 )  
               a(3) = (   0.000000   0.000000   2.643601 )  

     reciprocal axes: (cart. coord. in units 2 pi/alat)
               b(1) = (  1.000000  0.000000  0.000000 )  
               b(2) = (  0.000000  0.865298  0.000000 )  
               b(3) = (  0.000000  0.000000  0.378272 )  


     PseudoPot. # 1 for Mo read from file:
     ../pseudo/Mo_ONCV_PBE-1.0.oncvpsp.upf
     MD5 check sum: 1b5d28e075c9ccadda658a603575cd1f
     Pseudo is Norm-conserving, Zval = 14.0
     Generated using ONCVPSP code by D. R. Hamann
     Using radial grid of 1526 points,  6 beta functions with: 
                l(1) =   0
                l(2) =   0
                l(3) =   1
                l(4) =   1
                l(5) =   2
                l(6) =   2

     PseudoPot. # 2 for S  read from file:
     ../pseudo/s_pbe_v1.4.uspp.F.UPF
     MD5 check sum: 88d86576ff6df21479756cfb9bdac1df
     Pseudo is Ultrasoft + core correction, Zval =  6.0
     Generated by new atomic code, or converted to UPF format
     Using radial grid of  907 points,  6 beta functions with: 
                l(1) =   0
                l(2) =   0
                l(3) =   1
                l(4) =   1
                l(5) =   2
                l(6) =   2
     Q(r) pseudized with  8 coefficients,  rinner =    1.300   1.300   1.300
                                                       1.300   1.300

     PseudoPot. # 3 for H  read from file:
     ../pseudo/H_ONCV_PBE-1.0.oncvpsp.upf
     MD5 check sum: 1790becc920ee074925cf490c71280fe
     Pseudo is Norm-conserving, Zval =  1.0
     Generated using ONCVPSP code by D. R. Hamann
     Using radial grid of 1166 points,  2 beta functions with: 
                l(1) =   0
                l(2) =   0

     atomic species   valence    mass     pseudopotential
        Mo            14.00    95.94000     Mo( 1.00)
        S              6.00    32.06500     S ( 1.00)
        H              1.00     1.00794     H ( 1.00)

     No symmetry found



   Cartesian axes

     site n.     atom                  positions (alat units)
         1           Mo  tau(   1) = (   0.6952221   0.1890506   0.2985846  )
         2           S   tau(   2) = (   0.8646417   0.0856217   0.4689279  )
         3           S   tau(   3) = (   0.8663890   0.0857843   0.1351291  )
         4           Mo  tau(   4) = (   0.8560186   0.4753274   0.2873942  )
         5           S   tau(   5) = (   0.6873294   0.3936244   0.4596353  )
         6           S   tau(   6) = (   0.6929804   0.3713468   0.1185692  )
         7           Mo  tau(   7) = (   0.6862796   0.7633098   0.2825370  )
         8           S   tau(   8) = (   0.8545980   0.6708292   0.4486168  )
         9           S   tau(   9) = (   0.8545123   0.6666874   0.1146125  )
        10           Mo  tau(  10) = (   0.8629403   1.0471007   0.3006803  )
        11           S   tau(  11) = (   0.6868280   0.9456650   0.4634891  )
        12           S   tau(  12) = (   0.6998113   0.9568511   0.1205389  )
        13           Mo  tau(  13) = (   0.3618216   0.1847309   0.2935964  )
        14           S   tau(  14) = (   0.5260962   0.0863870   0.4600448  )
        15           S   tau(  15) = (   0.5348379   0.0894875   0.1297123  )
        16           Mo  tau(  16) = (   0.5265817   0.4772436   0.2784130  )
        17           S   tau(  17) = (   0.3624753   0.3882513   0.4525556  )
        18           S   tau(  18) = (   0.3635411   0.3752055   0.1119148  )
        19           Mo  tau(  19) = (   0.3652268   0.7630864   0.2781795  )
        20           S   tau(  20) = (   0.5269494   0.6690381   0.1096838  )
        21           Mo  tau(  21) = (   0.5300192   1.0470394   0.2900995  )
        22           S   tau(  22) = (   0.3670346   0.9457522   0.4574073  )
        23           S   tau(  23) = (   0.3604225   0.9585725   0.1159032  )
        24           Mo  tau(  24) = (   0.0313099   0.1847895   0.3013130  )
        25           S   tau(  25) = (   0.1956761   0.0838230   0.4650863  )
        26           S   tau(  26) = (   0.1967693   0.0903508   0.1278874  )
        27           Mo  tau(  27) = (   0.1967578   0.4753919   0.2813011  )
        28           S   tau(  28) = (   0.0287851   0.3864324   0.4586755  )
        29           S   tau(  29) = (   0.0244514   0.3729871   0.1239344  )
        30           Mo  tau(  30) = (   0.0286728   0.7631204   0.2856894  )
        31           S   tau(  31) = (   0.2011512   0.6675435   0.4465001  )
        32           S   tau(  32) = (   0.1969214   0.6672839   0.1104564  )
        33           Mo  tau(  33) = (   0.1950294   1.0511147   0.2932237  )
        34           S   tau(  34) = (   0.0312912   0.9612169   0.4667423  )
        35           S   tau(  35) = (   0.0292670   0.9563028   0.1216485  )
        36           H   tau(  36) = (   0.3333333   0.6420393   0.5792558  )

     number of k points=     1  Gaussian smearing, width (Ry)=  0.0100
                       cart. coord. in units 2pi/alat
        k(    1) = (   0.0000000   0.0000000   0.0000000), wk =   2.0000000

     Dense  grid:  1177734 G-vectors     FFT dimensions: ( 120, 135, 320)

     Smooth grid:   842757 G-vectors     FFT dimensions: ( 108, 120, 270)

     Estimated max dynamical RAM per process >     146.59 MB

     Estimated total dynamical RAM >       6.87 GB

     Initial potential from superposition of free atoms

     starting charge     306.9873, renormalised to     307.0000

     negative rho (up, down):  1.399E-04 0.000E+00


---------------------------------------------------------------------------------
Carrying out rVV10 run using the following parameters:
Nqs =      20    Nr_points =    1024   r_max =   100.000
b_value =  6.30000    beta =  0.00901
     q_mesh =  0.00010000  0.00030000  0.00058939  0.00100810
               0.00161396  0.00249058  0.00375900  0.00559430
               0.00824984  0.01209221  0.01765183  0.02569619
               0.03733578  0.05417739  0.07854596  0.11380545
               0.16482331  0.23864234  0.34545298  0.50000000

Gradients computed in Reciprocal space

---------------------------------------------------------------------------------


     Starting wfcs are  213 randomized atomic wfcs

     total cpu time spent up to now is        2.9 secs

     Self-consistent Calculation

     iteration #  1     ecut=    80.00 Ry     beta= 0.70
     Davidson diagonalization with overlap
     ethr =  1.00E-02,  avg # of iterations =  2.0

     Threshold (ethr) on eigenvalues was too large:
     Diagonalizing with lowered threshold

     Davidson diagonalization with overlap
     ethr =  3.84E-04,  avg # of iterations =  4.0

     negative rho (up, down):  1.984E-08 0.000E+00

     total cpu time spent up to now is       20.9 secs

     total energy              =   -2205.56920415 Ry
     estimated scf accuracy    <       1.47059959 Ry

     iteration #  2     ecut=    80.00 Ry     beta= 0.70
     Davidson diagonalization with overlap
     ethr =  4.79E-04,  avg # of iterations =  2.0

     total cpu time spent up to now is       23.3 secs

     total energy              =   -2205.44988100 Ry
     estimated scf accuracy    <       0.56416406 Ry

     iteration #  3     ecut=    80.00 Ry     beta= 0.70
     Davidson diagonalization with overlap
     ethr =  1.84E-04,  avg # of iterations =  5.0

     total cpu time spent up to now is       25.9 secs

     total energy              =   -2205.50130992 Ry
     estimated scf accuracy    <       0.11426200 Ry

     iteration #  4     ecut=    80.00 Ry     beta= 0.70
     Davidson diagonalization with overlap
     ethr =  3.72E-05,  avg # of iterations = 11.0

     total cpu time spent up to now is       28.9 secs

     total energy              =   -2205.51368737 Ry
     estimated scf accuracy    <       0.02655329 Ry

     iteration #  5     ecut=    80.00 Ry     beta= 0.70
     Davidson diagonalization with overlap
     ethr =  8.65E-06,  avg # of iterations = 10.0

     total cpu time spent up to now is       31.4 secs

     total energy              =   -2205.51227255 Ry
     estimated scf accuracy    <       0.01613782 Ry

     iteration #  6     ecut=    80.00 Ry     beta= 0.70
     Davidson diagonalization with overlap
     ethr =  5.26E-06,  avg # of iterations =  2.0

     total cpu time spent up to now is       33.6 secs

     total energy              =   -2205.51146733 Ry
     estimated scf accuracy    <       0.00995115 Ry

     iteration #  7     ecut=    80.00 Ry     beta= 0.70
     Davidson diagonalization with overlap
     ethr =  3.24E-06,  avg # of iterations =  2.0

     negative rho (up, down):  2.196E-05 0.000E+00

     total cpu time spent up to now is       38.7 secs

     total energy              =   -2205.51009843 Ry
     estimated scf accuracy    <       0.00593922 Ry

     iteration #  8     ecut=    80.00 Ry     beta= 0.70
     Davidson diagonalization with overlap
     c_bands:  1 eigenvalues not converged
     ethr =  1.93E-06,  avg # of iterations = 20.0

     negative rho (up, down):  9.448E-03 0.000E+00

     total cpu time spent up to now is       44.0 secs

     total energy              =   -2205.50977124 Ry
     estimated scf accuracy    <       0.00306954 Ry

     iteration #  9     ecut=    80.00 Ry     beta= 0.70
     Davidson diagonalization with overlap
     ethr =  1.00E-06,  avg # of iterations = 12.0

     negative rho (up, down):  3.020E-02 0.000E+00

     total cpu time spent up to now is       48.3 secs

     total energy              =   -2205.50978301 Ry
     estimated scf accuracy    <       0.00184563 Ry

     iteration # 10     ecut=    80.00 Ry     beta= 0.70
     Davidson diagonalization with overlap
     ethr =  6.01E-07,  avg # of iterations =  2.0

     negative rho (up, down):  2.720E-02 0.000E+00

     total cpu time spent up to now is       53.1 secs

     total energy              =   -2205.50988334 Ry
     estimated scf accuracy    <       0.00057975 Ry

     iteration # 11     ecut=    80.00 Ry     beta= 0.70
     Davidson diagonalization with overlap
     ethr =  1.89E-07,  avg # of iterations =  2.0

     negative rho (up, down):  1.120E-02 0.000E+00

     total cpu time spent up to now is       57.8 secs

     total energy              =   -2205.50992076 Ry
     estimated scf accuracy    <       0.00012223 Ry

     iteration # 12     ecut=    80.00 Ry     beta= 0.70
     Davidson diagonalization with overlap
     ethr =  3.98E-08,  avg # of iterations =  5.0

     negative rho (up, down):  3.431E-03 0.000E+00

     total cpu time spent up to now is       65.1 secs

     total energy              =   -2205.50996958 Ry
     estimated scf accuracy    <       0.00001660 Ry

     iteration # 13     ecut=    80.00 Ry     beta= 0.70
     Davidson diagonalization with overlap
     ethr =  5.41E-09,  avg # of iterations =  5.0

     negative rho (up, down):  3.456E-04 0.000E+00

     total cpu time spent up to now is       76.2 secs

     total energy              =   -2205.50997380 Ry
     estimated scf accuracy    <       0.00000307 Ry

     iteration # 14     ecut=    80.00 Ry     beta= 0.70
     Davidson diagonalization with overlap
     ethr =  1.00E-09,  avg # of iterations =  4.0

     negative rho (up, down):  1.363E-04 0.000E+00

     total cpu time spent up to now is       78.5 secs

     End of self-consistent calculation

          k = 0.0000 0.0000 0.0000 (105382 PWs)   bands (ev):

   -62.8985 -62.8862 -62.8829 -62.8606 -62.8358 -62.8305 -62.8235 -62.8136
   -62.8101 -62.7885 -62.7803 -62.7503 -37.2473 -37.1782 -37.1678 -37.1502
   -37.1370 -37.1182 -37.0986 -37.0879 -37.0796 -37.0747 -37.0696 -37.0629
   -37.0482 -37.0432 -37.0199 -37.0193 -37.0142 -37.0093 -36.9985 -36.9911
   -36.9846 -36.9657 -36.9631 -36.9469 -36.9410 -36.9338 -36.9252 -36.9168
   -36.9111 -36.8964 -36.8657 -36.8569 -36.8332 -36.8110 -36.7684 -36.7226
   -16.0124 -15.3046 -15.1916 -15.0345 -14.9072 -14.8224 -14.6662 -14.5114
   -14.4542 -14.4180 -14.3893 -14.3464 -14.3256 -14.2857 -14.1833 -14.1454
   -14.1245 -14.1007 -14.0392 -13.9178 -13.8594 -13.8303 -13.8061  -7.7202
    -7.6712  -7.4458  -7.3141  -7.2638  -7.2204  -7.2056  -7.1751  -7.0268
    -6.8398  -6.8187  -6.7648  -6.7217  -6.5887  -6.5140  -6.4387  -6.4087
    -6.3588  -6.2690  -6.1072  -5.9572  -5.9293  -5.8684  -5.8313  -5.7641
    -5.7485  -5.7173  -5.6977  -5.6704  -5.6338  -5.5567  -5.5371  -5.5160
    -5.4542  -5.4330  -5.1756  -5.1473  -5.0738  -5.0033  -4.9971  -4.9474
    -4.9096  -4.8492  -4.7079  -4.5534  -4.4516  -4.3197  -4.2905  -4.2416
    -4.1777  -4.0473  -4.0183  -3.9978  -3.8151  -3.7848  -3.7663  -3.6979
    -3.6699  -3.5741  -3.5567  -3.5245  -3.4806  -3.4677  -3.4426  -3.4007
    -3.3683  -3.2362  -3.1382  -2.9149  -2.8923  -2.8048  -2.7818  -2.7493
    -2.7252  -2.6877  -2.6416  -2.6407  -2.5958  -2.3195  -2.0278  -1.9971
    -1.9430  -1.0863  -0.8057  -0.7463  -0.1856  -0.1424  -0.1167  -0.0383
     0.0922   0.1347   0.1745   0.2281   0.2375   0.2707   0.3143   0.4069
     0.4766   0.5016   0.5453   0.5700   0.5900   0.6511   0.7025   0.7497
     0.7593   0.8113   0.8178   0.8838   0.9053   0.9585   1.0346   1.1192
     1.3789

     the Fermi energy is    -1.0868 ev

!    total energy              =   -2205.50997739 Ry
     estimated scf accuracy    <       0.00000029 Ry
     smearing contrib. (-TS)   =      -0.00573147 Ry
     internal energy E=F+TS    =   -2205.50424591 Ry

     The total energy is F=E-TS. E is the sum of the following terms:
     one-electron contribution =  -18040.55370693 Ry
     hartree contribution      =    9006.91740460 Ry
     xc contribution           =    -385.18285086 Ry
     ewald contribution        =    7213.31490728 Ry

     convergence has been achieved in  14 iterations

     negative rho (up, down):  1.363E-04 0.000E+00

     Forces acting on atoms (cartesian axes, Ry/au):

     atom    1 type  1   force =     0.01236131   -0.02560418    0.00573729
     atom    2 type  2   force =    -0.01409342    0.01694875    0.00052055
     atom    3 type  2   force =    -0.01163254    0.00888394   -0.00323982
     atom    4 type  1   force =     0.00637648    0.00407876    0.00041213
     atom    5 type  2   force =    -0.00142518   -0.00590930   -0.00775156
     atom    6 type  2   force =     0.00134125    0.01094308    0.00074224
     atom    7 type  1   force =     0.00435109   -0.01351805   -0.00916608
     atom    8 type  2   force =    -0.00113999   -0.00333966    0.01605999
     atom    9 type  2   force =     0.01446829    0.00867775    0.01344762
     atom   10 type  1   force =    -0.01167758    0.01034177   -0.02716094
     atom   11 type  2   force =     0.00451674   -0.00134267   -0.00816632
     atom   12 type  2   force =    -0.00115072    0.00097942    0.00769244
     atom   13 type  1   force =     0.00433349    0.00191163   -0.01106442
     atom   14 type  2   force =     0.00811506   -0.00003766    0.01211780
     atom   15 type  2   force =    -0.01279082    0.00339990   -0.00841028
     atom   16 type  1   force =    -0.00323418    0.01153534    0.00485851
     atom   17 type  2   force =     0.00456014    0.00326306    0.00386130
     atom   18 type  2   force =    -0.00322387   -0.00638993    0.01311821
     atom   19 type  1   force =     0.00957471   -0.00170315   -0.01588946
     atom   20 type  2   force =     0.00291440   -0.00444188    0.00146751
     atom   21 type  1   force =    -0.00604870    0.00571506   -0.00024487
     atom   22 type  2   force =    -0.00245876   -0.00224869   -0.00308475
     atom   23 type  2   force =    -0.00084596    0.00037483    0.01045531
     atom   24 type  1   force =    -0.00756441   -0.00241630   -0.02123828
     atom   25 type  2   force =     0.01592324    0.01738759    0.00819334
     atom   26 type  2   force =    -0.01150658   -0.00035358   -0.00344315
     atom   27 type  1   force =     0.00742541    0.00211511    0.01725399
     atom   28 type  2   force =    -0.00298127   -0.00358499   -0.00434039
     atom   29 type  2   force =     0.00122025   -0.00190997   -0.00332821
     atom   30 type  1   force =    -0.01914482    0.02002191   -0.02527238
     atom   31 type  2   force =     0.05484894   -0.02426615    0.06640925
     atom   32 type  2   force =    -0.00951842    0.00682570    0.00825537
     atom   33 type  1   force =     0.01346752   -0.00542020   -0.00994700
     atom   34 type  2   force =     0.00185800   -0.03856594   -0.00764077
     atom   35 type  2   force =    -0.00788313    0.00585641    0.01542965
     atom   36 type  3   force =    -0.03933597    0.00179229   -0.03664382
     The non-local contrib.  to forces
     atom    1 type  1   force =    -0.00060409    0.03172331   -0.01245647
     atom    2 type  2   force =    -0.00843727    0.00216953   -0.27032509
     atom    3 type  2   force =    -0.01436946   -0.00192920    0.27044519
     atom    4 type  1   force =    -0.00091090    0.00315705    0.00558814
     atom    5 type  2   force =     0.00567353   -0.03246425   -0.25197299
     atom    6 type  2   force =    -0.00163614    0.01258093    0.26240094
     atom    7 type  1   force =    -0.01930914    0.00116611   -0.02171662
     atom    8 type  2   force =    -0.00098907   -0.00523345   -0.25256337
     atom    9 type  2   force =     0.00809640   -0.00569180    0.27828381
     atom   10 type  1   force =     0.00547203    0.00168085   -0.00072939
     atom   11 type  2   force =     0.01372998    0.00382946   -0.26007694
     atom   12 type  2   force =    -0.01220080   -0.01638889    0.26348770
     atom   13 type  1   force =     0.00026916    0.02086383   -0.00715811
     atom   14 type  2   force =     0.01063225   -0.01177288   -0.26371044
     atom   15 type  2   force =    -0.01325655   -0.00596507    0.26085778
     atom   16 type  1   force =     0.00206918    0.02406944   -0.03065712
     atom   17 type  2   force =     0.00516023   -0.01338737   -0.24639461
     atom   18 type  2   force =    -0.00629057   -0.00152421    0.27389703
     atom   19 type  1   force =     0.01227388    0.00469866   -0.01483996
     atom   20 type  2   force =    -0.00029631   -0.02055427    0.26480167
     atom   21 type  1   force =     0.00240475    0.02624285    0.00746367
     atom   22 type  2   force =    -0.00271325    0.00448660   -0.25468566
     atom   23 type  2   force =     0.00737431   -0.01659330    0.26912479
     atom   24 type  1   force =     0.00644496    0.01194307   -0.01088169
     atom   25 type  2   force =     0.00949580    0.00503254   -0.26040664
     atom   26 type  2   force =    -0.00324284   -0.01235680    0.26372018
     atom   27 type  1   force =    -0.00150324    0.01346113    0.00546566
     atom   28 type  2   force =    -0.00567156   -0.02407411   -0.27382477
     atom   29 type  2   force =     0.00565288    0.00066332    0.26318761
     atom   30 type  1   force =     0.01086988    0.00865249    0.00484756
     atom   31 type  2   force =     0.21463585   -0.02089624   -0.01907686
     atom   32 type  2   force =    -0.00200534   -0.01003269    0.27818077
     atom   33 type  1   force =    -0.00452453    0.01035413    0.00497108
     atom   34 type  2   force =    -0.00685340   -0.03020222   -0.26644974
     atom   35 type  2   force =    -0.00110647   -0.01417297    0.27192091
     atom   36 type  3   force =    -0.01225320    0.00180557   -0.01300448
     The ionic contribution  to forces
     atom    1 type  1   force =     0.43240944    0.15708425    5.69088669
     atom    2 type  2   force =    -0.66876152    0.39745682   39.28523795
     atom    3 type  2   force =    -0.16591291    0.01258861  -36.07299069
     atom    4 type  1   force =     0.06940536    0.49930672    0.59538614
     atom    5 type  2   force =    -0.87993260    1.40370057   38.71885060
     atom    6 type  2   force =     0.36195790   -0.52665743  -38.03752535
     atom    7 type  1   force =    -2.46006381   -2.68427967    2.42249346
     atom    8 type  2   force =    -1.00734988    0.04211491   37.35581151
     atom    9 type  2   force =     0.33763322   -0.03163553  -38.02469498
     atom   10 type  1   force =    -1.11189479   -0.23786491    5.66269407
     atom   11 type  2   force =    -0.49678395   -1.51828040   39.12128796
     atom   12 type  2   force =     0.45646876    0.71877546  -37.85934546
     atom   13 type  1   force =     0.49239197    0.85594089    2.79024376
     atom   14 type  2   force =     0.08813441   -0.02063975   38.51323790
     atom   15 type  2   force =     0.16823534   -0.06882603  -36.80174371
     atom   16 type  1   force =     0.19363049    3.74189063    0.17059144
     atom   17 type  2   force =     0.85499004    1.11652361   37.75580620
     atom   18 type  2   force =    -0.15632298   -0.68988946  -38.61310475
     atom   19 type  1   force =     2.78977481   -2.15813511    0.02118493
     atom   20 type  2   force =     0.26349885   -0.18987022  -38.54763251
     atom   21 type  1   force =     0.11222060    0.19134152    1.10553254
     atom   22 type  2   force =     0.48936127   -1.42951561   38.32949782
     atom   23 type  2   force =    -0.08294335    0.70893695  -38.32458598
     atom   24 type  1   force =    -0.60775723    1.05786153    5.82361999
     atom   25 type  2   force =     0.63317471    0.26834000   39.26257304
     atom   26 type  2   force =    -0.29718485    0.05904959  -37.33248196
     atom   27 type  1   force =    -0.17385550    0.14501951   -2.65502237
     atom   28 type  2   force =    -0.05986326    0.88863684   38.16668957
     atom   29 type  2   force =    -0.28684120   -0.45758218  -37.28418020
     atom   30 type  1   force =    -0.54649044   -0.78527244   -0.23152501
     atom   31 type  2   force =     0.51428198    0.08637167   36.61912473
     atom   32 type  2   force =    -0.51007904    0.00177460  -38.71901063
     atom   33 type  1   force =     0.73249972   -0.69637008    1.99216152
     atom   34 type  2   force =     0.15940172   -1.33585893   39.33107984
     atom   35 type  2   force =    -0.31892959    0.50741294  -37.82611889
     atom   36 type  3   force =     0.68149629   -0.02944984    7.59597083
     The local contribution  to forces
     atom    1 type  1   force =    -0.41967422   -0.21419882   -5.67294705
     atom    2 type  2   force =     0.66292189   -0.38249996  -39.03518996
     atom    3 type  2   force =     0.16795296   -0.00171904   35.82008150
     atom    4 type  1   force =    -0.06220794   -0.49849619   -0.60089094
     atom    5 type  2   force =     0.87327690   -1.37899661  -38.49513348
     atom    6 type  2   force =    -0.35936635    0.52619808   37.79666922
     atom    7 type  1   force =     2.48361865    2.66956774   -2.41018839
     atom    8 type  2   force =     1.00716628   -0.04082516  -37.10762554
     atom    9 type  2   force =    -0.33108519    0.04558042   37.78076308
     atom   10 type  1   force =     1.09472468    0.24648698   -5.68936158
     atom   11 type  2   force =     0.48815478    1.51359133  -38.89010444
     atom   12 type  2   force =    -0.44657278   -0.70279798   37.62426841
     atom   13 type  1   force =    -0.48815978   -0.87461360   -2.79434734
     atom   14 type  2   force =    -0.09012080    0.03236071  -38.25823501
     atom   15 type  2   force =    -0.16851372    0.07789068   36.55298392
     atom   16 type  1   force =    -0.19911536   -3.75470562   -0.13527754
     atom   17 type  2   force =    -0.85544383   -1.10062588  -37.52579423
     atom   18 type  2   force =     0.15931278    0.68560685   38.37334702
     atom   19 type  1   force =    -2.79256142    2.15179080   -0.02254089
     atom   20 type  2   force =    -0.26051503    0.20515246   38.30531570
     atom   21 type  1   force =    -0.12081889   -0.21184546   -1.11350035
     atom   22 type  2   force =    -0.48914033    1.42312122  -38.09831114
     atom   23 type  2   force =     0.07532405   -0.69341966   38.08680341
     atom   24 type  1   force =     0.59379907   -1.07214714   -5.83411209
     atom   25 type  2   force =    -0.62659110   -0.25551755  -39.01475185
     atom   26 type  2   force =     0.28910944   -0.04765917   37.08609982
     atom   27 type  1   force =     0.18304362   -0.15646377    2.66657263
     atom   28 type  2   force =     0.06225993   -0.86988924  -37.91819669
     atom   29 type  2   force =     0.28293712    0.45555272   37.03815045
     atom   30 type  1   force =     0.51659428    0.79668741    0.20106818
     atom   31 type  2   force =    -0.66262860   -0.09110584  -36.54145104
     atom   32 type  2   force =     0.50283310    0.01451796   38.47026359
     atom   33 type  1   force =    -0.71435955    0.68042835   -2.00727549
     atom   34 type  2   force =    -0.15129645    1.32659830  -39.09313884
     atom   35 type  2   force =     0.31231662   -0.48857804   37.59061811
     atom   36 type  3   force =    -0.70858276    0.02943392   -7.61963973
     The core correction contribution to forces
     atom    1 type  1   force =     0.00000000    0.00000000    0.00000000
     atom    2 type  2   force =     0.00016835   -0.00014949    0.02075150
     atom    3 type  2   force =     0.00064932   -0.00001348   -0.02088962
     atom    4 type  1   force =     0.00000000    0.00000000    0.00000000
     atom    5 type  2   force =    -0.00057411    0.00180773    0.02033275
     atom    6 type  2   force =     0.00027689   -0.00118849   -0.02085397
     atom    7 type  1   force =     0.00000000    0.00000000    0.00000000
     atom    8 type  2   force =     0.00005643    0.00056885    0.02031460
     atom    9 type  2   force =    -0.00016152    0.00040482   -0.02104494
     atom   10 type  1   force =     0.00000000    0.00000000    0.00000000
     atom   11 type  2   force =    -0.00063289   -0.00044924    0.02066794
     atom   12 type  2   force =     0.00114225    0.00139475   -0.02085438
     atom   13 type  1   force =     0.00000000    0.00000000    0.00000000
     atom   14 type  2   force =    -0.00055923    0.00009412    0.02069023
     atom   15 type  2   force =     0.00072258    0.00037932   -0.02055024
     atom   16 type  1   force =     0.00000000    0.00000000    0.00000000
     atom   17 type  2   force =    -0.00006653    0.00074121    0.02008782
     atom   18 type  2   force =     0.00017821   -0.00056999   -0.02102718
     atom   19 type  1   force =     0.00000000    0.00000000    0.00000000
     atom   20 type  2   force =     0.00013132    0.00075212   -0.02116376
     atom   21 type  1   force =     0.00000000    0.00000000    0.00000000
     atom   22 type  2   force =     0.00002611   -0.00040202    0.02030270
     atom   23 type  2   force =    -0.00058804    0.00134338   -0.02095251
     atom   24 type  1   force =     0.00000000    0.00000000    0.00000000
     atom   25 type  2   force =    -0.00010924   -0.00039958    0.02068500
     atom   26 type  2   force =    -0.00011563    0.00067505   -0.02086105
     atom   27 type  1   force =     0.00000000    0.00000000    0.00000000
     atom   28 type  2   force =     0.00033999    0.00171080    0.02089868
     atom   29 type  2   force =    -0.00052420   -0.00052968   -0.02057865
     atom   30 type  1   force =     0.00000000    0.00000000    0.00000000
     atom   31 type  2   force =    -0.01136672    0.00138379    0.00783336
     atom   32 type  2   force =    -0.00018365    0.00060493   -0.02126594
     atom   33 type  1   force =     0.00000000    0.00000000    0.00000000
     atom   34 type  2   force =     0.00063949    0.00087500    0.02076270
     atom   35 type  2   force =    -0.00015899    0.00112950   -0.02110522
     atom   36 type  3   force =     0.00000000    0.00000000    0.00000000
     The Hubbard contrib.    to forces
     atom    1 type  1   force =     0.00000000    0.00000000    0.00000000
     atom    2 type  2   force =     0.00000000    0.00000000    0.00000000
     atom    3 type  2   force =     0.00000000    0.00000000    0.00000000
     atom    4 type  1   force =     0.00000000    0.00000000    0.00000000
     atom    5 type  2   force =     0.00000000    0.00000000    0.00000000
     atom    6 type  2   force =     0.00000000    0.00000000    0.00000000
     atom    7 type  1   force =     0.00000000    0.00000000    0.00000000
     atom    8 type  2   force =     0.00000000    0.00000000    0.00000000
     atom    9 type  2   force =     0.00000000    0.00000000    0.00000000
     atom   10 type  1   force =     0.00000000    0.00000000    0.00000000
     atom   11 type  2   force =     0.00000000    0.00000000    0.00000000
     atom   12 type  2   force =     0.00000000    0.00000000    0.00000000
     atom   13 type  1   force =     0.00000000    0.00000000    0.00000000
     atom   14 type  2   force =     0.00000000    0.00000000    0.00000000
     atom   15 type  2   force =     0.00000000    0.00000000    0.00000000
     atom   16 type  1   force =     0.00000000    0.00000000    0.00000000
     atom   17 type  2   force =     0.00000000    0.00000000    0.00000000
     atom   18 type  2   force =     0.00000000    0.00000000    0.00000000
     atom   19 type  1   force =     0.00000000    0.00000000    0.00000000
     atom   20 type  2   force =     0.00000000    0.00000000    0.00000000
     atom   21 type  1   force =     0.00000000    0.00000000    0.00000000
     atom   22 type  2   force =     0.00000000    0.00000000    0.00000000
     atom   23 type  2   force =     0.00000000    0.00000000    0.00000000
     atom   24 type  1   force =     0.00000000    0.00000000    0.00000000
     atom   25 type  2   force =     0.00000000    0.00000000    0.00000000
     atom   26 type  2   force =     0.00000000    0.00000000    0.00000000
     atom   27 type  1   force =     0.00000000    0.00000000    0.00000000
     atom   28 type  2   force =     0.00000000    0.00000000    0.00000000
     atom   29 type  2   force =     0.00000000    0.00000000    0.00000000
     atom   30 type  1   force =     0.00000000    0.00000000    0.00000000
     atom   31 type  2   force =     0.00000000    0.00000000    0.00000000
     atom   32 type  2   force =     0.00000000    0.00000000    0.00000000
     atom   33 type  1   force =     0.00000000    0.00000000    0.00000000
     atom   34 type  2   force =     0.00000000    0.00000000    0.00000000
     atom   35 type  2   force =     0.00000000    0.00000000    0.00000000
     atom   36 type  3   force =     0.00000000    0.00000000    0.00000000
     The SCF correction term to forces
     atom    1 type  1   force =     0.00022985   -0.00021537    0.00025148
     atom    2 type  2   force =     0.00001480   -0.00003060    0.00004351
     atom    3 type  2   force =     0.00004723   -0.00004540    0.00011117
     atom    4 type  1   force =     0.00008963    0.00010872    0.00032615
     atom    5 type  2   force =     0.00013077    0.00004080    0.00016892
     atom    6 type  2   force =     0.00010862    0.00000754    0.00004876
     atom    7 type  1   force =     0.00010507    0.00002531    0.00024282
     atom    8 type  2   force =    -0.00002407    0.00003273    0.00012014
     atom    9 type  2   force =    -0.00001495    0.00001738    0.00013801
     atom   10 type  1   force =     0.00002017    0.00003640    0.00023332
     atom   11 type  2   force =     0.00004850   -0.00003627    0.00005652
     atom   12 type  2   force =     0.00001153   -0.00000639    0.00013353
     atom   13 type  1   force =    -0.00016818   -0.00028195    0.00019462
     atom   14 type  2   force =     0.00002811   -0.00008232    0.00013249
     atom   15 type  2   force =     0.00002120   -0.00008145    0.00003933
     atom   16 type  1   force =     0.00018118    0.00027844    0.00019910
     atom   17 type  2   force =    -0.00008010    0.00000904    0.00015348
     atom   18 type  2   force =    -0.00010164   -0.00001557    0.00000345
     atom   19 type  1   force =     0.00008712   -0.00005995    0.00030382
     atom   20 type  2   force =     0.00009524    0.00007558    0.00014376
     atom   21 type  1   force =     0.00014452   -0.00002631    0.00025664
     atom   22 type  2   force =     0.00000712    0.00005866    0.00010889
     atom   23 type  2   force =    -0.00001326    0.00010501    0.00006297
     atom   24 type  1   force =    -0.00005154   -0.00007621    0.00013287
     atom   25 type  2   force =    -0.00004725   -0.00007027    0.00009115
     atom   26 type  2   force =    -0.00007303   -0.00006471    0.00007722
     atom   27 type  1   force =    -0.00025979    0.00009579    0.00023543
     atom   28 type  2   force =    -0.00004669    0.00002828    0.00009018
     atom   29 type  2   force =    -0.00000467   -0.00001660    0.00008994
     atom   30 type  1   force =    -0.00011888   -0.00004800    0.00033424
     atom   31 type  2   force =    -0.00007389   -0.00002199   -0.00002358
     atom   32 type  2   force =    -0.00008380   -0.00004155    0.00008495
     atom   33 type  1   force =    -0.00014844    0.00016495    0.00019326
     atom   34 type  2   force =    -0.00003369    0.00001946    0.00010264
     atom   35 type  2   force =    -0.00000502    0.00006253    0.00011209
     atom   36 type  3   force =     0.00000338    0.00000018    0.00002692

     Total force =     0.148326     Total SCF correction =     0.001288

     BFGS Geometry Optimization
     Energy error            =      0.0E+00 Ry
     Gradient error          =      6.6E-02 Ry/Bohr

     number of scf cycles    =   1
     number of bfgs steps    =   0

     energy             new  =   -2205.5099773876 Ry

     new trust radius        =       0.0894843032 bohr
     new conv_thr            =       0.0000010000 Ry


ATOMIC_POSITIONS (angstrom)
Mo            6.5810897313        1.7742570798        2.8266790732
S             8.1692514230        0.8186729193        4.4348138147
S             8.1870774119        0.8159429212        1.2761689890
Mo            8.0985368541        4.4972153338        2.7180364841
S             6.4991550856        3.7192844183        4.3425586996
S             6.5540595552        3.5175283867        1.1216730044
Mo            6.4922841945        7.2112838379        2.6670340027
S             8.0811244725        6.3421037199        4.2509601440
S             8.0885739365        6.3092943842        1.0909791707
Mo            8.1544395365        9.9076530429        2.8290888097
S             6.4975577503        8.9422163058        4.3787841052
S             6.6173382641        9.0492294975        1.1439779680
Mo            3.4239528456        1.7479674408        2.7706161252
S             4.9794597964        0.8169212802        4.3569455577
S             5.0510651463        0.8480612608        1.2222079313
Mo            4.9780452287        4.5192822419        2.6354555641
S             3.4302547834        3.6733264240        4.2817528904
S             3.4362145823        3.5448472947        1.0652935372
Mo            3.4589284576        7.2154232720        2.6222685204
S             4.9847764277        6.3245817466        1.0380303045
Mo            5.0090630863        9.9046243284        2.7432713834
S             3.4696569986        8.9425613116        4.3239589303
S             3.4079815003        9.0651883347        1.1016010103
Mo            0.2920875741        1.7462308806        2.8382058961
S             1.8588884259        0.8018951235        4.4025451685
S             1.8547110122        0.8542388092        1.2075788177
Mo            1.8646206684        4.4967860282        2.6693277971
S             0.2706362317        3.6525017319        4.3352872661
S             0.2318769365        3.5262385158        1.1702566725
Mo            0.2610211464        7.2272412322        2.6883228592
S             1.9312630562        6.2999577414        4.2575863826
S             1.8572012859        6.3139558178        1.0489278385
Mo            1.8514733698        9.9372709070        2.7676825248
S             0.2968961092        9.0695896082        4.4098261453
S             0.2725998278        9.0466247946        1.1585657981
H             3.1314376323        6.0725595484        5.4584923502



     Writing config-only to output data dir ./MoS2-V-O.save/
     NEW-OLD atomic charge density approx. for the potential

     negative rho (up, down):  1.455E-04 0.000E+00

     total cpu time spent up to now is       81.9 secs

     Self-consistent Calculation

     iteration #  1     ecut=    80.00 Ry     beta= 0.70
     Davidson diagonalization with overlap
     ethr =  1.00E-06,  avg # of iterations = 12.0

     negative rho (up, down):  5.338E-05 0.000E+00

     total cpu time spent up to now is       96.2 secs

     total energy              =   -2205.52910201 Ry
     estimated scf accuracy    <       0.00345325 Ry

     iteration #  2     ecut=    80.00 Ry     beta= 0.70
     Davidson diagonalization with overlap
     ethr =  1.12E-06,  avg # of iterations =  3.0

     negative rho (up, down):  4.310E-05 0.000E+00

     total cpu time spent up to now is      112.2 secs

     total energy              =   -2205.52924024 Ry
     estimated scf accuracy    <       0.00068763 Ry

     iteration #  3     ecut=    80.00 Ry     beta= 0.70
     Davidson diagonalization with overlap
     ethr =  2.24E-07,  avg # of iterations =  6.0

     negative rho (up, down):  3.861E-05 0.000E+00

     total cpu time spent up to now is      125.6 secs

     total energy              =   -2205.52927113 Ry
     estimated scf accuracy    <       0.00017322 Ry

     iteration #  4     ecut=    80.00 Ry     beta= 0.70
     Davidson diagonalization with overlap
     ethr =  5.64E-08,  avg # of iterations =  2.0

     negative rho (up, down):  3.640E-05 0.000E+00

     total cpu time spent up to now is      135.9 secs

     total energy              =   -2205.52929172 Ry
     estimated scf accuracy    <       0.00002127 Ry

     iteration #  5     ecut=    80.00 Ry     beta= 0.70
     Davidson diagonalization with overlap
     ethr =  6.93E-09,  avg # of iterations =  8.0

     negative rho (up, down):  3.416E-05 0.000E+00

     total cpu time spent up to now is      146.2 secs

     total energy              =   -2205.52929943 Ry
     estimated scf accuracy    <       0.00000862 Ry

     iteration #  6     ecut=    80.00 Ry     beta= 0.70
     Davidson diagonalization with overlap
     ethr =  2.81E-09,  avg # of iterations =  2.0

     negative rho (up, down):  3.101E-05 0.000E+00

     total cpu time spent up to now is      159.9 secs

     total energy              =   -2205.52930110 Ry
     estimated scf accuracy    <       0.00000304 Ry

     iteration #  7     ecut=    80.00 Ry     beta= 0.70
     Davidson diagonalization with overlap
     ethr =  9.91E-10,  avg # of iterations =  4.0

     negative rho (up, down):  3.279E-05 0.000E+00

     total cpu time spent up to now is      169.6 secs

     total energy              =   -2205.52930188 Ry
     estimated scf accuracy    <       0.00000171 Ry

     iteration #  8     ecut=    80.00 Ry     beta= 0.70
     Davidson diagonalization with overlap
     ethr =  5.55E-10,  avg # of iterations =  2.0

     negative rho (up, down):  1.365E-04 0.000E+00

     total cpu time spent up to now is      171.5 secs

     End of self-consistent calculation

          k = 0.0000 0.0000 0.0000 (105382 PWs)   bands (ev):

   -62.8885 -62.8755 -62.8682 -62.8470 -62.8225 -62.8144 -62.8091 -62.8018
   -62.7932 -62.7705 -62.7633 -62.7284 -37.2322 -37.1639 -37.1511 -37.1358
   -37.1196 -37.1053 -37.0893 -37.0718 -37.0658 -37.0594 -37.0576 -37.0527
   -37.0344 -37.0297 -37.0061 -37.0019 -36.9994 -36.9946 -36.9828 -36.9796
   -36.9689 -36.9516 -36.9464 -36.9302 -36.9218 -36.9139 -36.9107 -36.9028
   -36.8970 -36.8818 -36.8476 -36.8415 -36.8134 -36.7996 -36.7544 -36.7033
   -16.0029 -15.3115 -15.1828 -15.0300 -14.8907 -14.8156 -14.6629 -14.5020
   -14.4318 -14.4066 -14.3869 -14.3295 -14.3196 -14.2780 -14.1746 -14.1299
   -14.1131 -14.0974 -14.0326 -13.8908 -13.8523 -13.8317 -13.7953  -7.8123
    -7.6581  -7.4375  -7.2987  -7.2410  -7.2104  -7.2000  -7.1756  -7.0391
    -6.8340  -6.8028  -6.7532  -6.7061  -6.5746  -6.5054  -6.4227  -6.3885
    -6.3626  -6.2597  -6.1140  -5.9468  -5.8993  -5.8576  -5.8264  -5.7564
    -5.7434  -5.7055  -5.6973  -5.6607  -5.6302  -5.5360  -5.5340  -5.5034
    -5.4213  -5.4093  -5.1492  -5.1310  -5.0589  -4.9910  -4.9840  -4.9413
    -4.9046  -4.8526  -4.7066  -4.5463  -4.4564  -4.3168  -4.2722  -4.2290
    -4.1836  -4.0484  -4.0260  -3.9848  -3.7895  -3.7690  -3.7520  -3.6819
    -3.6711  -3.5704  -3.5294  -3.5239  -3.4760  -3.4581  -3.4260  -3.3900
    -3.3600  -3.2310  -3.1238  -2.8995  -2.8781  -2.7871  -2.7694  -2.7310
    -2.7048  -2.6789  -2.6399  -2.6241  -2.5876  -2.3014  -2.0155  -1.9878
    -1.9646  -1.0567  -0.7844  -0.7330  -0.1629  -0.1311  -0.1098  -0.0225
     0.0997   0.1425   0.1924   0.2589   0.2610   0.2956   0.3290   0.4226
     0.5069   0.5194   0.5624   0.5907   0.6130   0.6542   0.7284   0.7439
     0.7659   0.8190   0.8426   0.8913   0.9346   0.9843   1.0376   1.1563
     1.3803

     the Fermi energy is    -1.0574 ev

!    total energy              =   -2205.52930155 Ry
     estimated scf accuracy    <       0.00000074 Ry
     smearing contrib. (-TS)   =      -0.00576163 Ry
     internal energy E=F+TS    =   -2205.52353992 Ry

     The total energy is F=E-TS. E is the sum of the following terms:
     one-electron contribution =  -18040.20593341 Ry
     hartree contribution      =    9006.90346103 Ry
     xc contribution           =    -385.19605985 Ry
     ewald contribution        =    7212.97499231 Ry

     convergence has been achieved in   8 iterations

     negative rho (up, down):  1.365E-04 0.000E+00

     Forces acting on atoms (cartesian axes, Ry/au):

     atom    1 type  1   force =     0.00274239   -0.01260204    0.00007222
     atom    2 type  2   force =    -0.00850176    0.01076758   -0.00164169
     atom    3 type  2   force =    -0.01072071    0.00746040   -0.00907147
     atom    4 type  1   force =     0.00607007    0.00336730    0.00194461
     atom    5 type  2   force =    -0.00000843   -0.00613336   -0.00742886
     atom    6 type  2   force =     0.00115837    0.00760625    0.00375570
     atom    7 type  1   force =     0.00365369   -0.00825695   -0.00107894
     atom    8 type  2   force =    -0.00005407   -0.00197005    0.01009668
     atom    9 type  2   force =     0.01202086    0.00714762    0.00695142
     atom   10 type  1   force =    -0.00428431    0.00849114   -0.00922458
     atom   11 type  2   force =     0.00367167   -0.00123217   -0.01017223
     atom   12 type  2   force =    -0.00358653    0.00048134    0.00245780
     atom   13 type  1   force =     0.00380115    0.00208162   -0.00392066
     atom   14 type  2   force =     0.00552080   -0.00042083    0.00813948
     atom   15 type  2   force =    -0.00880791    0.00231241   -0.00722284
     atom   16 type  1   force =    -0.00223130    0.00750149    0.00291889
     atom   17 type  2   force =     0.00624198   -0.00082531    0.00396216
     atom   18 type  2   force =    -0.00241321   -0.00329844    0.01111564
     atom   19 type  1   force =     0.00633694   -0.00265392   -0.00530644
     atom   20 type  2   force =     0.00282521   -0.00443173   -0.00388759
     atom   21 type  1   force =    -0.00419979    0.00374221    0.00261113
     atom   22 type  2   force =    -0.00107203   -0.00205288   -0.00424705
     atom   23 type  2   force =     0.00069270    0.00056942    0.00386572
     atom   24 type  1   force =    -0.00473414   -0.00202166   -0.00894310
     atom   25 type  2   force =     0.01124456    0.01302154    0.00071547
     atom   26 type  2   force =    -0.00800044   -0.00089884   -0.00496734
     atom   27 type  1   force =     0.00374516    0.00094950    0.01428153
     atom   28 type  2   force =    -0.00288805   -0.00427757   -0.00474882
     atom   29 type  2   force =     0.00311768    0.00113487   -0.00286926
     atom   30 type  1   force =    -0.00759271    0.00505209   -0.00531049
     atom   31 type  2   force =     0.05120907   -0.01637696    0.05816391
     atom   32 type  2   force =    -0.00875555    0.00536476    0.00782016
     atom   33 type  1   force =     0.00550775   -0.00237205    0.00142813
     atom   34 type  2   force =    -0.00079957   -0.02837709   -0.01410947
     atom   35 type  2   force =    -0.00672894    0.00904892    0.00577554
     atom   36 type  3   force =    -0.04418059    0.00210137   -0.04192536
     The non-local contrib.  to forces
     atom    1 type  1   force =     0.00125331    0.02799239   -0.01287934
     atom    2 type  2   force =    -0.00425447   -0.00187613   -0.26976098
     atom    3 type  2   force =    -0.01201803   -0.00389502    0.26540194
     atom    4 type  1   force =    -0.00021594    0.00430907    0.00483899
     atom    5 type  2   force =     0.00653117   -0.03283278   -0.25251426
     atom    6 type  2   force =    -0.00181562    0.00924032    0.26582881
     atom    7 type  1   force =    -0.01894405   -0.00010832   -0.02387372
     atom    8 type  2   force =    -0.00121775   -0.00543043   -0.25503078
     atom    9 type  2   force =     0.00652206   -0.00572397    0.27420983
     atom   10 type  1   force =     0.00414112    0.00178440   -0.00173342
     atom   11 type  2   force =     0.01197149    0.00324619   -0.26170265
     atom   12 type  2   force =    -0.01358322   -0.01704301    0.26150935
     atom   13 type  1   force =     0.00160849    0.02173408   -0.00714224
     atom   14 type  2   force =     0.00850508   -0.01172505   -0.26550557
     atom   15 type  2   force =    -0.01038117   -0.00690444    0.26091413
     atom   16 type  1   force =     0.00187088    0.02639076   -0.03146835
     atom   17 type  2   force =     0.00637592   -0.01604412   -0.24728567
     atom   18 type  2   force =    -0.00564064    0.00000851    0.27300168
     atom   19 type  1   force =     0.01547425    0.00623001   -0.01562646
     atom   20 type  2   force =    -0.00038344   -0.01902444    0.26142285
     atom   21 type  1   force =     0.00189749    0.02649998    0.00611670
     atom   22 type  2   force =    -0.00070120    0.00327387   -0.25454811
     atom   23 type  2   force =     0.00857604   -0.01665851    0.26495351
     atom   24 type  1   force =     0.00419854    0.01213002   -0.01028310
     atom   25 type  2   force =     0.00607039    0.00125033   -0.26487148
     atom   26 type  2   force =    -0.00049312   -0.01233576    0.26290237
     atom   27 type  1   force =    -0.00073945    0.01476695    0.00281925
     atom   28 type  2   force =    -0.00544079   -0.02315241   -0.27385864
     atom   29 type  2   force =     0.00631418    0.00090485    0.26450294
     atom   30 type  1   force =     0.00755341    0.01048105    0.00374260
     atom   31 type  2   force =     0.24289468   -0.02627350   -0.00485021
     atom   32 type  2   force =    -0.00147409   -0.01018114    0.27895665
     atom   33 type  1   force =    -0.00237751    0.00871306    0.00285201
     atom   34 type  2   force =    -0.00926400   -0.02037252   -0.27001859
     atom   35 type  2   force =    -0.00094952   -0.01178403    0.26629385
     atom   36 type  3   force =    -0.01565232    0.00236067   -0.01628006
     The ionic contribution  to forces
     atom    1 type  1   force =     0.19105034    0.52898941    5.79041751
     atom    2 type  2   force =    -0.47155088    0.27719824   39.36624274
     atom    3 type  2   force =    -0.14512521    0.05819028  -36.19332468
     atom    4 type  1   force =     0.09311498    0.42798948    0.67885782
     atom    5 type  2   force =    -0.86641697    1.37786130   38.61577128
     atom    6 type  2   force =     0.32388214   -0.57066518  -37.92883306
     atom    7 type  1   force =    -2.47962086   -2.54876414    2.35781965
     atom    8 type  2   force =    -0.92153775    0.06494181   37.46533539
     atom    9 type  2   force =     0.31317985   -0.13673944  -38.02128419
     atom   10 type  1   force =    -0.85683115   -0.24683603    5.37345025
     atom   11 type  2   force =    -0.45653104   -1.53530020   39.06921819
     atom   12 type  2   force =     0.36654193    0.67267888  -37.83592241
     atom   13 type  1   force =     0.44894334    0.84491517    2.62548519
     atom   14 type  2   force =     0.00505722    0.00627103   38.59659902
     atom   15 type  2   force =     0.19613920   -0.01430189  -36.85831526
     atom   16 type  1   force =     0.30368384    3.50807636    0.31700934
     atom   17 type  2   force =     0.88422155    1.00204869   37.78406211
     atom   18 type  2   force =    -0.16327995   -0.63358312  -38.54676942
     atom   19 type  1   force =     2.47618905   -2.15385887   -0.28617587
     atom   20 type  2   force =     0.25625416   -0.22257086  -38.62638660
     atom   21 type  1   force =     0.11666805    0.13242732    1.24896889
     atom   22 type  2   force =     0.45672188   -1.44603477   38.33437302
     atom   23 type  2   force =    -0.07111647    0.69750798  -38.32262056
     atom   24 type  1   force =    -0.40040166    0.97880290    5.51648587
     atom   25 type  2   force =     0.51463928    0.20985662   39.23430649
     atom   26 type  2   force =    -0.26935625    0.06334984  -37.31457656
     atom   27 type  1   force =    -0.38114734    0.31830764   -2.20672299
     atom   28 type  2   force =    -0.06588106    0.84047243   38.12192126
     atom   29 type  2   force =    -0.22785265   -0.36042824  -37.27223486
     atom   30 type  1   force =    -0.08755435   -1.13791166   -0.44644816
     atom   31 type  2   force =     0.26375839    0.28299472   36.73950351
     atom   32 type  2   force =    -0.50876340   -0.08646584  -38.59212735
     atom   33 type  1   force =     0.51624098   -0.54430749    2.10068924
     atom   34 type  2   force =     0.13721553   -1.19785588   39.23816559
     atom   35 type  2   force =    -0.23842458    0.57584177  -37.78347559
     atom   36 type  3   force =     0.74788985   -0.03309825    7.66053519
     The local contribution  to forces
     atom    1 type  1   force =    -0.18937573   -0.56979086   -5.77839375
     atom    2 type  2   force =     0.46708778   -0.26438321  -39.11942266
     atom    3 type  2   force =     0.14588545   -0.04695424   35.93947903
     atom    4 type  1   force =    -0.08684559   -0.42899219   -0.68275991
     atom    5 type  2   force =     0.86050557   -1.35296240  -38.39137508
     atom    6 type  2   force =    -0.32113451    0.57011427   37.68740157
     atom    7 type  1   force =     2.50219749    2.54061440   -2.33617996
     atom    8 type  2   force =     0.92249148   -0.06207236  -37.22114168
     atom    9 type  2   force =    -0.30756475    0.14942829   37.77484543
     atom   10 type  1   force =     0.84830828    0.25348529   -5.38229074
     atom   11 type  2   force =     0.44869457    1.53129364  -38.83885289
     atom   12 type  2   force =    -0.35762125   -0.65653640   37.59744461
     atom   13 type  1   force =    -0.44691786   -0.86452484   -2.62338485
     atom   14 type  2   force =    -0.00743861    0.00486230  -38.34419376
     atom   15 type  2   force =    -0.19523412    0.02299780   36.61053818
     atom   16 type  1   force =    -0.30786529   -3.52683258   -0.28364712
     atom   17 type  2   force =    -0.88428939   -0.98757584  -37.55341439
     atom   18 type  2   force =     0.16633201    0.63082445   38.30574610
     atom   19 type  1   force =    -2.48495140    2.14510430    0.29519546
     atom   20 type  2   force =    -0.25318413    0.23655077   38.38198379
     atom   21 type  1   force =    -0.12269658   -0.15517081   -1.25360230
     atom   22 type  2   force =    -0.45694184    1.44115176  -38.10484077
     atom   23 type  2   force =     0.06386562   -0.68164024   38.08218365
     atom   24 type  1   force =     0.39142187   -0.99279370   -5.51628770
     atom   25 type  2   force =    -0.50940304   -0.19775675  -38.98994807
     atom   26 type  2   force =     0.26205753   -0.05253691   37.06730292
     atom   27 type  1   force =     0.38573734   -0.33268406    2.21698530
     atom   28 type  2   force =     0.06812165   -0.82328170  -37.87417788
     atom   29 type  2   force =     0.22516760    0.36102382   37.02529792
     atom   30 type  1   force =     0.07205820    1.13277813    0.43602548
     atom   31 type  2   force =    -0.44188770   -0.27508195  -36.68297343
     atom   32 type  2   force =     0.50171495    0.10156124   38.34197380
     atom   33 type  1   force =    -0.50830897    0.53321334   -2.10333292
     atom   34 type  2   force =    -0.12946334    1.18926165  -39.00357661
     atom   35 type  2   force =     0.23268353   -0.55617647   37.54369522
     atom   36 type  3   force =    -0.77639455    0.03283225   -7.68624588
     The core correction contribution to forces
     atom    1 type  1   force =     0.00000000    0.00000000    0.00000000
     atom    2 type  2   force =     0.00010075   -0.00006589    0.02077220
     atom    3 type  2   force =     0.00054065    0.00010313   -0.02078882
     atom    4 type  1   force =     0.00000000    0.00000000    0.00000000
     atom    5 type  2   force =    -0.00061026    0.00179405    0.02028297
     atom    6 type  2   force =     0.00024928   -0.00106276   -0.02090713
     atom    7 type  1   force =     0.00000000    0.00000000    0.00000000
     atom    8 type  2   force =     0.00011974    0.00059996    0.02039299
     atom    9 type  2   force =    -0.00011488    0.00031997   -0.02098711
     atom   10 type  1   force =     0.00000000    0.00000000    0.00000000
     atom   11 type  2   force =    -0.00050117   -0.00044436    0.02068447
     atom   12 type  2   force =     0.00112516    0.00138458   -0.02078153
     atom   13 type  1   force =     0.00000000    0.00000000    0.00000000
     atom   14 type  2   force =    -0.00052553    0.00012085    0.02075992
     atom   15 type  2   force =     0.00063944    0.00044800   -0.02056198
     atom   16 type  1   force =     0.00000000    0.00000000    0.00000000
     atom   17 type  2   force =    -0.00008307    0.00074061    0.02009395
     atom   18 type  2   force =     0.00013719   -0.00059062   -0.02102271
     atom   19 type  1   force =     0.00000000    0.00000000    0.00000000
     atom   20 type  2   force =     0.00015363    0.00066198   -0.02108223
     atom   21 type  1   force =     0.00000000    0.00000000    0.00000000
     atom   22 type  2   force =    -0.00007885   -0.00037547    0.02027468
     atom   23 type  2   force =    -0.00061163    0.00135576   -0.02085641
     atom   24 type  1   force =     0.00000000    0.00000000    0.00000000
     atom   25 type  2   force =    -0.00000453   -0.00024777    0.02078402
     atom   26 type  2   force =    -0.00022384    0.00066233   -0.02082475
     atom   27 type  1   force =     0.00000000    0.00000000    0.00000000
     atom   28 type  2   force =     0.00031233    0.00158896    0.02089241
     atom   29 type  2   force =    -0.00050385   -0.00046653   -0.02062596
     atom   30 type  1   force =     0.00000000    0.00000000    0.00000000
     atom   31 type  2   force =    -0.01346495    0.00194966    0.00614592
     atom   32 type  2   force =    -0.00022305    0.00052305   -0.02129713
     atom   33 type  1   force =     0.00000000    0.00000000    0.00000000
     atom   34 type  2   force =     0.00070081    0.00050645    0.02085196
     atom   35 type  2   force =    -0.00012155    0.00110036   -0.02095038
     atom   36 type  3   force =     0.00000000    0.00000000    0.00000000
     The Hubbard contrib.    to forces
     atom    1 type  1   force =     0.00000000    0.00000000    0.00000000
     atom    2 type  2   force =     0.00000000    0.00000000    0.00000000
     atom    3 type  2   force =     0.00000000    0.00000000    0.00000000
     atom    4 type  1   force =     0.00000000    0.00000000    0.00000000
     atom    5 type  2   force =     0.00000000    0.00000000    0.00000000
     atom    6 type  2   force =     0.00000000    0.00000000    0.00000000
     atom    7 type  1   force =     0.00000000    0.00000000    0.00000000
     atom    8 type  2   force =     0.00000000    0.00000000    0.00000000
     atom    9 type  2   force =     0.00000000    0.00000000    0.00000000
     atom   10 type  1   force =     0.00000000    0.00000000    0.00000000
     atom   11 type  2   force =     0.00000000    0.00000000    0.00000000
     atom   12 type  2   force =     0.00000000    0.00000000    0.00000000
     atom   13 type  1   force =     0.00000000    0.00000000    0.00000000
     atom   14 type  2   force =     0.00000000    0.00000000    0.00000000
     atom   15 type  2   force =     0.00000000    0.00000000    0.00000000
     atom   16 type  1   force =     0.00000000    0.00000000    0.00000000
     atom   17 type  2   force =     0.00000000    0.00000000    0.00000000
     atom   18 type  2   force =     0.00000000    0.00000000    0.00000000
     atom   19 type  1   force =     0.00000000    0.00000000    0.00000000
     atom   20 type  2   force =     0.00000000    0.00000000    0.00000000
     atom   21 type  1   force =     0.00000000    0.00000000    0.00000000
     atom   22 type  2   force =     0.00000000    0.00000000    0.00000000
     atom   23 type  2   force =     0.00000000    0.00000000    0.00000000
     atom   24 type  1   force =     0.00000000    0.00000000    0.00000000
     atom   25 type  2   force =     0.00000000    0.00000000    0.00000000
     atom   26 type  2   force =     0.00000000    0.00000000    0.00000000
     atom   27 type  1   force =     0.00000000    0.00000000    0.00000000
     atom   28 type  2   force =     0.00000000    0.00000000    0.00000000
     atom   29 type  2   force =     0.00000000    0.00000000    0.00000000
     atom   30 type  1   force =     0.00000000    0.00000000    0.00000000
     atom   31 type  2   force =     0.00000000    0.00000000    0.00000000
     atom   32 type  2   force =     0.00000000    0.00000000    0.00000000
     atom   33 type  1   force =     0.00000000    0.00000000    0.00000000
     atom   34 type  2   force =     0.00000000    0.00000000    0.00000000
     atom   35 type  2   force =     0.00000000    0.00000000    0.00000000
     atom   36 type  3   force =     0.00000000    0.00000000    0.00000000
     The SCF correction term to forces
     atom    1 type  1   force =    -0.00018406    0.00020645    0.00090168
     atom    2 type  2   force =     0.00011652   -0.00010601    0.00050090
     atom    3 type  2   force =    -0.00000211    0.00001567    0.00013494
     atom    4 type  1   force =     0.00001809    0.00006035    0.00098160
     atom    5 type  2   force =    -0.00001649    0.00000590    0.00038012
     atom    6 type  2   force =    -0.00002146   -0.00002097    0.00023940
     atom    7 type  1   force =     0.00002258    0.00000054    0.00112898
     atom    8 type  2   force =     0.00009167   -0.00000960    0.00051465
     atom    9 type  2   force =     0.00000005   -0.00013781    0.00014135
     atom   10 type  1   force =     0.00009890    0.00005691    0.00132321
     atom   11 type  2   force =     0.00003927   -0.00002802    0.00045453
     atom   12 type  2   force =    -0.00004768   -0.00000328    0.00018166
     atom   13 type  1   force =     0.00016864   -0.00004336    0.00109513
     atom   14 type  2   force =    -0.00007591    0.00004947    0.00045374
     atom   15 type  2   force =     0.00003019    0.00007238    0.00017597
     atom   16 type  1   force =     0.00008074   -0.00013362    0.00099890
     atom   17 type  2   force =     0.00001843    0.00000478    0.00048004
     atom   18 type  2   force =     0.00003964    0.00004176    0.00013387
     atom   19 type  1   force =    -0.00037351   -0.00012994    0.00127431
     atom   20 type  2   force =    -0.00001355   -0.00004975    0.00014848
     atom   21 type  1   force =    -0.00006729   -0.00001485    0.00110172
     atom   22 type  2   force =    -0.00007055   -0.00006886    0.00046802
     atom   23 type  2   force =    -0.00001940    0.00000385    0.00017941
     atom   24 type  1   force =     0.00004857   -0.00016144    0.00111571
     atom   25 type  2   force =    -0.00005609   -0.00008146    0.00041840
     atom   26 type  2   force =     0.00001670   -0.00003892    0.00020256
     atom   27 type  1   force =    -0.00010392    0.00055840    0.00117384
     atom   28 type  2   force =     0.00000128    0.00009457    0.00044791
     atom   29 type  2   force =    -0.00000614    0.00010039    0.00016457
     atom   30 type  1   force =     0.00035150   -0.00029600    0.00134347
     atom   31 type  2   force =    -0.00008990    0.00003353    0.00031202
     atom   32 type  2   force =    -0.00000850   -0.00007313    0.00028807
     atom   33 type  1   force =    -0.00004530    0.00000846    0.00119368
     atom   34 type  2   force =     0.00001288    0.00008263    0.00044206
     atom   35 type  2   force =     0.00008463    0.00006670    0.00018632
     atom   36 type  3   force =    -0.00002210    0.00000613    0.00003926

     Total force =     0.120623     Total SCF correction =     0.004396
     Energy error            =      1.9E-02 Ry
     Gradient error          =      5.8E-02 Ry/Bohr

     number of scf cycles    =   2
     number of bfgs steps    =   1

     energy             old  =   -2205.5099773876 Ry
     energy             new  =   -2205.5293015509 Ry

     CASE: energy            _new < energy            _old

     new trust radius        =       0.0984327336 bohr
     new conv_thr            =       0.0000000582 Ry


ATOMIC_POSITIONS (angstrom)
Mo            6.5844220868        1.7640901974        2.8276594714
S             8.1629170328        0.8265469319        4.4341253958
S             8.1801023892        0.8209268902        1.2713561511
Mo            8.1024514989        4.4994762512        2.7190216143
S             6.4989160337        3.7154169858        4.3377763876
S             6.5548271179        3.5229207910        1.1235667624
Mo            6.4947251014        7.2051598101        2.6650132321
S             8.0809109336        6.3406237069        4.2583711371
S             8.0966299027        6.3140968255        1.0964758428
Mo            8.1504927322        9.9133636106        2.8202580818
S             6.5000344616        8.9414137011        4.3726395052
S             6.6154569178        9.0496180676        1.1464059921
Mo            3.4264604004        1.7492645243        2.7669419703
S             4.9834021525        0.8167165896        4.3627832155
S             5.0448012196        0.8497126804        1.2174141330
Mo            4.9764594041        4.5247229253        2.6376336109
S             3.4339509088        3.6734754040        4.2842584953
S             3.4345446581        3.5422376369        1.0726998753
Mo            3.4634964980        7.2138906568        2.6171449140
S             4.9865896210        6.3217589123        1.0364388281
Mo            5.0060846034        9.9073319669        2.7444625006
S             3.4687458289        8.9412221840        4.3214470457
S             3.4081686642        9.0655187191        1.1051487834
Mo            0.2886070635        1.7448788347        2.8304848418
S             1.8668182426        0.8109045707        4.4042340660
S             1.8490397470        0.8537565601        1.2046681026
Mo            1.8676118139        4.4975827271        2.6789094643
S             0.2687823734        3.6498929416        4.3323316187
S             0.2335486250        3.5264587253        1.1683544480
Mo            0.2542822936        7.2329265087        2.6816496728
S             1.9644622458        6.2882311661        4.2959725576
S             1.8515018226        6.3176119071        1.0539778038
Mo            1.8562924338        9.9352581208        2.7667153748
S             0.2968254708        9.0498446361        4.4019112830
S             0.2681259207        9.0518585912        1.1638348071
H             3.1041121250        6.0738462633        5.4326745506



     Writing config-only to output data dir ./MoS2-V-O.save/
     NEW-OLD atomic charge density approx. for the potential

     negative rho (up, down):  1.464E-04 0.000E+00

     total cpu time spent up to now is      174.8 secs

     Self-consistent Calculation

     iteration #  1     ecut=    80.00 Ry     beta= 0.70
     Davidson diagonalization with overlap
     ethr =  1.00E-06,  avg # of iterations = 14.0

     negative rho (up, down):  4.596E-05 0.000E+00

     total cpu time spent up to now is      194.2 secs

     total energy              =   -2205.54591100 Ry
     estimated scf accuracy    <       0.00299381 Ry

     iteration #  2     ecut=    80.00 Ry     beta= 0.70
     Davidson diagonalization with overlap
     ethr =  9.75E-07,  avg # of iterations =  3.0

     negative rho (up, down):  3.255E-05 0.000E+00

     total cpu time spent up to now is      208.5 secs

     total energy              =   -2205.54604133 Ry
     estimated scf accuracy    <       0.00068918 Ry

     iteration #  3     ecut=    80.00 Ry     beta= 0.70
     Davidson diagonalization with overlap
     ethr =  2.24E-07,  avg # of iterations =  5.0

     negative rho (up, down):  2.367E-05 0.000E+00

     total cpu time spent up to now is      222.0 secs

     total energy              =   -2205.54606362 Ry
     estimated scf accuracy    <       0.00018046 Ry

     iteration #  4     ecut=    80.00 Ry     beta= 0.70
     Davidson diagonalization with overlap
     ethr =  5.88E-08,  avg # of iterations =  5.0

     negative rho (up, down):  2.129E-05 0.000E+00

     total cpu time spent up to now is      233.3 secs

     total energy              =   -2205.54608277 Ry
     estimated scf accuracy    <       0.00002093 Ry

     iteration #  5     ecut=    80.00 Ry     beta= 0.70
     Davidson diagonalization with overlap
     ethr =  6.82E-09,  avg # of iterations = 10.0

     negative rho (up, down):  2.046E-05 0.000E+00

     total cpu time spent up to now is      244.9 secs

     total energy              =   -2205.54608880 Ry
     estimated scf accuracy    <       0.00000802 Ry

     iteration #  6     ecut=    80.00 Ry     beta= 0.70
     Davidson diagonalization with overlap
     ethr =  2.61E-09,  avg # of iterations =  2.0

     negative rho (up, down):  2.063E-05 0.000E+00

     total cpu time spent up to now is      255.3 secs

     total energy              =   -2205.54609044 Ry
     estimated scf accuracy    <       0.00000308 Ry

     iteration #  7     ecut=    80.00 Ry     beta= 0.70
     Davidson diagonalization with overlap
     ethr =  1.00E-09,  avg # of iterations =  4.0

     negative rho (up, down):  2.410E-05 0.000E+00

     total cpu time spent up to now is      268.5 secs

     total energy              =   -2205.54609129 Ry
     estimated scf accuracy    <       0.00000096 Ry

     iteration #  8     ecut=    80.00 Ry     beta= 0.70
     Davidson diagonalization with overlap
     ethr =  3.11E-10,  avg # of iterations =  5.0

     negative rho (up, down):  4.942E-05 0.000E+00

     total cpu time spent up to now is      276.3 secs

     total energy              =   -2205.54609158 Ry
     estimated scf accuracy    <       0.00000043 Ry

     iteration #  9     ecut=    80.00 Ry     beta= 0.70
     Davidson diagonalization with overlap
     ethr =  1.40E-10,  avg # of iterations =  3.0

     negative rho (up, down):  8.082E-05 0.000E+00

     total cpu time spent up to now is      285.2 secs

     total energy              =   -2205.54609153 Ry
     estimated scf accuracy    <       0.00000009 Ry

     iteration # 10     ecut=    80.00 Ry     beta= 0.70
     Davidson diagonalization with overlap
     ethr =  2.79E-11,  avg # of iterations =  5.0

     negative rho (up, down):  1.371E-04 0.000E+00

     total cpu time spent up to now is      287.5 secs

     End of self-consistent calculation

          k = 0.0000 0.0000 0.0000 (105382 PWs)   bands (ev):

   -62.8706 -62.8575 -62.8470 -62.8275 -62.8023 -62.7955 -62.7906 -62.7805
   -62.7674 -62.7432 -62.7354 -62.7000 -37.2102 -37.1422 -37.1281 -37.1159
   -37.0969 -37.0848 -37.0730 -37.0490 -37.0453 -37.0398 -37.0366 -37.0341
   -37.0142 -37.0094 -36.9859 -36.9809 -36.9786 -36.9732 -36.9623 -36.9590
   -36.9464 -36.9281 -36.9221 -36.9033 -36.8954 -36.8906 -36.8883 -36.8805
   -36.8745 -36.8581 -36.8255 -36.8177 -36.7880 -36.7800 -36.7297 -36.6754
   -15.9928 -15.3463 -15.1683 -15.0204 -14.8679 -14.8026 -14.6598 -14.4873
   -14.4064 -14.3882 -14.3766 -14.3076 -14.2995 -14.2618 -14.1619 -14.1125
   -14.0949 -14.0816 -14.0176 -13.8688 -13.8371 -13.8168 -13.7781  -7.9716
    -7.6386  -7.4233  -7.2812  -7.2191  -7.1971  -7.1791  -7.1620  -7.0443
    -6.8210  -6.7835  -6.7382  -6.6861  -6.5543  -6.4900  -6.4019  -6.3670
    -6.3594  -6.2453  -6.1135  -5.9307  -5.8693  -5.8454  -5.8124  -5.7413
    -5.7324  -5.6920  -5.6771  -5.6381  -5.6150  -5.5265  -5.5121  -5.4858
    -5.3954  -5.3790  -5.1272  -5.1058  -5.0373  -4.9750  -4.9573  -4.9274
    -4.8933  -4.8482  -4.6982  -4.5378  -4.4555  -4.3060  -4.2512  -4.2079
    -4.1782  -4.0355  -4.0215  -3.9660  -3.7615  -3.7470  -3.7331  -3.6756
    -3.6500  -3.5583  -3.5231  -3.4855  -3.4637  -3.4401  -3.4078  -3.3721
    -3.3436  -3.2167  -3.1033  -2.8835  -2.8543  -2.7662  -2.7510  -2.7067
    -2.6872  -2.6538  -2.6271  -2.5980  -2.5667  -2.2761  -2.0067  -1.9691
    -1.9599  -1.0111  -0.7626  -0.7035  -0.1375  -0.1155  -0.0966  -0.0012
     0.1138   0.1561   0.2097   0.2845   0.2913   0.3291   0.3480   0.4441
     0.5375   0.5393   0.5858   0.6115   0.6430   0.6693   0.7475   0.7611
     0.7814   0.8383   0.8739   0.9079   0.9638   1.0094   1.0532   1.2078
     1.3878

     the Fermi energy is    -1.0124 ev

!    total energy              =   -2205.54609146 Ry
     estimated scf accuracy    <       0.00000003 Ry
     smearing contrib. (-TS)   =      -0.00586817 Ry
     internal energy E=F+TS    =   -2205.54022329 Ry

     The total energy is F=E-TS. E is the sum of the following terms:
     one-electron contribution =  -18039.58124237 Ry
     hartree contribution      =    9006.76873871 Ry
     xc contribution           =    -385.21911747 Ry
     ewald contribution        =    7212.49139784 Ry

     convergence has been achieved in  10 iterations

     negative rho (up, down):  1.371E-04 0.000E+00

     Forces acting on atoms (cartesian axes, Ry/au):

     atom    1 type  1   force =    -0.00382318   -0.00307879   -0.00420786
     atom    2 type  2   force =    -0.00415867    0.00606500   -0.00217879
     atom    3 type  2   force =    -0.00910664    0.00592460   -0.01153733
     atom    4 type  1   force =     0.00548322    0.00266409    0.00207696
     atom    5 type  2   force =     0.00102324   -0.00574389   -0.00650582
     atom    6 type  2   force =     0.00109908    0.00528420    0.00534428
     atom    7 type  1   force =     0.00275063   -0.00408007    0.00255273
     atom    8 type  2   force =     0.00059260   -0.00144680    0.00645657
     atom    9 type  2   force =     0.00944824    0.00563643    0.00270655
     atom   10 type  1   force =    -0.00042856    0.00675812    0.00010887
     atom   11 type  2   force =     0.00291090   -0.00091276   -0.00974529
     atom   12 type  2   force =    -0.00489536    0.00011881    0.00001166
     atom   13 type  1   force =     0.00282558    0.00140370    0.00027899
     atom   14 type  2   force =     0.00331607   -0.00056292    0.00511628
     atom   15 type  2   force =    -0.00589085    0.00109008   -0.00570246
     atom   16 type  1   force =    -0.00148816    0.00410422    0.00105035
     atom   17 type  2   force =     0.00747511   -0.00432707    0.00408372
     atom   18 type  2   force =    -0.00200506   -0.00057550    0.00930028
     atom   19 type  1   force =     0.00480536   -0.00320557    0.00080053
     atom   20 type  2   force =     0.00259417   -0.00380225   -0.00634709
     atom   21 type  1   force =    -0.00248012    0.00256339    0.00257709
     atom   22 type  2   force =    -0.00002647   -0.00144791   -0.00369316
     atom   23 type  2   force =     0.00142960    0.00053453    0.00031971
     atom   24 type  1   force =    -0.00291763   -0.00113568   -0.00246581
     atom   25 type  2   force =     0.00717519    0.00918636   -0.00323102
     atom   26 type  2   force =    -0.00475057   -0.00124938   -0.00433979
     atom   27 type  1   force =     0.00148447    0.00030327    0.01176798
     atom   28 type  2   force =    -0.00260704   -0.00449628   -0.00384653
     atom   29 type  2   force =     0.00456080    0.00313826   -0.00171281
     atom   30 type  1   force =    -0.00104583   -0.00298327    0.00440055
     atom   31 type  2   force =     0.04710750   -0.01138824    0.05134378
     atom   32 type  2   force =    -0.00733558    0.00373746    0.00855111
     atom   33 type  1   force =     0.00025603   -0.00018060    0.00586703
     atom   34 type  2   force =    -0.00225318   -0.01945536   -0.01537792
     atom   35 type  2   force =    -0.00510310    0.00951421    0.00056902
     atom   36 type  3   force =    -0.04602180    0.00204560   -0.04439234
     The non-local contrib.  to forces
     atom    1 type  1   force =     0.00236230    0.02539983   -0.01296329
     atom    2 type  2   force =    -0.00099551   -0.00514205   -0.26850998
     atom    3 type  2   force =    -0.00954327   -0.00554583    0.26263169
     atom    4 type  1   force =     0.00032221    0.00503402    0.00445481
     atom    5 type  2   force =     0.00710497   -0.03247226   -0.25236805
     atom    6 type  2   force =    -0.00180911    0.00694090    0.26791951
     atom    7 type  1   force =    -0.01856859   -0.00109618   -0.02565427
     atom    8 type  2   force =    -0.00130155   -0.00594282   -0.25581452
     atom    9 type  2   force =     0.00462341   -0.00570820    0.27124213
     atom   10 type  1   force =     0.00332809    0.00197320   -0.00192785
     atom   11 type  2   force =     0.01061932    0.00302416   -0.26155950
     atom   12 type  2   force =    -0.01408712   -0.01729248    0.26100765
     atom   13 type  1   force =     0.00290155    0.02257102   -0.00698688
     atom   14 type  2   force =     0.00650463   -0.01173248   -0.26660064
     atom   15 type  2   force =    -0.00820833   -0.00792161    0.26114089
     atom   16 type  1   force =     0.00192768    0.02893074   -0.03140040
     atom   17 type  2   force =     0.00693584   -0.01859614   -0.24801296
     atom   18 type  2   force =    -0.00548423    0.00128051    0.27219092
     atom   19 type  1   force =     0.01832924    0.00758206   -0.01573745
     atom   20 type  2   force =    -0.00049940   -0.01693625    0.25966381
     atom   21 type  1   force =     0.00168110    0.02635497    0.00534254
     atom   22 type  2   force =     0.00066199    0.00219259   -0.25327611
     atom   23 type  2   force =     0.00920331   -0.01671539    0.26256912
     atom   24 type  1   force =     0.00236598    0.01212999   -0.00932717
     atom   25 type  2   force =     0.00316510   -0.00225735   -0.26697347
     atom   26 type  2   force =     0.00211547   -0.01210631    0.26327454
     atom   27 type  1   force =    -0.00016806    0.01593475    0.00048446
     atom   28 type  2   force =    -0.00507957   -0.02202449   -0.27274673
     atom   29 type  2   force =     0.00642705    0.00045997    0.26605667
     atom   30 type  1   force =     0.00484972    0.01161971    0.00316759
     atom   31 type  2   force =     0.27189027   -0.03540427    0.01408049
     atom   32 type  2   force =    -0.00007268   -0.01073730    0.27990407
     atom   33 type  1   force =    -0.00099558    0.00755626    0.00189974
     atom   34 type  2   force =    -0.01048531   -0.01194968   -0.27014657
     atom   35 type  2   force =    -0.00043794   -0.01180395    0.26373670
     atom   36 type  3   force =    -0.02064468    0.00324650   -0.02110913
     The ionic contribution  to forces
     atom    1 type  1   force =     0.03707939    0.78981373    5.76696708
     atom    2 type  2   force =    -0.32610119    0.19190491   39.42086207
     atom    3 type  2   force =    -0.11630594    0.08294813  -36.32202691
     atom    4 type  1   force =     0.09670660    0.36867083    0.73188219
     atom    5 type  2   force =    -0.84801189    1.35735327   38.51279095
     atom    6 type  2   force =     0.30399204   -0.59158862  -37.83838176
[...]
     atom   27 type  1   force =    -0.00051228    0.01598427   -0.00506519
     atom   28 type  2   force =     0.00402095   -0.00728870   -0.26858389
     atom   29 type  2   force =    -0.00589632   -0.01059977    0.26832940
     atom   30 type  1   force =     0.00117074    0.01323072    0.00717127
     atom   31 type  2   force =     0.27477353   -0.09249130   -0.04365344
     atom   32 type  2   force =     0.00577239   -0.01209617    0.27168823
     atom   33 type  1   force =    -0.00020462    0.00542906    0.00194560
     atom   34 type  2   force =    -0.00470599    0.00326342   -0.25975136
     atom   35 type  2   force =    -0.00269048   -0.01807207    0.26568979
     atom   36 type  3   force =    -0.04188398    0.01348707   -0.03619415
     The ionic contribution  to forces
     atom    1 type  1   force =     0.04785446    0.86096092    1.91735944
     atom    2 type  2   force =    -0.21067957   -0.01285096   38.75213727
     atom    3 type  2   force =     0.14286731    0.14422642  -37.63630093
     atom    4 type  1   force =    -0.00647033    0.23474727    0.61212477
     atom    5 type  2   force =    -0.63086729    1.08915040   38.14878882
     atom    6 type  2   force =     0.22925602   -0.28416014  -37.88476437
     atom    7 type  1   force =    -2.67381051   -2.00581800    1.23044022
     atom    8 type  2   force =    -1.04646883    0.15190264   38.09948589
     atom    9 type  2   force =     0.31772540   -0.34626824  -38.31157815
     atom   10 type  1   force =    -0.26697360   -0.22886694    1.92177484
     atom   11 type  2   force =    -0.35238230   -1.39329184   38.32094742
     atom   12 type  2   force =     0.11147801    0.32479925  -38.20769132
     atom   13 type  1   force =    -0.04527730    0.57233661    2.28092477
     atom   14 type  2   force =     0.12766824   -0.10852681   38.59356371
     atom   15 type  2   force =    -0.03466054    0.00667114  -37.74195871
     atom   16 type  1   force =     0.53060739    3.20615627    1.74872477
     atom   17 type  2   force =     1.05068167    0.55064750   38.34563556
     atom   18 type  2   force =    -0.36862949   -0.24954507  -37.79215043
     atom   19 type  1   force =     1.79030470   -1.48177603    3.40549711
     atom   20 type  2   force =    -0.11670508   -0.11407507  -38.73565943
     atom   21 type  1   force =    -0.14351433   -0.33619041    0.56103417
     atom   22 type  2   force =     0.37663266   -1.11187276   38.36003427
     atom   23 type  2   force =    -0.35002729    0.16750273  -37.72793390
     atom   24 type  1   force =    -0.05875442    0.47329591    2.59279707
     atom   25 type  2   force =     0.09851316   -0.06705895   38.83636647
     atom   26 type  2   force =    -0.06976418    0.02512893  -37.43066466
     atom   27 type  1   force =    -0.63911072    0.89116761    3.18278029
     atom   28 type  2   force =    -0.32151843    0.44271103   38.26186108
     atom   29 type  2   force =     0.13633420    0.04194374  -37.26483756
     atom   30 type  1   force =     1.45660512   -1.22232015    0.86228335
     atom   31 type  2   force =    -0.73288528    1.13871257   38.12553923
     atom   32 type  2   force =    -0.23333070   -0.15346978  -36.94891612
     atom   33 type  1   force =     0.43122250   -0.67478931    2.73889033
     atom   34 type  2   force =    -0.01093025   -0.58368688   38.57074573
     atom   35 type  2   force =     0.22981810    0.21757960  -37.81945519
     atom   36 type  3   force =     1.23519151   -0.16507319    8.03217419
     The local contribution  to forces
     atom    1 type  1   force =    -0.04473783   -0.88608657   -1.91278174
     atom    2 type  2   force =     0.20781803    0.02162013  -38.50723589
     atom    3 type  2   force =    -0.14078079   -0.13442638   37.39053332
     atom    4 type  1   force =     0.00396622   -0.24135566   -0.61577462
     atom    5 type  2   force =     0.62874649   -1.06832763  -37.91683357
     atom    6 type  2   force =    -0.23031340    0.28555706   37.63782149
     atom    7 type  1   force =     2.68856369    1.99933315   -1.20755257
     atom    8 type  2   force =     1.04399244   -0.14486685  -37.86497768
     atom    9 type  2   force =    -0.31271451    0.35206673   38.06637585
     atom   10 type  1   force =     0.26639395    0.22369091   -1.92389379
     atom   11 type  2   force =     0.34890195    1.39269218  -38.08450528
     atom   12 type  2   force =    -0.10685335   -0.31219498   37.96554564
     atom   13 type  1   force =     0.03916139   -0.59396221   -2.27699163
     atom   14 type  2   force =    -0.12566081    0.11749496  -38.34771310
     atom   15 type  2   force =     0.03372931    0.00340999   37.50055918
     atom   16 type  1   force =    -0.53581731   -3.24071744   -1.71522815
     atom   17 type  2   force =    -1.05719878   -0.53665432  -38.11716527
     atom   18 type  2   force =     0.36848558    0.25606389   37.54513072
     atom   19 type  1   force =    -1.81356513    1.46918912   -3.37482677
     atom   20 type  2   force =     0.11139151    0.12288887   38.49612826
     atom   21 type  1   force =     0.14184778    0.31050703   -0.56511485
     atom   22 type  2   force =    -0.37453802    1.11810117  -38.12813661
     atom   23 type  2   force =     0.34069023   -0.15556831   37.48479384
     atom   24 type  1   force =     0.06003107   -0.48476119   -2.59212842
     atom   25 type  2   force =    -0.09913014    0.07619453  -38.59177849
     atom   26 type  2   force =     0.06786476   -0.01389905   37.18516698
     atom   27 type  1   force =     0.63964763   -0.90730781   -3.17679236
     atom   28 type  2   force =     0.31765346   -0.43580162  -38.01300310
     atom   29 type  2   force =    -0.13049760   -0.03045698   37.01759941
     atom   30 type  1   force =    -1.45944916    1.21020266   -0.87125750
     atom   31 type  2   force =     0.47795101   -1.05304657  -38.08533593
     atom   32 type  2   force =     0.22930714    0.16433691   36.69701641
     atom   33 type  1   force =    -0.43072165    0.66906278   -2.74020736
     atom   34 type  2   force =     0.01566499    0.58126481  -38.33101082
     atom   35 type  2   force =    -0.22714917   -0.20139906   37.57513200
     atom   36 type  3   force =    -1.19257318    0.15001845   -7.99676350
     The core correction contribution to forces
     atom    1 type  1   force =     0.00000000    0.00000000    0.00000000
     atom    2 type  2   force =    -0.00028578    0.00035456    0.02080658
     atom    3 type  2   force =     0.00016860    0.00055358   -0.02090720
     atom    4 type  1   force =     0.00000000    0.00000000    0.00000000
     atom    5 type  2   force =    -0.00020226    0.00089623    0.02015715
     atom    6 type  2   force =     0.00010793   -0.00029216   -0.02084708
     atom    7 type  1   force =     0.00000000    0.00000000    0.00000000
     atom    8 type  2   force =    -0.00023746    0.00067158    0.02046371
     atom    9 type  2   force =     0.00045832    0.00017496   -0.02091523
     atom   10 type  1   force =     0.00000000    0.00000000    0.00000000
     atom   11 type  2   force =     0.00002690   -0.00024645    0.02043605
     atom   12 type  2   force =     0.00046668    0.00098084   -0.02075841
     atom   13 type  1   force =     0.00000000    0.00000000    0.00000000
     atom   14 type  2   force =     0.00019500    0.00010606    0.02085080
     atom   15 type  2   force =    -0.00007196    0.00053057   -0.02067303
     atom   16 type  1   force =     0.00000000    0.00000000    0.00000000
     atom   17 type  2   force =     0.00027329    0.00020808    0.01982355
     atom   18 type  2   force =    -0.00028771   -0.00011106   -0.02092789
     atom   19 type  1   force =     0.00000000    0.00000000    0.00000000
     atom   20 type  2   force =    -0.00030266    0.00032956   -0.02109893
     atom   21 type  1   force =     0.00000000    0.00000000    0.00000000
     atom   22 type  2   force =    -0.00002211    0.00038532    0.02004609
     atom   23 type  2   force =    -0.00078766    0.00068771   -0.02074550
     atom   24 type  1   force =     0.00000000    0.00000000    0.00000000
     atom   25 type  2   force =     0.00002350    0.00032750    0.02072882
     atom   26 type  2   force =    -0.00015335    0.00044061   -0.02080219
     atom   27 type  1   force =     0.00000000    0.00000000    0.00000000
     atom   28 type  2   force =    -0.00043149    0.00046521    0.02079588
     atom   29 type  2   force =     0.00044758    0.00039807   -0.02080369
     atom   30 type  1   force =     0.00000000    0.00000000    0.00000000
     atom   31 type  2   force =    -0.01800059    0.00645858    0.00469967
     atom   32 type  2   force =    -0.00044142    0.00042275   -0.02118391
     atom   33 type  1   force =     0.00000000    0.00000000    0.00000000
     atom   34 type  2   force =     0.00011120   -0.00021147    0.02058150
     atom   35 type  2   force =     0.00016137    0.00111945   -0.02087046
     atom   36 type  3   force =     0.00000000    0.00000000    0.00000000
     The Hubbard contrib.    to forces
     atom    1 type  1   force =     0.00000000    0.00000000    0.00000000
     atom    2 type  2   force =     0.00000000    0.00000000    0.00000000
     atom    3 type  2   force =     0.00000000    0.00000000    0.00000000
     atom    4 type  1   force =     0.00000000    0.00000000    0.00000000
     atom    5 type  2   force =     0.00000000    0.00000000    0.00000000
     atom    6 type  2   force =     0.00000000    0.00000000    0.00000000
     atom    7 type  1   force =     0.00000000    0.00000000    0.00000000
     atom    8 type  2   force =     0.00000000    0.00000000    0.00000000
     atom    9 type  2   force =     0.00000000    0.00000000    0.00000000
     atom   10 type  1   force =     0.00000000    0.00000000    0.00000000
     atom   11 type  2   force =     0.00000000    0.00000000    0.00000000
     atom   12 type  2   force =     0.00000000    0.00000000    0.00000000
     atom   13 type  1   force =     0.00000000    0.00000000    0.00000000
     atom   14 type  2   force =     0.00000000    0.00000000    0.00000000
     atom   15 type  2   force =     0.00000000    0.00000000    0.00000000
     atom   16 type  1   force =     0.00000000    0.00000000    0.00000000
     atom   17 type  2   force =     0.00000000    0.00000000    0.00000000
     atom   18 type  2   force =     0.00000000    0.00000000    0.00000000
     atom   19 type  1   force =     0.00000000    0.00000000    0.00000000
     atom   20 type  2   force =     0.00000000    0.00000000    0.00000000
     atom   21 type  1   force =     0.00000000    0.00000000    0.00000000
     atom   22 type  2   force =     0.00000000    0.00000000    0.00000000
     atom   23 type  2   force =     0.00000000    0.00000000    0.00000000
     atom   24 type  1   force =     0.00000000    0.00000000    0.00000000
     atom   25 type  2   force =     0.00000000    0.00000000    0.00000000
     atom   26 type  2   force =     0.00000000    0.00000000    0.00000000
     atom   27 type  1   force =     0.00000000    0.00000000    0.00000000
     atom   28 type  2   force =     0.00000000    0.00000000    0.00000000
     atom   29 type  2   force =     0.00000000    0.00000000    0.00000000
     atom   30 type  1   force =     0.00000000    0.00000000    0.00000000
     atom   31 type  2   force =     0.00000000    0.00000000    0.00000000
     atom   32 type  2   force =     0.00000000    0.00000000    0.00000000
     atom   33 type  1   force =     0.00000000    0.00000000    0.00000000
     atom   34 type  2   force =     0.00000000    0.00000000    0.00000000
     atom   35 type  2   force =     0.00000000    0.00000000    0.00000000
     atom   36 type  3   force =     0.00000000    0.00000000    0.00000000
     The SCF correction term to forces
     atom    1 type  1   force =     0.00000868   -0.00000105   -0.00000638
     atom    2 type  2   force =    -0.00000303    0.00000694   -0.00001069
     atom    3 type  2   force =     0.00000295    0.00001158    0.00000117
     atom    4 type  1   force =    -0.00000918   -0.00003421   -0.00004727
     atom    5 type  2   force =     0.00000241   -0.00001943   -0.00002001
     atom    6 type  2   force =     0.00000326   -0.00000741   -0.00000272
     atom    7 type  1   force =    -0.00000679    0.00000234   -0.00004003
     atom    8 type  2   force =    -0.00000830   -0.00000106   -0.00002436
     atom    9 type  2   force =    -0.00000193   -0.00001132   -0.00000971
     atom   10 type  1   force =    -0.00000475    0.00002873   -0.00001331
     atom   11 type  2   force =    -0.00000107    0.00001149   -0.00001277
     atom   12 type  2   force =    -0.00000308   -0.00000187   -0.00000349
     atom   13 type  1   force =     0.00001527    0.00000262   -0.00001946
     atom   14 type  2   force =     0.00000148    0.00001019   -0.00001085
     atom   15 type  2   force =     0.00000139    0.00000996    0.00000153
     atom   16 type  1   force =     0.00000439   -0.00003019   -0.00003836
     atom   17 type  2   force =     0.00000783   -0.00002509   -0.00002055
     atom   18 type  2   force =     0.00000113   -0.00000786   -0.00000635
     atom   19 type  1   force =    -0.00000110    0.00000681   -0.00005003
     atom   20 type  2   force =    -0.00000126    0.00000096   -0.00000992
     atom   21 type  1   force =     0.00000181    0.00002219   -0.00001965
     atom   22 type  2   force =     0.00001264    0.00001338   -0.00002456
     atom   23 type  2   force =     0.00000475   -0.00000672   -0.00000764
     atom   24 type  1   force =    -0.00000390    0.00000462   -0.00001907
     atom   25 type  2   force =    -0.00000234    0.00000909   -0.00001529
     atom   26 type  2   force =    -0.00000390    0.00000812   -0.00000135
     atom   27 type  1   force =    -0.00000941   -0.00001659   -0.00005479
     atom   28 type  2   force =    -0.00000820   -0.00002674   -0.00002606
     atom   29 type  2   force =     0.00000051   -0.00000547   -0.00000304
     atom   30 type  1   force =    -0.00000266   -0.00000683   -0.00005078
     atom   31 type  2   force =    -0.00000079   -0.00000649   -0.00005797
     atom   32 type  2   force =     0.00000485   -0.00000535   -0.00001136
     atom   33 type  1   force =    -0.00000177    0.00004007   -0.00002678
     atom   34 type  2   force =    -0.00001246    0.00002462   -0.00002102
     atom   35 type  2   force =     0.00000274    0.00000355   -0.00000514
     atom   36 type  3   force =     0.00000458   -0.00000303   -0.00000270

     Total force =     0.006833     Total SCF correction =     0.000183
     Energy error            =      9.7E-05 Ry
     Gradient error          =      1.9E-03 Ry/Bohr

     bfgs converged in  20 scf cycles and  18 bfgs steps
     (criteria: energy <  1.0E-04 Ry, force <  1.0E-02 Ry/Bohr)

     End of BFGS Geometry Optimization

     Final energy             =   -2205.5806397661 Ry

     File ./MoS2-V-O.bfgs deleted, as requested
Begin final coordinates

ATOMIC_POSITIONS (angstrom)
Mo            6.5602988003        1.7679739025        2.7537975318
S             8.1259036012        0.8537776234        4.3633297153
S             8.1442854322        0.8648661381        1.1682409699
Mo            8.1328450236        4.5174270436        2.7222535745
S             6.5302832531        3.6742420282        4.3088376795
S             6.5612175624        3.5858333214        1.1250815844
Mo            6.5288081286        7.2065848149        2.6497334075
S             8.0747793808        6.3369452218        4.2930181924
S             8.1468528620        6.3426885307        1.0985263616
Mo            8.1350206697        9.9532186258        2.7510259482
S             6.5240872619        8.9717982011        4.3068590488
S             6.5789893046        9.0576207591        1.1111321467
Mo            3.4277107709        1.7470866085        2.7665627994
S             5.0019970927        0.8215606840        4.3455814400
S             4.9876825505        0.8547586217        1.1619516249
Mo            4.9881473807        4.5465927335        2.6716337344
S             3.4878060731        3.6269901673        4.3372138233
S             3.4251868721        3.5688682623        1.1442111373
Mo            3.4986825651        7.1778569652        2.7009331781
S             4.9899312071        6.3164727256        1.0498805733
Mo            4.9930173996        9.9260031485        2.7250759357
S             3.4753684800        8.9656343708        4.3321071972
S             3.4028427168        9.0133572999        1.1432355003
Mo            0.2679096807        1.7498802393        2.7801642139
S             1.8544759142        0.8364602579        4.3760569496
S             1.8431787583        0.8397167494        1.1866215711
Mo            1.8805617552        4.4916751364        2.7826646832
S             0.2458608453        3.6022423072        4.3425842821
S             0.2891319773        3.5722514543        1.1770037062
Mo            0.2343176713        7.2352954789        2.7060819499
S             2.0199853632        6.2614049446        4.4764649189
S             1.8536666534        6.3193938431        1.1795442943
Mo            1.8479012715        9.9293715451        2.7710533744
S             0.2532719118        9.0290805342        4.3446480745
S             0.2647766463        9.0641005743        1.1531706033
H             3.0478175078        5.9235266590        5.3484798111
End final coordinates



     Writing all to output data dir ./MoS2-V-O.save/
 
     init_run     :      2.53s CPU      2.77s WALL (       1 calls)
     electrons    :   1810.09s CPU   1981.84s WALL (      20 calls)
     update_pot   :     26.76s CPU     27.85s WALL (      19 calls)
     forces       :     27.71s CPU     29.61s WALL (      20 calls)

     Called by init_run:
     wfcinit      :      0.47s CPU      0.50s WALL (       1 calls)
     potinit      :      1.35s CPU      1.45s WALL (       1 calls)
     hinit0       :      0.17s CPU      0.18s WALL (       1 calls)

     Called by electrons:
     c_bands      :    221.68s CPU    224.06s WALL (     179 calls)
     sum_band     :     58.83s CPU     63.95s WALL (     179 calls)
     v_of_rho     :     74.73s CPU     85.93s WALL (     186 calls)
     newd         :     30.83s CPU     34.67s WALL (     186 calls)
     mix_rho      :   1433.04s CPU   1581.24s WALL (     179 calls)

     Called by c_bands:
     init_us_2    :      3.93s CPU      4.07s WALL (     359 calls)
     init_us_2:cp :      3.92s CPU      4.07s WALL (     359 calls)
     regterg      :    208.34s CPU    210.56s WALL (     179 calls)

     Called by *egterg:
     rdiaghg      :     17.01s CPU     17.15s WALL (     987 calls)
     h_psi        :    119.02s CPU    120.04s WALL (    1020 calls)
     s_psi        :     15.91s CPU     15.96s WALL (    1020 calls)
     g_psi        :      0.80s CPU      0.81s WALL (     840 calls)

     Called by h_psi:
     h_psi:calbec :     17.28s CPU     17.35s WALL (    1020 calls)
     vloc_psi     :     83.79s CPU     84.65s WALL (    1020 calls)
     add_vuspsi   :     16.03s CPU     16.11s WALL (    1020 calls)

     General routines
     calbec       :     24.92s CPU     25.01s WALL (    1279 calls)
     fft          :     51.94s CPU     60.11s WALL (   12518 calls)
     ffts         :    645.06s CPU    788.05s WALL (  348707 calls)
     fftw         :     70.79s CPU     71.42s WALL (  108183 calls)
     interpolate  :      1.34s CPU      1.55s WALL (     186 calls)
 
     Parallel routines
 
     PWSCF        :  31m11.24s CPU  34m 7.77s WALL

 
   This run was terminated on:   4:32: 5   4Nov2023            

=------------------------------------------------------------------------------=
   JOB DONE.
=------------------------------------------------------------------------------=
