
     Program PWSCF v.7.2 starts on  3Nov2023 at 21: 3:20 

     This program is part of the open-source Quantum ESPRESSO suite
     for quantum simulation of materials; please cite
         "P. Giannozzi et al., J. Phys.:Condens. Matter 21 395502 (2009);
         "P. Giannozzi et al., J. Phys.:Condens. Matter 29 465901 (2017);
         "P. Giannozzi et al., J. Chem. Phys. 152 154105 (2020);
          URL http://www.quantum-espresso.org", 
     in publications or presentations arising from this work. More details at
     http://www.quantum-espresso.org/quote

     Parallel version (MPI & OpenMP), running on      48 processor cores
     Number of MPI processes:                48
     Threads/MPI process:                     1

     MPI processes distributed on     1 nodes
     48730 MiB available memory on the printing compute node when the environment starts
 
     Waiting for input...
     Reading input from standard input
Warning: card &CELL ignored
Warning: card CELL_DYNAMICS = 'BFGS', ignored
Warning: card CELL_DOFREE = '2DXY' ignored
Warning: card / ignored

     Current dimensions of program PWSCF are:
     Max number of different atomic species (ntypx) = 10
     Max number of k-points (npk) =  40000
     Max angular momentum in pseudopotentials (lmaxx) =  4

     IMPORTANT: XC functional enforced from input :
     Exchange-correlation= RVV10
                           (   1   4  13   4  26   0   0)
     Any further DFT definition will be discarded
     Please, verify this is what you really want


     gamma-point specific algorithms are used
     signal trapping enabled: kill the code with -SIGUSR1 to stop cleanly the simulation 
 
     R & G space division:  proc/nbgrp/npool/nimage =      48
     Subspace diagonalization in iterative solution of the eigenvalue problem:
     one sub-group per band group will be used
     scalapack distributed-memory algorithm (size of sub-group:  2*  2 procs)

 
     Parallelization info
     --------------------
     sticks:   dense  smooth     PW     G-vecs:    dense   smooth      PW
     Min         243     194     47                49060    35090    4376
     Max         246     196     50                49086    35128    4410
     Sum       11735    9389   2349              2355467  1685513  210763
 
     Using Slab Decomposition
 


     bravais-lattice index     =            0
     lattice parameter (alat)  =      17.8707  a.u.
     unit-cell volume          =   17436.2743 (a.u.)^3
     number of atoms/cell      =           36
     number of atomic types    =            3
     number of electrons       =       307.00
     number of Kohn-Sham states=          185
     kinetic-energy cutoff     =      80.0000  Ry
     charge density cutoff     =     400.0000  Ry
     scf convergence threshold =      1.0E-06
     mixing beta               =       0.7000
     number of iterations used =            8  local-TF  mixing
     energy convergence thresh.=      1.0E-04
     force convergence thresh. =      1.0E-02
     Exchange-correlation= RVV10
                           (   1   4  13   4  26   0   0)
     nstep                     =          200


     celldm(1)=  17.870686  celldm(2)=   0.000000  celldm(3)=   0.000000
     celldm(4)=   0.000000  celldm(5)=   0.000000  celldm(6)=   0.000000

     crystal axes: (cart. coord. in units of alat)
               a(1) = (   1.000000   0.000000   0.000000 )  
               a(2) = (   0.000000   1.155671   0.000000 )  
               a(3) = (   0.000000   0.000000   2.643601 )  

     reciprocal axes: (cart. coord. in units 2 pi/alat)
               b(1) = (  1.000000  0.000000  0.000000 )  
               b(2) = (  0.000000  0.865298  0.000000 )  
               b(3) = (  0.000000  0.000000  0.378272 )  


     PseudoPot. # 1 for Mo read from file:
     ../pseudo/Mo_ONCV_PBE-1.0.oncvpsp.upf
     MD5 check sum: 1b5d28e075c9ccadda658a603575cd1f
     Pseudo is Norm-conserving, Zval = 14.0
     Generated using ONCVPSP code by D. R. Hamann
     Using radial grid of 1526 points,  6 beta functions with: 
                l(1) =   0
                l(2) =   0
                l(3) =   1
                l(4) =   1
                l(5) =   2
                l(6) =   2

     PseudoPot. # 2 for S  read from file:
     ../pseudo/s_pbe_v1.4.uspp.F.UPF
     MD5 check sum: 88d86576ff6df21479756cfb9bdac1df
     Pseudo is Ultrasoft + core correction, Zval =  6.0
     Generated by new atomic code, or converted to UPF format
     Using radial grid of  907 points,  6 beta functions with: 
                l(1) =   0
                l(2) =   0
                l(3) =   1
                l(4) =   1
                l(5) =   2
                l(6) =   2
     Q(r) pseudized with  8 coefficients,  rinner =    1.300   1.300   1.300
                                                       1.300   1.300

     PseudoPot. # 3 for H  read from file:
     ../pseudo/H_ONCV_PBE-1.0.oncvpsp.upf
     MD5 check sum: 1790becc920ee074925cf490c71280fe
     Pseudo is Norm-conserving, Zval =  1.0
     Generated using ONCVPSP code by D. R. Hamann
     Using radial grid of 1166 points,  2 beta functions with: 
                l(1) =   0
                l(2) =   0

     atomic species   valence    mass     pseudopotential
        Mo            14.00    95.94000     Mo( 1.00)
        S              6.00    32.06500     S ( 1.00)
        H              1.00     1.00794     H ( 1.00)

     No symmetry found



   Cartesian axes

     site n.     atom                  positions (alat units)
         1           Mo  tau(   1) = (   0.6952221   0.1890506   0.2985846  )
         2           S   tau(   2) = (   0.8646417   0.0856217   0.4689279  )
         3           S   tau(   3) = (   0.8663890   0.0857843   0.1351291  )
         4           Mo  tau(   4) = (   0.8560186   0.4753274   0.2873942  )
         5           S   tau(   5) = (   0.6873294   0.3936244   0.4596353  )
         6           S   tau(   6) = (   0.6929804   0.3713468   0.1185692  )
         7           Mo  tau(   7) = (   0.6862796   0.7633098   0.2825370  )
         8           S   tau(   8) = (   0.8545980   0.6708292   0.4486168  )
         9           S   tau(   9) = (   0.8545123   0.6666874   0.1146125  )
        10           Mo  tau(  10) = (   0.8629403   1.0471007   0.3006803  )
        11           S   tau(  11) = (   0.6868280   0.9456650   0.4634891  )
        12           S   tau(  12) = (   0.6998113   0.9568511   0.1205389  )
        13           Mo  tau(  13) = (   0.3618216   0.1847309   0.2935964  )
        14           S   tau(  14) = (   0.5260962   0.0863870   0.4600448  )
        15           S   tau(  15) = (   0.5348379   0.0894875   0.1297123  )
        16           Mo  tau(  16) = (   0.5265817   0.4772436   0.2784130  )
        17           S   tau(  17) = (   0.3624753   0.3882513   0.4525556  )
        18           S   tau(  18) = (   0.3635411   0.3752055   0.1119148  )
        19           Mo  tau(  19) = (   0.3652268   0.7630864   0.2781795  )
        20           S   tau(  20) = (   0.5269494   0.6690381   0.1096838  )
        21           Mo  tau(  21) = (   0.5300192   1.0470394   0.2900995  )
        22           S   tau(  22) = (   0.3670346   0.9457522   0.4574073  )
        23           S   tau(  23) = (   0.3604225   0.9585725   0.1159032  )
        24           Mo  tau(  24) = (   0.0313099   0.1847895   0.3013130  )
        25           S   tau(  25) = (   0.1956761   0.0838230   0.4650863  )
        26           S   tau(  26) = (   0.1967693   0.0903508   0.1278874  )
        27           Mo  tau(  27) = (   0.1967578   0.4753919   0.2813011  )
        28           S   tau(  28) = (   0.0287851   0.3864324   0.4586755  )
        29           S   tau(  29) = (   0.0244514   0.3729871   0.1239344  )
        30           Mo  tau(  30) = (   0.0286728   0.7631204   0.2856894  )
        31           S   tau(  31) = (   0.2011512   0.6675435   0.4465001  )
        32           S   tau(  32) = (   0.1969214   0.6672839   0.1104564  )
        33           Mo  tau(  33) = (   0.1950294   1.0511147   0.2932237  )
        34           S   tau(  34) = (   0.0312912   0.9612169   0.4667423  )
        35           S   tau(  35) = (   0.0292670   0.9563028   0.1216485  )
        36           H   tau(  36) = (   0.3333333   0.1284079   0.5650415  )

     number of k points=     1  Gaussian smearing, width (Ry)=  0.0100
                       cart. coord. in units 2pi/alat
        k(    1) = (   0.0000000   0.0000000   0.0000000), wk =   2.0000000

     Dense  grid:  1177734 G-vectors     FFT dimensions: ( 120, 135, 320)

     Smooth grid:   842757 G-vectors     FFT dimensions: ( 108, 120, 270)

     Estimated max dynamical RAM per process >     146.59 MB

     Estimated total dynamical RAM >       6.87 GB

     Initial potential from superposition of free atoms

     starting charge     306.9873, renormalised to     307.0000

     negative rho (up, down):  1.410E-04 0.000E+00


---------------------------------------------------------------------------------
Carrying out rVV10 run using the following parameters:
Nqs =      20    Nr_points =    1024   r_max =   100.000
b_value =  6.30000    beta =  0.00901
     q_mesh =  0.00010000  0.00030000  0.00058939  0.00100810
               0.00161396  0.00249058  0.00375900  0.00559430
               0.00824984  0.01209221  0.01765183  0.02569619
               0.03733578  0.05417739  0.07854596  0.11380545
               0.16482331  0.23864234  0.34545298  0.50000000

Gradients computed in Reciprocal space

---------------------------------------------------------------------------------


     Starting wfcs are  213 randomized atomic wfcs

     total cpu time spent up to now is        3.5 secs

     Self-consistent Calculation

     iteration #  1     ecut=    80.00 Ry     beta= 0.70
     Davidson diagonalization with overlap
     ethr =  1.00E-02,  avg # of iterations =  2.0

     Threshold (ethr) on eigenvalues was too large:
     Diagonalizing with lowered threshold

     Davidson diagonalization with overlap
     ethr =  3.94E-04,  avg # of iterations =  4.0

     negative rho (up, down):  1.367E-08 0.000E+00

     total cpu time spent up to now is       27.5 secs

     total energy              =   -2205.58039394 Ry
     estimated scf accuracy    <       1.50129035 Ry

     iteration #  2     ecut=    80.00 Ry     beta= 0.70
     Davidson diagonalization with overlap
     ethr =  4.89E-04,  avg # of iterations =  2.0

     total cpu time spent up to now is       30.0 secs

     total energy              =   -2205.44951514 Ry
     estimated scf accuracy    <       0.58048173 Ry

     iteration #  3     ecut=    80.00 Ry     beta= 0.70
     Davidson diagonalization with overlap
     ethr =  1.89E-04,  avg # of iterations =  5.0

     total cpu time spent up to now is       32.5 secs

     total energy              =   -2205.50683790 Ry
     estimated scf accuracy    <       0.11147960 Ry

     iteration #  4     ecut=    80.00 Ry     beta= 0.70
     Davidson diagonalization with overlap
     ethr =  3.63E-05,  avg # of iterations = 18.0

     total cpu time spent up to now is       35.8 secs

     total energy              =   -2205.51788038 Ry
     estimated scf accuracy    <       0.03305546 Ry

     iteration #  5     ecut=    80.00 Ry     beta= 0.70
     Davidson diagonalization with overlap
     ethr =  1.08E-05,  avg # of iterations =  7.0

     total cpu time spent up to now is       38.2 secs

     total energy              =   -2205.51806062 Ry
     estimated scf accuracy    <       0.01997391 Ry

     iteration #  6     ecut=    80.00 Ry     beta= 0.70
     Davidson diagonalization with overlap
     ethr =  6.51E-06,  avg # of iterations =  1.0

     total cpu time spent up to now is       40.5 secs

     total energy              =   -2205.51658063 Ry
     estimated scf accuracy    <       0.01235532 Ry

     iteration #  7     ecut=    80.00 Ry     beta= 0.70
     Davidson diagonalization with overlap
     ethr =  4.02E-06,  avg # of iterations =  2.0

     total cpu time spent up to now is       43.8 secs

     total energy              =   -2205.51538886 Ry
     estimated scf accuracy    <       0.00663763 Ry

     iteration #  8     ecut=    80.00 Ry     beta= 0.70
     Davidson diagonalization with overlap
     c_bands:  1 eigenvalues not converged
     ethr =  2.16E-06,  avg # of iterations = 20.0

     negative rho (up, down):  6.684E-03 0.000E+00

     total cpu time spent up to now is       48.9 secs

     total energy              =   -2205.51483504 Ry
     estimated scf accuracy    <       0.00363909 Ry

     iteration #  9     ecut=    80.00 Ry     beta= 0.70
     Davidson diagonalization with overlap
     ethr =  1.19E-06,  avg # of iterations = 14.0

     negative rho (up, down):  2.891E-02 0.000E+00

     total cpu time spent up to now is       53.2 secs

     total energy              =   -2205.51473355 Ry
     estimated scf accuracy    <       0.00222886 Ry

     iteration # 10     ecut=    80.00 Ry     beta= 0.70
     Davidson diagonalization with overlap
     ethr =  7.26E-07,  avg # of iterations =  2.0

     negative rho (up, down):  2.873E-02 0.000E+00

     total cpu time spent up to now is       58.7 secs

     total energy              =   -2205.51482278 Ry
     estimated scf accuracy    <       0.00083607 Ry

     iteration # 11     ecut=    80.00 Ry     beta= 0.70
     Davidson diagonalization with overlap
     ethr =  2.72E-07,  avg # of iterations =  2.0

     negative rho (up, down):  1.515E-02 0.000E+00

     total cpu time spent up to now is       64.7 secs

     total energy              =   -2205.51483956 Ry
     estimated scf accuracy    <       0.00019114 Ry

     iteration # 12     ecut=    80.00 Ry     beta= 0.70
     Davidson diagonalization with overlap
     ethr =  6.23E-08,  avg # of iterations =  6.0

     negative rho (up, down):  5.676E-03 0.000E+00

     total cpu time spent up to now is       71.7 secs

     total energy              =   -2205.51491837 Ry
     estimated scf accuracy    <       0.00003106 Ry

     iteration # 13     ecut=    80.00 Ry     beta= 0.70
     Davidson diagonalization with overlap
     ethr =  1.01E-08,  avg # of iterations =  8.0

     negative rho (up, down):  1.518E-03 0.000E+00

     total cpu time spent up to now is       78.6 secs

     total energy              =   -2205.51492486 Ry
     estimated scf accuracy    <       0.00000748 Ry

     iteration # 14     ecut=    80.00 Ry     beta= 0.70
     Davidson diagonalization with overlap
     ethr =  2.44E-09,  avg # of iterations =  2.0

     negative rho (up, down):  2.852E-04 0.000E+00

     total cpu time spent up to now is       87.7 secs

     total energy              =   -2205.51492884 Ry
     estimated scf accuracy    <       0.00000165 Ry

     iteration # 15     ecut=    80.00 Ry     beta= 0.70
     Davidson diagonalization with overlap
     ethr =  5.38E-10,  avg # of iterations =  5.0

     negative rho (up, down):  1.370E-04 0.000E+00

     total cpu time spent up to now is       90.0 secs

     End of self-consistent calculation

          k = 0.0000 0.0000 0.0000 (105382 PWs)   bands (ev):

   -62.8783 -62.8693 -62.8506 -62.8436 -62.8361 -62.8323 -62.8234 -62.7723
   -62.7537 -62.7224 -62.7051 -62.6859 -37.2113 -37.1450 -37.1388 -37.1316
   -37.1198 -37.1011 -37.0859 -37.0732 -37.0611 -37.0578 -37.0394 -37.0347
   -37.0324 -37.0244 -37.0184 -37.0091 -36.9972 -36.9902 -36.9883 -36.9476
   -36.9303 -36.9255 -36.9091 -36.8962 -36.8877 -36.8764 -36.8731 -36.8680
   -36.8573 -36.8530 -36.8509 -36.8304 -36.8242 -36.7901 -36.6890 -36.6612
   -16.0744 -15.3956 -15.1644 -15.0502 -14.9185 -14.8374 -14.6546 -14.4895
   -14.4353 -14.4077 -14.3873 -14.3534 -14.3353 -14.2645 -14.1588 -14.1113
   -14.1060 -14.0951 -14.0250 -13.9215 -13.8191 -13.7936 -13.7759  -8.4001
    -7.6590  -7.4464  -7.2865  -7.2611  -7.2253  -7.1933  -7.1679  -6.9597
    -6.8299  -6.7723  -6.7485  -6.6990  -6.6255  -6.4833  -6.4452  -6.4179
    -6.3382  -6.2474  -6.0886  -5.9498  -5.9340  -5.8999  -5.8052  -5.7825
    -5.7716  -5.7058  -5.6801  -5.6332  -5.5969  -5.5313  -5.5241  -5.4564
    -5.4162  -5.3558  -5.2190  -5.1311  -5.0823  -5.0144  -4.9776  -4.9563
    -4.9025  -4.8093  -4.6606  -4.5114  -4.4184  -4.3321  -4.2708  -4.2166
    -4.1597  -4.0752  -3.9955  -3.8950  -3.8040  -3.7852  -3.7525  -3.6887
    -3.6502  -3.5590  -3.5349  -3.5269  -3.4700  -3.4385  -3.4284  -3.3957
    -3.3606  -3.1939  -3.1235  -2.9241  -2.8690  -2.7984  -2.7597  -2.7305
    -2.7057  -2.6576  -2.6329  -2.6031  -2.5393  -2.2663  -2.0271  -1.9749
    -1.8872  -0.8845  -0.7595  -0.5953  -0.1746  -0.1267  -0.0817   0.0118
     0.0514   0.1482   0.1642   0.2460   0.2500   0.2774   0.3367   0.4643
     0.5015   0.5496   0.5651   0.5947   0.6220   0.6901   0.7260   0.7498
     0.7735   0.8021   0.8746   0.8885   0.9628   0.9895   1.0210   1.2835
     1.3970

     the Fermi energy is    -0.9016 ev

!    total energy              =   -2205.51493027 Ry
     estimated scf accuracy    <       0.00000028 Ry
     smearing contrib. (-TS)   =      -0.00748303 Ry
     internal energy E=F+TS    =   -2205.50744724 Ry

     The total energy is F=E-TS. E is the sum of the following terms:
     one-electron contribution =  -18048.30966004 Ry
     hartree contribution      =    9011.01021349 Ry
     xc contribution           =    -385.26147168 Ry
     ewald contribution        =    7217.05347099 Ry

     convergence has been achieved in  15 iterations

     negative rho (up, down):  1.370E-04 0.000E+00

     Forces acting on atoms (cartesian axes, Ry/au):

     atom    1 type  1   force =     0.01814198   -0.01935052    0.00496152
     atom    2 type  2   force =    -0.01658762    0.01660772    0.00080391
     atom    3 type  2   force =    -0.01178371    0.00914285   -0.00380127
     atom    4 type  1   force =     0.00403581    0.00641759    0.00059815
     atom    5 type  2   force =     0.00041941   -0.00577678   -0.00459558
     atom    6 type  2   force =     0.00158823    0.00921427   -0.00075977
     atom    7 type  1   force =     0.00936724   -0.01765072   -0.00828952
     atom    8 type  2   force =     0.00120090   -0.00352694    0.01881907
     atom    9 type  2   force =     0.01258978    0.00603174    0.01058614
     atom   10 type  1   force =    -0.01024722    0.01175495   -0.02601270
     atom   11 type  2   force =     0.00703284   -0.00211791   -0.00540533
     atom   12 type  2   force =    -0.00189732    0.00085406    0.00568612
     atom   13 type  1   force =     0.01534953    0.02463779   -0.04736182
     atom   14 type  2   force =     0.00714349    0.00085895    0.01998317
     atom   15 type  2   force =    -0.01339061    0.00274091   -0.00840382
     atom   16 type  1   force =     0.00169559    0.00717961    0.00223471
     atom   17 type  2   force =     0.00607022    0.00187002    0.00359123
     atom   18 type  2   force =    -0.00421406   -0.00799713    0.01357431
     atom   19 type  1   force =     0.00482822   -0.00425515   -0.00642115
     atom   20 type  2   force =     0.00237400   -0.00403116    0.00083405
     atom   21 type  1   force =    -0.00845070    0.00243409   -0.00130627
     atom   22 type  2   force =    -0.00130472   -0.00684434   -0.00105522
     atom   23 type  2   force =    -0.00314117    0.00273648    0.00987930
     atom   24 type  1   force =    -0.01919490    0.01203625   -0.02714329
     atom   25 type  2   force =     0.05524724    0.02140278    0.06224605
     atom   26 type  2   force =    -0.01102677   -0.00110296   -0.00474084
     atom   27 type  1   force =    -0.00432058   -0.00380740    0.00578838
     atom   28 type  2   force =    -0.00263750    0.00173810   -0.00467492
     atom   29 type  2   force =     0.00373143   -0.00215480   -0.00280941
     atom   30 type  1   force =    -0.00294893    0.01250301   -0.00551536
     atom   31 type  2   force =     0.00104341   -0.00134220    0.01644003
     atom   32 type  2   force =    -0.00877768    0.00613026    0.00854935
     atom   33 type  1   force =     0.02129013   -0.00920838   -0.01014500
     atom   34 type  2   force =    -0.00005999   -0.04585168   -0.00905840
     atom   35 type  2   force =    -0.00875647    0.00599309    0.01408518
     atom   36 type  3   force =    -0.04440949   -0.02726639   -0.02116100
     The non-local contrib.  to forces
     atom    1 type  1   force =    -0.00128414    0.03180538   -0.01285822
     atom    2 type  2   force =    -0.01535980   -0.00127752   -0.26469602
     atom    3 type  2   force =    -0.01483543    0.00107175    0.27147972
     atom    4 type  1   force =    -0.00008878    0.00856027    0.00444444
     atom    5 type  2   force =     0.00579449   -0.03341086   -0.25399319
     atom    6 type  2   force =    -0.00196378    0.01022784    0.26441527
     atom    7 type  1   force =    -0.02516766    0.00338380   -0.01810258
     atom    8 type  2   force =     0.00570703   -0.00199402   -0.25304758
     atom    9 type  2   force =     0.00849125   -0.00911948    0.27576677
     atom   10 type  1   force =     0.00129856   -0.00279039    0.00202826
     atom   11 type  2   force =     0.01779426    0.00352438   -0.25767002
     atom   12 type  2   force =    -0.01219612   -0.01567337    0.26298603
     atom   13 type  1   force =     0.00260564    0.01836529   -0.00045605
     atom   14 type  2   force =    -0.02529125    0.00059739   -0.19898627
     atom   15 type  2   force =    -0.01299176   -0.00459694    0.26212993
     atom   16 type  1   force =     0.00001115    0.03761292   -0.02642772
     atom   17 type  2   force =    -0.00060779   -0.02046195   -0.23534112
     atom   18 type  2   force =    -0.00440305   -0.00773091    0.27448966
     atom   19 type  1   force =     0.01508974   -0.00888109   -0.01834697
     atom   20 type  2   force =    -0.00034420   -0.02200713    0.26556073
     atom   21 type  1   force =     0.00195910    0.02426476    0.00463063
     atom   22 type  2   force =    -0.00767736    0.00966054   -0.25964789
     atom   23 type  2   force =     0.00129485   -0.01489779    0.26754407
     atom   24 type  1   force =     0.01357476    0.01234625   -0.01792803
     atom   25 type  2   force =     0.23365317    0.09348791   -0.03949126
     atom   26 type  2   force =    -0.00235820   -0.01315189    0.26664820
     atom   27 type  1   force =    -0.00141471    0.01203269    0.00940179
     atom   28 type  2   force =    -0.00444298   -0.02396380   -0.27282965
     atom   29 type  2   force =     0.00716289   -0.00199027    0.26570132
     atom   30 type  1   force =    -0.00264245    0.01620508    0.00879718
     atom   31 type  2   force =    -0.00749570    0.00051448   -0.25291425
     atom   32 type  2   force =    -0.00349312   -0.01046377    0.27409066
     atom   33 type  1   force =    -0.00592297    0.00992031   -0.00144517
     atom   34 type  2   force =    -0.00485599   -0.04052442   -0.27106733
     atom   35 type  2   force =    -0.00195877   -0.01211505    0.27117795
     atom   36 type  3   force =    -0.01692974   -0.00763705   -0.01593725
     The ionic contribution  to forces
     atom    1 type  1   force =     0.58046398    0.27950494    5.53926278
     atom    2 type  2   force =    -0.69859470    0.38541486   39.26065554
     atom    3 type  2   force =    -0.17161463    0.00884741  -36.10966299
     atom    4 type  1   force =     0.07954311    0.67529922    0.65516635
     atom    5 type  2   force =    -0.88444500    1.59005899   38.72899934
     atom    6 type  2   force =     0.36490748   -0.47325830  -38.04186697
     atom    7 type  1   force =    -2.57707444   -2.80628680    2.57613017
     atom    8 type  2   force =    -0.98892715    0.04076075   37.39653487
     atom    9 type  2   force =     0.34035151   -0.03015379  -37.99105293
     atom   10 type  1   force =    -1.12585885   -0.42042312    5.62073682
     atom   11 type  2   force =    -0.50667002   -1.68523311   39.13244328
     atom   12 type  2   force =     0.45696927    0.66737345  -37.85836964
     atom   13 type  1   force =     0.58647699    1.19942008    1.88423610
     atom   14 type  2   force =     0.67328089   -0.14620295   38.19337879
     atom   15 type  2   force =     0.20222310   -0.07513453  -36.88678380
     atom   16 type  1   force =     0.07426926    4.13303503    0.38381832
     atom   17 type  2   force =     0.85525637    1.89397883   37.77955430
     atom   18 type  2   force =    -0.15549718   -0.59766723  -38.62330528
     atom   19 type  1   force =     2.72959626   -2.49858287    0.62000414
     atom   20 type  2   force =     0.23938461   -0.18954479  -38.47548002
     atom   21 type  1   force =     0.22532228   -0.19787001    0.94447125
     atom   22 type  2   force =     0.48204666   -1.95299389   38.37011658
     atom   23 type  2   force =    -0.08275437    0.62150301  -38.32498651
     atom   24 type  1   force =    -0.83244300    1.20434483    5.59661593
     atom   25 type  2   force =    -0.26962246   -0.02295185   38.60739597
     atom   26 type  2   force =    -0.32610802    0.05187953  -37.43487043
     atom   27 type  1   force =    -0.05991171    0.62218789   -2.37957253
     atom   28 type  2   force =    -0.06239369    1.12730167   38.17541299
     atom   29 type  2   force =    -0.29050938   -0.39631748  -37.28920107
     atom   30 type  1   force =    -0.38853194   -0.93353014   -0.03200748
     atom   31 type  2   force =     1.20252573   -0.02778098   37.32319712
     atom   32 type  2   force =    -0.48920122    0.00261328  -38.63472432
     atom   33 type  1   force =     0.61958860   -1.16595821    1.76958075
     atom   34 type  2   force =     0.15883255   -1.54585147   39.33891080
     atom   35 type  2   force =    -0.31952421    0.44882955  -37.82502776
     atom   36 type  3   force =     0.35864335    0.21338821    8.01028958
     The local contribution  to forces
     atom    1 type  1   force =    -0.56102676   -0.33043266   -5.52092659
     atom    2 type  2   force =     0.69689760   -0.36753381  -39.01524232
     atom    3 type  2   force =     0.17396172   -0.00059007   35.85536891
     atom    4 type  1   force =    -0.07557619   -0.67736399   -0.65852114
     atom    5 type  2   force =     0.87963050   -1.56426381  -38.49973000
     atom    6 type  2   force =    -0.36169701    0.47336703   37.79773068
     atom    7 type  1   force =     2.61164313    2.78514968   -2.56585249
     atom    8 type  2   force =     0.98460220   -0.04272450  -37.14468144
     atom    9 type  2   force =    -0.33609001    0.04473653   37.74685270
     atom   10 type  1   force =     1.11423771    0.43483437   -5.64819407
     atom   11 type  2   force =     0.49674890    1.68001623  -38.90039776
     atom   12 type  2   force =    -0.44780474   -0.65225307   37.62196657
     atom   13 type  1   force =    -0.57351074   -1.19285989   -1.93074555
     atom   14 type  2   force =    -0.64247975    0.14709940  -37.99120312
     atom   15 type  2   force =    -0.20320813    0.08218497   36.63689262
     atom   16 type  1   force =    -0.07248773   -4.16348107   -0.35469042
     atom   17 type  2   force =    -0.84868782   -1.87283464  -37.55969803
     atom   18 type  2   force =     0.15565965    0.59783037   38.38348175
     atom   19 type  1   force =    -2.73985598    2.50308718   -0.60764698
     atom   20 type  2   force =    -0.23679637    0.20665934   38.23201760
     atom   21 type  1   force =    -0.23559617    0.17580198   -0.94987438
     atom   22 type  2   force =    -0.47589030    1.93727180  -38.13172469
     atom   23 type  2   force =     0.07860822   -0.60524379   38.08822877
     atom   24 type  1   force =     0.79939649   -1.20441117   -5.60531255
     atom   25 type  2   force =     0.10451387   -0.04365862  -38.51310240
     atom   26 type  2   force =     0.31753190   -0.04057154   37.18445672
     atom   27 type  1   force =     0.05709449   -0.63781771    2.37638315
     atom   28 type  2   force =     0.06391446   -1.10338302  -37.92774102
     atom   29 type  2   force =     0.28765764    0.39660124   37.04138883
     atom   30 type  1   force =     0.38821086    0.92972854    0.01812452
     atom   31 type  2   force =    -1.19439961    0.02581878  -37.07406600
     atom   32 type  2   force =     0.48404127    0.01333274   38.39029801
     atom   33 type  1   force =    -0.59239938    1.14645860   -1.77779838
     atom   34 type  2   force =    -0.15460095    1.53926950  -39.09754190
     atom   35 type  2   force =     0.31282059   -0.43184916   37.58906880
     atom   36 type  3   force =    -0.38612428   -0.23302086   -8.01544993
     The core correction contribution to forces
     atom    1 type  1   force =     0.00000000    0.00000000    0.00000000
     atom    2 type  2   force =     0.00042831    0.00000748    0.02044295
     atom    3 type  2   force =     0.00065692   -0.00016426   -0.02095275
     atom    4 type  1   force =     0.00000000    0.00000000    0.00000000
     atom    5 type  2   force =    -0.00060252    0.00191205    0.02036966
     atom    6 type  2   force =     0.00026292   -0.00102977   -0.02093865
     atom    7 type  1   force =     0.00000000    0.00000000    0.00000000
     atom    8 type  2   force =    -0.00023294    0.00041812    0.02031410
     atom    9 type  2   force =    -0.00021984    0.00056173   -0.02092743
     atom   10 type  1   force =     0.00000000    0.00000000    0.00000000
     atom   11 type  2   force =    -0.00082870   -0.00050133    0.02051540
     atom   12 type  2   force =     0.00113581    0.00129024   -0.02082911
     atom   13 type  1   force =     0.00000000    0.00000000    0.00000000
     atom   14 type  2   force =     0.00173485   -0.00063948    0.01718901
     atom   15 type  2   force =     0.00067672    0.00032737   -0.02064240
     atom   16 type  1   force =     0.00000000    0.00000000    0.00000000
     atom   17 type  2   force =     0.00019180    0.00134822    0.01937395
     atom   18 type  2   force =     0.00012087   -0.00027428   -0.02104862
     atom   19 type  1   force =     0.00000000    0.00000000    0.00000000
     atom   20 type  2   force =     0.00014146    0.00080998   -0.02117921
     atom   21 type  1   force =     0.00000000    0.00000000    0.00000000
     atom   22 type  2   force =     0.00024140   -0.00089180    0.02049068
     atom   23 type  2   force =    -0.00027675    0.00122089   -0.02085418
     atom   24 type  1   force =     0.00000000    0.00000000    0.00000000
     atom   25 type  2   force =    -0.01334467   -0.00550032    0.00797221
     atom   26 type  2   force =    -0.00013393    0.00073517   -0.02104390
     atom   27 type  1   force =     0.00000000    0.00000000    0.00000000
     atom   28 type  2   force =     0.00024529    0.00184863    0.02082652
     atom   29 type  2   force =    -0.00060004   -0.00036915   -0.02068003
     atom   30 type  1   force =     0.00000000    0.00000000    0.00000000
     atom   31 type  2   force =     0.00044554    0.00008515    0.02049200
     atom   32 type  2   force =    -0.00007757    0.00064025   -0.02104694
     atom   33 type  1   force =     0.00000000    0.00000000    0.00000000
     atom   34 type  2   force =     0.00052392    0.00120137    0.02098826
     atom   35 type  2   force =    -0.00011185    0.00102571   -0.02110405
     atom   36 type  3   force =     0.00000000    0.00000000    0.00000000
     The Hubbard contrib.    to forces
     atom    1 type  1   force =     0.00000000    0.00000000    0.00000000
     atom    2 type  2   force =     0.00000000    0.00000000    0.00000000
     atom    3 type  2   force =     0.00000000    0.00000000    0.00000000
     atom    4 type  1   force =     0.00000000    0.00000000    0.00000000
     atom    5 type  2   force =     0.00000000    0.00000000    0.00000000
     atom    6 type  2   force =     0.00000000    0.00000000    0.00000000
     atom    7 type  1   force =     0.00000000    0.00000000    0.00000000
     atom    8 type  2   force =     0.00000000    0.00000000    0.00000000
     atom    9 type  2   force =     0.00000000    0.00000000    0.00000000
     atom   10 type  1   force =     0.00000000    0.00000000    0.00000000
     atom   11 type  2   force =     0.00000000    0.00000000    0.00000000
     atom   12 type  2   force =     0.00000000    0.00000000    0.00000000
     atom   13 type  1   force =     0.00000000    0.00000000    0.00000000
     atom   14 type  2   force =     0.00000000    0.00000000    0.00000000
     atom   15 type  2   force =     0.00000000    0.00000000    0.00000000
     atom   16 type  1   force =     0.00000000    0.00000000    0.00000000
     atom   17 type  2   force =     0.00000000    0.00000000    0.00000000
     atom   18 type  2   force =     0.00000000    0.00000000    0.00000000
     atom   19 type  1   force =     0.00000000    0.00000000    0.00000000
     atom   20 type  2   force =     0.00000000    0.00000000    0.00000000
     atom   21 type  1   force =     0.00000000    0.00000000    0.00000000
     atom   22 type  2   force =     0.00000000    0.00000000    0.00000000
     atom   23 type  2   force =     0.00000000    0.00000000    0.00000000
     atom   24 type  1   force =     0.00000000    0.00000000    0.00000000
     atom   25 type  2   force =     0.00000000    0.00000000    0.00000000
     atom   26 type  2   force =     0.00000000    0.00000000    0.00000000
     atom   27 type  1   force =     0.00000000    0.00000000    0.00000000
     atom   28 type  2   force =     0.00000000    0.00000000    0.00000000
     atom   29 type  2   force =     0.00000000    0.00000000    0.00000000
     atom   30 type  1   force =     0.00000000    0.00000000    0.00000000
     atom   31 type  2   force =     0.00000000    0.00000000    0.00000000
     atom   32 type  2   force =     0.00000000    0.00000000    0.00000000
     atom   33 type  1   force =     0.00000000    0.00000000    0.00000000
     atom   34 type  2   force =     0.00000000    0.00000000    0.00000000
     atom   35 type  2   force =     0.00000000    0.00000000    0.00000000
     atom   36 type  3   force =     0.00000000    0.00000000    0.00000000
     The SCF correction term to forces
     atom    1 type  1   force =    -0.00001097   -0.00023221   -0.00050566
     atom    2 type  2   force =     0.00004109   -0.00000732   -0.00034546
     atom    3 type  2   force =     0.00004783   -0.00002601   -0.00002338
     atom    4 type  1   force =     0.00015779   -0.00008195   -0.00048072
     atom    5 type  2   force =     0.00004207   -0.00007719   -0.00023060
     atom    6 type  2   force =     0.00007873   -0.00009657   -0.00008932
     atom    7 type  1   force =    -0.00003367    0.00009857   -0.00045384
     atom    8 type  2   force =     0.00005189    0.00000868   -0.00029011
     atom    9 type  2   force =     0.00005700    0.00000271   -0.00004219
     atom   10 type  1   force =     0.00007548    0.00013005   -0.00057294
     atom   11 type  2   force =    -0.00001147    0.00007189   -0.00028544
     atom   12 type  2   force =    -0.00000142    0.00011278   -0.00005694
     atom   13 type  1   force =    -0.00022224   -0.00029172   -0.00038554
     atom   14 type  2   force =    -0.00010113    0.00000055   -0.00038446
     atom   15 type  2   force =    -0.00009041   -0.00004400    0.00001062
     atom   16 type  1   force =    -0.00009697    0.00000870   -0.00045467
     atom   17 type  2   force =    -0.00008221   -0.00016447   -0.00028710
     atom   18 type  2   force =    -0.00009423   -0.00015912   -0.00003242
     atom   19 type  1   force =    -0.00000168    0.00011759   -0.00042056
     atom   20 type  2   force =    -0.00001139    0.00004740   -0.00007427
     atom   21 type  1   force =    -0.00013579    0.00023333   -0.00052298
     atom   22 type  2   force =    -0.00002498    0.00010497   -0.00027911
     atom   23 type  2   force =    -0.00001301    0.00015012   -0.00004206
     atom   24 type  1   force =     0.00027697   -0.00024769   -0.00050785
     atom   25 type  2   force =     0.00004745    0.00002163   -0.00051769
     atom   26 type  2   force =     0.00004159    0.00000174    0.00007935
     atom   27 type  1   force =    -0.00008852   -0.00021431   -0.00041325
     atom   28 type  2   force =     0.00003954   -0.00006941   -0.00033297
     atom   29 type  2   force =     0.00002046   -0.00008317   -0.00000768
     atom   30 type  1   force =     0.00001473    0.00009549   -0.00041881
     atom   31 type  2   force =    -0.00003243    0.00001634   -0.00025806
     atom   32 type  2   force =    -0.00004691    0.00000373   -0.00005728
     atom   33 type  1   force =     0.00002399    0.00036689   -0.00047142
     atom   34 type  2   force =     0.00004061    0.00004931   -0.00033745
     atom   35 type  2   force =     0.00001791    0.00009801   -0.00001897
     atom   36 type  3   force =     0.00000130   -0.00000072   -0.00005262

     Total force =     0.155830     Total SCF correction =     0.002189

     BFGS Geometry Optimization
     Energy error            =      0.0E+00 Ry
     Gradient error          =      6.2E-02 Ry/Bohr

     number of scf cycles    =   1
     number of bfgs steps    =   0

     energy             new  =   -2205.5149302681 Ry

     new trust radius        =       0.0859354824 bohr
     new conv_thr            =       0.0000010000 Ry


ATOMIC_POSITIONS (angstrom)
Mo            6.5841487315        1.7775663769        2.8262685553
S             8.1679315474        0.8184924510        4.4349637658
S             8.1869974148        0.8160799302        1.2758718787
Mo            8.0972982219        4.4984529848        2.7181349193
S             6.5001311977        3.7193545460        4.3442287740
S             6.5541902545        3.5166135354        1.1208781729
Mo            6.4949386270        7.2090969244        2.6674978614
S             8.0823632150        6.3420046145        4.2524201843
S             8.0875798742        6.3078941738        1.0894649403
Mo            8.1551964518        9.9084008627        2.8296964304
S             6.4988892140        8.9418060660        4.3802451588
S             6.6169431833        9.0491631623        1.1429162688
Mo            3.4297822826        1.7599936070        2.7514083653
S             4.9789456620        0.8173957479        4.3611077314
S             5.0507477482        0.8477125340        1.2222113532
Mo            4.9806539469        4.5169772893        2.6340671088
S             3.4310538818        3.6725892574        4.2816099755
S             3.4356905981        3.5439967971        1.0655348996
Mo            3.4564167246        7.2140728086        2.6272789366
S             4.9844904584        6.3247990879        1.0376950926
Mo            5.0077920016        9.9028881154        2.7427097130
S             3.4702676909        8.9401293996        4.3250329119
S             3.4067669280        9.0664380650        1.1012962016
Mo            0.2859329821        1.7538788396        2.8350810997
S             1.8796977929        0.8040198705        4.4311486295
S             1.8549649173        0.8538422548        1.2068921088
Mo            1.8584049582        4.4936519718        2.6632604581
S             0.2708181466        3.6553185881        4.3351102407
S             0.2332057965        3.5261089532        1.1705312060
Mo            0.2695916470        7.2232624003        2.6987778228
S             1.9027903940        6.3120885712        4.2311438121
S             1.8575932679        6.3135878069        1.0490834036
Mo            1.8556129125        9.9352662867        2.7675777475
S             0.2958811541        9.0657341636        4.4090759674
S             0.2721376766        9.0466971194        1.1578543356
H             3.1287528434        1.1998934695        5.3322638408



     Writing config-only to output data dir ./MoS2-V-O.save/
     NEW-OLD atomic charge density approx. for the potential

     negative rho (up, down):  1.464E-04 0.000E+00

     total cpu time spent up to now is       93.4 secs

     Self-consistent Calculation

     iteration #  1     ecut=    80.00 Ry     beta= 0.70
     Davidson diagonalization with overlap
     ethr =  1.00E-06,  avg # of iterations = 16.0

     negative rho (up, down):  7.847E-05 0.000E+00

     total cpu time spent up to now is      113.5 secs

     total energy              =   -2205.53524183 Ry
     estimated scf accuracy    <       0.00305881 Ry

     iteration #  2     ecut=    80.00 Ry     beta= 0.70
     Davidson diagonalization with overlap
     ethr =  9.96E-07,  avg # of iterations =  2.0

     negative rho (up, down):  6.802E-05 0.000E+00

     total cpu time spent up to now is      129.0 secs

     total energy              =   -2205.53531693 Ry
     estimated scf accuracy    <       0.00063160 Ry

     iteration #  3     ecut=    80.00 Ry     beta= 0.70
     Davidson diagonalization with overlap
     ethr =  2.06E-07,  avg # of iterations =  3.0

     negative rho (up, down):  6.043E-05 0.000E+00

     total cpu time spent up to now is      143.4 secs

     total energy              =   -2205.53534426 Ry
     estimated scf accuracy    <       0.00022262 Ry

     iteration #  4     ecut=    80.00 Ry     beta= 0.70
     Davidson diagonalization with overlap
     ethr =  7.25E-08,  avg # of iterations =  5.0

     negative rho (up, down):  5.878E-05 0.000E+00

     total cpu time spent up to now is      157.3 secs

     total energy              =   -2205.53537592 Ry
     estimated scf accuracy    <       0.00001418 Ry

     iteration #  5     ecut=    80.00 Ry     beta= 0.70
     Davidson diagonalization with overlap
     ethr =  4.62E-09,  avg # of iterations =  8.0

     negative rho (up, down):  5.647E-05 0.000E+00

     total cpu time spent up to now is      171.0 secs

     total energy              =   -2205.53538176 Ry
     estimated scf accuracy    <       0.00000698 Ry

     iteration #  6     ecut=    80.00 Ry     beta= 0.70
     Davidson diagonalization with overlap
     ethr =  2.27E-09,  avg # of iterations =  2.0

     negative rho (up, down):  5.396E-05 0.000E+00

     total cpu time spent up to now is      183.6 secs

     total energy              =   -2205.53538272 Ry
     estimated scf accuracy    <       0.00000162 Ry

     iteration #  7     ecut=    80.00 Ry     beta= 0.70
     Davidson diagonalization with overlap
     ethr =  5.27E-10,  avg # of iterations =  5.0

     negative rho (up, down):  1.374E-04 0.000E+00

     total cpu time spent up to now is      185.7 secs

     End of self-consistent calculation

          k = 0.0000 0.0000 0.0000 (105382 PWs)   bands (ev):

   -62.8717 -62.8633 -62.8446 -62.8386 -62.8296 -62.8275 -62.8196 -62.7645
   -62.7509 -62.7091 -62.6909 -62.6833 -37.2015 -37.1350 -37.1247 -37.1236
   -37.1117 -37.0962 -37.0775 -37.0654 -37.0536 -37.0508 -37.0375 -37.0292
   -37.0260 -37.0184 -37.0079 -37.0050 -36.9898 -36.9853 -36.9789 -36.9409
   -36.9254 -36.9214 -36.8974 -36.8892 -36.8780 -36.8681 -36.8652 -36.8556
   -36.8547 -36.8468 -36.8410 -36.8253 -36.8196 -36.7863 -36.6828 -36.6504
   -16.0719 -15.4179 -15.1642 -15.0399 -14.9060 -14.8360 -14.6519 -14.4823
   -14.4221 -14.3964 -14.3805 -14.3621 -14.3285 -14.2621 -14.1555 -14.1069
   -14.0974 -14.0947 -14.0254 -13.9046 -13.8190 -13.8022 -13.7709  -8.4813
    -7.6482  -7.4286  -7.2692  -7.2465  -7.2255  -7.1785  -7.1678  -6.9705
    -6.8233  -6.7652  -6.7416  -6.6697  -6.6255  -6.4743  -6.4340  -6.4182
    -6.3360  -6.2374  -6.1016  -5.9300  -5.9186  -5.8897  -5.8045  -5.7730
    -5.7666  -5.6998  -5.6690  -5.6315  -5.6016  -5.5381  -5.5125  -5.4545
    -5.3917  -5.3374  -5.1831  -5.1252  -5.0775  -5.0074  -4.9693  -4.9557
    -4.9074  -4.8097  -4.6476  -4.5053  -4.4230  -4.3113  -4.2656  -4.2116
    -4.1744  -4.0856  -3.9954  -3.8999  -3.7900  -3.7798  -3.7548  -3.6774
    -3.6419  -3.5645  -3.5373  -3.5031  -3.4711  -3.4354  -3.4238  -3.3720
    -3.3558  -3.1993  -3.1293  -2.9059  -2.8627  -2.7754  -2.7613  -2.7249
    -2.6921  -2.6723  -2.6374  -2.5931  -2.5296  -2.2532  -2.0154  -1.9753
    -1.9048  -0.8843  -0.7430  -0.5735  -0.1591  -0.1120  -0.0658   0.0128
     0.0506   0.1466   0.1556   0.2460   0.2741   0.2862   0.3398   0.4754
     0.5085   0.5634   0.5821   0.6033   0.6348   0.6934   0.7330   0.7450
     0.7801   0.8299   0.8891   0.8921   0.9746   0.9901   1.0321   1.3016
     1.3777

     the Fermi energy is    -0.8975 ev

!    total energy              =   -2205.53538247 Ry
     estimated scf accuracy    <       0.00000086 Ry
     smearing contrib. (-TS)   =      -0.00716391 Ry
     internal energy E=F+TS    =   -2205.52821857 Ry

     The total energy is F=E-TS. E is the sum of the following terms:
     one-electron contribution =  -18045.18095554 Ry
     hartree contribution      =    9009.54612951 Ry
     xc contribution           =    -385.26435665 Ry
     ewald contribution        =    7215.37096411 Ry

     convergence has been achieved in   7 iterations

     negative rho (up, down):  1.374E-04 0.000E+00

     Forces acting on atoms (cartesian axes, Ry/au):

     atom    1 type  1   force =     0.00543164   -0.01036754    0.00221692
     atom    2 type  2   force =    -0.00930519    0.01138884   -0.00205111
     atom    3 type  2   force =    -0.01035884    0.00822858   -0.01059935
     atom    4 type  1   force =     0.00406034    0.00474087    0.00142989
     atom    5 type  2   force =     0.00166189   -0.00583324   -0.00464181
     atom    6 type  2   force =     0.00188237    0.00640817    0.00077118
     atom    7 type  1   force =     0.00867831   -0.01327895   -0.00163159
     atom    8 type  2   force =     0.00159074   -0.00281631    0.01400908
     atom    9 type  2   force =     0.01173158    0.00527662    0.00579669
     atom   10 type  1   force =    -0.00270908    0.00994535   -0.00847135
     atom   11 type  2   force =     0.00610384   -0.00201908   -0.00882950
     atom   12 type  2   force =    -0.00413735    0.00010696    0.00201444
     atom   13 type  1   force =     0.01161163    0.01526935   -0.01956217
     atom   14 type  2   force =     0.00721207    0.00319256    0.00614254
     atom   15 type  2   force =    -0.00650103    0.00153377   -0.00952957
     atom   16 type  1   force =     0.00231607    0.00578311    0.00321775
     atom   17 type  2   force =     0.00592296    0.00118550    0.00043239
     atom   18 type  2   force =    -0.00268206   -0.00214265    0.00627029
     atom   19 type  1   force =     0.00171239   -0.00442216   -0.00149709
     atom   20 type  2   force =     0.00247474   -0.00378216   -0.00250316
     atom   21 type  1   force =    -0.00621489    0.00165783    0.00290614
     atom   22 type  2   force =     0.00043548   -0.00708777   -0.00174059
     atom   23 type  2   force =    -0.00158206    0.00099797    0.00449942
     atom   24 type  1   force =    -0.00803975    0.00501708   -0.00876552
     atom   25 type  2   force =     0.04373650    0.01844221    0.04357472
     atom   26 type  2   force =    -0.00913622   -0.00090767   -0.00526458
     atom   27 type  1   force =    -0.00288213   -0.00197453    0.00699855
     atom   28 type  2   force =    -0.00338720    0.00079164   -0.00495152
     atom   29 type  2   force =     0.00153508    0.00086665   -0.00518982
     atom   30 type  1   force =    -0.00185031    0.00351174    0.00298382
     atom   31 type  2   force =     0.00048383   -0.00058696    0.01009710
     atom   32 type  2   force =    -0.00746284    0.00475187    0.00677978
     atom   33 type  1   force =     0.01199615   -0.00278199    0.00359926
     atom   34 type  2   force =    -0.00131735   -0.03261555   -0.01452744
     atom   35 type  2   force =    -0.00570502    0.00757442    0.00738818
     atom   36 type  3   force =    -0.04730627   -0.02605455   -0.02137197
     The non-local contrib.  to forces
     atom    1 type  1   force =     0.00163692    0.02883115   -0.01324592
     atom    2 type  2   force =    -0.01197206   -0.00471726   -0.26358364
     atom    3 type  2   force =    -0.01215260   -0.00014820    0.26629935
     atom    4 type  1   force =     0.00058850    0.01015486    0.00340791
     atom    5 type  2   force =     0.00619237   -0.03382571   -0.25522499
     atom    6 type  2   force =    -0.00135785    0.00740537    0.26653622
     atom    7 type  1   force =    -0.02579974    0.00345746   -0.01984286
     atom    8 type  2   force =     0.00699325   -0.00186984   -0.25588188
     atom    9 type  2   force =     0.00776968   -0.00940620    0.27274835
     atom   10 type  1   force =    -0.00079361   -0.00293525    0.00068984
     atom   11 type  2   force =     0.01586840    0.00287335   -0.26058044
     atom   12 type  2   force =    -0.01315900   -0.01658494    0.26224723
     atom   13 type  1   force =     0.00587119    0.02140754   -0.00013371
     atom   14 type  2   force =    -0.01564772    0.00124464   -0.21122648
     atom   15 type  2   force =    -0.00861505   -0.00487889    0.26135460
     atom   16 type  1   force =    -0.00049899    0.03844315   -0.02800928
     atom   17 type  2   force =    -0.00000731   -0.01820028   -0.23646544
     atom   18 type  2   force =    -0.00320584   -0.00422642    0.27055076
     atom   19 type  1   force =     0.01642170   -0.00780311   -0.01902175
     atom   20 type  2   force =    -0.00027458   -0.02112923    0.26354206
     atom   21 type  1   force =     0.00041153    0.02418304    0.00223330
     atom   22 type  2   force =    -0.00525244    0.00914578   -0.25929913
     atom   23 type  2   force =     0.00201938   -0.01700123    0.26463787
     atom   24 type  1   force =     0.01008567    0.01505803   -0.01827419
     atom   25 type  2   force =     0.25054635    0.09908422   -0.04131134
     atom   26 type  2   force =    -0.00027625   -0.01194539    0.26767274
     atom   27 type  1   force =    -0.00200506    0.01029932    0.00781139
     atom   28 type  2   force =    -0.00501241   -0.02204785   -0.27223743
     atom   29 type  2   force =     0.00470605   -0.00138036    0.26539232
     atom   30 type  1   force =    -0.00327987    0.01745571    0.00783503
     atom   31 type  2   force =    -0.00771204    0.00009190   -0.25772252
     atom   32 type  2   force =    -0.00193334   -0.01065810    0.27327754
     atom   33 type  1   force =    -0.00398443    0.00813955   -0.00524721
     atom   34 type  2   force =    -0.00624325   -0.03025133   -0.27520066
     atom   35 type  2   force =    -0.00001261   -0.01073157    0.26799575
     atom   36 type  3   force =    -0.02254033   -0.00907890   -0.01921332
     The ionic contribution  to forces
     atom    1 type  1   force =     0.25881550    0.45189094    5.71525254
     atom    2 type  2   force =    -0.43926809    0.22952511   39.33356598
     atom    3 type  2   force =    -0.13781890   -0.02243691  -36.22029144
     atom    4 type  1   force =     0.03927053    0.63749283    0.74530470
     atom    5 type  2   force =    -0.90321185    1.55874188   38.68666973
     atom    6 type  2   force =     0.33939688   -0.50888636  -37.97671205
     atom    7 type  1   force =    -2.65105503   -2.53929637    2.50480777
     atom    8 type  2   force =    -0.97686997    0.08053252   37.54054003
     atom    9 type  2   force =     0.35340731   -0.05143609  -37.99154451
     atom   10 type  1   force =    -0.81953428   -0.41697623    5.34555523
     atom   11 type  2   force =    -0.48379187   -1.67807738   39.05614979
     atom   12 type  2   force =     0.37953761    0.61479307  -37.80318058
     atom   13 type  1   force =     0.32345748    0.83397387    1.05439653
     atom   14 type  2   force =     0.52722600   -0.10732710   38.24212369
     atom   15 type  2   force =     0.30078410   -0.11651020  -36.91391357
     atom   16 type  1   force =     0.08924350    4.04322881    0.54915185
     atom   17 type  2   force =     0.83332329    1.80259908   37.81794997
     atom   18 type  2   force =    -0.15288871   -0.42737715  -38.61812788
     atom   19 type  1   force =     2.68789875   -2.51822072    0.54766777
     atom   20 type  2   force =     0.21070816   -0.17221722  -38.51568741
     atom   21 type  1   force =     0.27125968   -0.19442668    1.12304278
     atom   22 type  2   force =     0.48327124   -1.93236738   38.40416006
     atom   23 type  2   force =    -0.05273011    0.58270398  -38.32051229
     atom   24 type  1   force =    -0.27720085    0.69385080    5.40014560
     atom   25 type  2   force =    -0.53843506   -0.06216907   38.55543816
     atom   26 type  2   force =    -0.37409590   -0.02553835  -37.29573545
     atom   27 type  1   force =    -0.02885019    0.72133601   -2.09405593
     atom   28 type  2   force =    -0.02019225    1.01832977   38.19515639
     atom   29 type  2   force =    -0.27863876   -0.31119708  -37.34444918
     atom   30 type  1   force =    -0.29528098   -1.00069123   -0.04045064
     atom   31 type  2   force =     1.20530335   -0.00738200   37.37364727
     atom   32 type  2   force =    -0.46554065   -0.03107416  -38.56563543
     atom   33 type  1   force =     0.27900702   -0.61729407    1.98859305
     atom   34 type  2   force =     0.13045114   -1.26152699   39.22026849
     atom   35 type  2   force =    -0.26410106    0.49830877  -37.73036659
     atom   36 type  3   force =     0.44714297    0.23512130    8.03107556
     The local contribution  to forces
     atom    1 type  1   force =    -0.25493457   -0.49125348   -5.70070801
     atom    2 type  2   force =     0.44124583   -0.21341358  -39.09300728
     atom    3 type  2   force =     0.13900171    0.03090755   35.96405286
     atom    4 type  1   force =    -0.03577522   -0.64274397   -0.74817047
     atom    5 type  2   force =     0.89936119   -1.53256013  -38.45689037
     atom    6 type  2   force =    -0.33636823    0.50888537   37.73163460
     atom    7 type  1   force =     2.68566636    2.52231895   -2.48756970
     atom    8 type  2   force =     0.97172709   -0.08191581  -37.29161393
     atom    9 type  2   force =    -0.34931052    0.06564059   37.74535122
     atom   10 type  1   force =     0.81736211    0.42965941   -5.35594337
     atom   11 type  2   force =     0.47475432    1.67367109  -38.82539534
     atom   12 type  2   force =    -0.37153775   -0.59934216   37.56348973
     atom   13 type  1   force =    -0.31738953   -0.83978384   -1.07519923
     atom   14 type  2   force =    -0.50533496    0.10982997  -38.04289816
     atom   15 type  2   force =    -0.29930875    0.12262667   36.66337890
     atom   16 type  1   force =    -0.08644467   -4.07572235   -0.51887602
     atom   17 type  2   force =    -0.82753682   -1.78422944  -37.60101692
     atom   18 type  2   force =     0.15336548    0.42964721   38.37466060
     atom   19 type  1   force =    -2.70266473    2.52152763   -0.53113351
     atom   20 type  2   force =    -0.20804150    0.18876334   38.27059469
     atom   21 type  1   force =    -0.27775653    0.17190269   -1.12343414
     atom   22 type  2   force =    -0.47767557    1.91697611  -38.16761597
     atom   23 type  2   force =     0.04940218   -0.56598898   38.08097019
     atom   24 type  1   force =     0.25851394   -0.70331654   -5.39212837
     atom   25 type  2   force =     0.34673295   -0.01251466  -38.47768815
     atom   26 type  2   force =     0.36560342    0.03603246   37.04333109
     atom   27 type  1   force =     0.02798345   -0.73351006    2.09226332
     atom   28 type  2   force =     0.02148275   -0.99697952  -37.94923314
     atom   29 type  2   force =     0.27594032    0.31377448   37.09440083
     atom   30 type  1   force =     0.29659510    0.98668371    0.03466776
     atom   31 type  2   force =    -1.19760103    0.00654766  -37.12691604
     atom   32 type  2   force =     0.46013889    0.04591319   38.31993843
     atom   33 type  1   force =    -0.26283777    0.60558630   -1.98112971
     atom   34 type  2   force =    -0.12611730    1.25795083  -38.98113381
     atom   35 type  2   force =     0.25849928   -0.48112872   37.49050174
     atom   36 type  3   force =    -0.47190635   -0.25209768   -8.03330126
     The core correction contribution to forces
     atom    1 type  1   force =     0.00000000    0.00000000    0.00000000
     atom    2 type  2   force =     0.00040745    0.00005406    0.02045059
     atom    3 type  2   force =     0.00052116   -0.00011931   -0.02086476
     atom    4 type  1   force =     0.00000000    0.00000000    0.00000000
     atom    5 type  2   force =    -0.00063079    0.00190578    0.02037722
     atom    6 type  2   force =     0.00021855   -0.00093148   -0.02096223
     atom    7 type  1   force =     0.00000000    0.00000000    0.00000000
     atom    8 type  2   force =    -0.00026442    0.00042962    0.02041819
     atom    9 type  2   force =    -0.00014903    0.00053099   -0.02088902
     atom   10 type  1   force =     0.00000000    0.00000000    0.00000000
     atom   11 type  2   force =    -0.00070157   -0.00049057    0.02057992
     atom   12 type  2   force =     0.00110225    0.00127662   -0.02079712
     atom   13 type  1   force =     0.00000000    0.00000000    0.00000000
     atom   14 type  2   force =     0.00117652   -0.00061414    0.01763892
     atom   15 type  2   force =     0.00060526    0.00029678   -0.02061928
     atom   16 type  1   force =     0.00000000    0.00000000    0.00000000
     atom   17 type  2   force =     0.00016617    0.00118752    0.01940190
     atom   18 type  2   force =     0.00005983   -0.00024965   -0.02099610
     atom   19 type  1   force =     0.00000000    0.00000000    0.00000000
     atom   20 type  2   force =     0.00012701    0.00077625   -0.02113581
     atom   21 type  1   force =     0.00000000    0.00000000    0.00000000
     atom   22 type  2   force =     0.00013656   -0.00092196    0.02050231
     atom   23 type  2   force =    -0.00026419    0.00127117   -0.02082790
     atom   24 type  1   force =     0.00000000    0.00000000    0.00000000
     atom   25 type  2   force =    -0.01488798   -0.00591941    0.00705696
     atom   26 type  2   force =    -0.00028222    0.00061446   -0.02105548
     atom   27 type  1   force =     0.00000000    0.00000000    0.00000000
     atom   28 type  2   force =     0.00027267    0.00169332    0.02083641
     atom   29 type  2   force =    -0.00047852   -0.00031039   -0.02072308
     atom   30 type  1   force =     0.00000000    0.00000000    0.00000000
     atom   31 type  2   force =     0.00044811    0.00014264    0.02060215
     atom   32 type  2   force =    -0.00015312    0.00060389   -0.02100190
     atom   33 type  1   force =     0.00000000    0.00000000    0.00000000
     atom   34 type  2   force =     0.00053566    0.00087167    0.02110983
     atom   35 type  2   force =    -0.00017600    0.00098407   -0.02101596
     atom   36 type  3   force =     0.00000000    0.00000000    0.00000000
     The Hubbard contrib.    to forces
     atom    1 type  1   force =     0.00000000    0.00000000    0.00000000
     atom    2 type  2   force =     0.00000000    0.00000000    0.00000000
     atom    3 type  2   force =     0.00000000    0.00000000    0.00000000
     atom    4 type  1   force =     0.00000000    0.00000000    0.00000000
     atom    5 type  2   force =     0.00000000    0.00000000    0.00000000
     atom    6 type  2   force =     0.00000000    0.00000000    0.00000000
     atom    7 type  1   force =     0.00000000    0.00000000    0.00000000
     atom    8 type  2   force =     0.00000000    0.00000000    0.00000000
     atom    9 type  2   force =     0.00000000    0.00000000    0.00000000
     atom   10 type  1   force =     0.00000000    0.00000000    0.00000000
     atom   11 type  2   force =     0.00000000    0.00000000    0.00000000
     atom   12 type  2   force =     0.00000000    0.00000000    0.00000000
     atom   13 type  1   force =     0.00000000    0.00000000    0.00000000
     atom   14 type  2   force =     0.00000000    0.00000000    0.00000000
     atom   15 type  2   force =     0.00000000    0.00000000    0.00000000
     atom   16 type  1   force =     0.00000000    0.00000000    0.00000000
     atom   17 type  2   force =     0.00000000    0.00000000    0.00000000
     atom   18 type  2   force =     0.00000000    0.00000000    0.00000000
     atom   19 type  1   force =     0.00000000    0.00000000    0.00000000
     atom   20 type  2   force =     0.00000000    0.00000000    0.00000000
     atom   21 type  1   force =     0.00000000    0.00000000    0.00000000
     atom   22 type  2   force =     0.00000000    0.00000000    0.00000000
     atom   23 type  2   force =     0.00000000    0.00000000    0.00000000
     atom   24 type  1   force =     0.00000000    0.00000000    0.00000000
     atom   25 type  2   force =     0.00000000    0.00000000    0.00000000
     atom   26 type  2   force =     0.00000000    0.00000000    0.00000000
     atom   27 type  1   force =     0.00000000    0.00000000    0.00000000
     atom   28 type  2   force =     0.00000000    0.00000000    0.00000000
     atom   29 type  2   force =     0.00000000    0.00000000    0.00000000
     atom   30 type  1   force =     0.00000000    0.00000000    0.00000000
     atom   31 type  2   force =     0.00000000    0.00000000    0.00000000
     atom   32 type  2   force =     0.00000000    0.00000000    0.00000000
     atom   33 type  1   force =     0.00000000    0.00000000    0.00000000
     atom   34 type  2   force =     0.00000000    0.00000000    0.00000000
     atom   35 type  2   force =     0.00000000    0.00000000    0.00000000
     atom   36 type  3   force =     0.00000000    0.00000000    0.00000000
     The SCF correction term to forces
     atom    1 type  1   force =    -0.00008293    0.00016370    0.00089971
     atom    2 type  2   force =     0.00028497   -0.00005964    0.00050464
     atom    3 type  2   force =     0.00009308    0.00002530    0.00018604
     atom    4 type  1   force =    -0.00002018   -0.00016299    0.00086915
     atom    5 type  2   force =    -0.00004575   -0.00009520    0.00040801
     atom    6 type  2   force =    -0.00000370   -0.00006489    0.00025605
     atom    7 type  1   force =    -0.00013001    0.00024086    0.00095460
     atom    8 type  2   force =     0.00000807    0.00000705    0.00052808
     atom    9 type  2   force =     0.00001742   -0.00005281    0.00011207
     atom   10 type  1   force =     0.00025998    0.00019726    0.00120836
     atom   11 type  2   force =    -0.00002217    0.00000428    0.00039798
     atom   12 type  2   force =    -0.00007718   -0.00003578    0.00023659
     atom   13 type  1   force =    -0.00032423   -0.00032837    0.00135565
     atom   14 type  2   force =    -0.00020449    0.00005904    0.00048597
     atom   15 type  2   force =     0.00003670   -0.00000075    0.00025119
     atom   16 type  1   force =     0.00001952   -0.00016666    0.00093262
     atom   17 type  2   force =    -0.00001909   -0.00017152    0.00054429
     atom   18 type  2   force =    -0.00000955    0.00006321    0.00016432
     atom   19 type  1   force =     0.00005995    0.00007388    0.00097182
     atom   20 type  2   force =    -0.00004107    0.00002455    0.00016472
     atom   21 type  1   force =    -0.00012629   -0.00000137    0.00104560
     atom   22 type  2   force =    -0.00004102    0.00007952    0.00049355
     atom   23 type  2   force =    -0.00000604    0.00001287    0.00021296
     atom   24 type  1   force =     0.00056477   -0.00057537    0.00147285
     atom   25 type  2   force =    -0.00021648   -0.00003902    0.00006049
     atom   26 type  2   force =    -0.00008199   -0.00007101    0.00050393
     atom   27 type  1   force =    -0.00000704   -0.00009995    0.00096118
     atom   28 type  2   force =     0.00006532   -0.00020423    0.00050766
     atom   29 type  2   force =     0.00000928   -0.00002016    0.00017070
     atom   30 type  1   force =     0.00011873    0.00006340    0.00091308
     atom   31 type  2   force =     0.00004871    0.00001269    0.00046765
     atom   32 type  2   force =     0.00002866   -0.00003309    0.00018254
     atom   33 type  1   force =    -0.00018539    0.00078607    0.00136455
     atom   34 type  2   force =     0.00005967    0.00034011    0.00041012
     atom   35 type  2   force =     0.00008865    0.00014171    0.00025463
     atom   36 type  3   force =     0.00000073    0.00000058    0.00004846

     Total force =     0.113328     Total SCF correction =     0.004447
     Energy error            =      2.0E-02 Ry
     Gradient error          =      4.7E-02 Ry/Bohr

     number of scf cycles    =   2
     number of bfgs steps    =   1

     energy             old  =   -2205.5149302681 Ry
     energy             new  =   -2205.5353824743 Ry

     CASE: energy            _new < energy            _old

     new trust radius        =       0.0945290306 bohr
     new conv_thr            =       0.0000000473 Ry


ATOMIC_POSITIONS (angstrom)
Mo            6.5897327984        1.7688221974        2.8282415644
S             8.1601811188        0.8275154891        4.4338142421
S             8.1792066659        0.8222412749        1.2689347331
Mo            8.1002788958        4.5021469179        2.7190814570
S             6.5011967551        3.7150750564        4.3408235272
S             6.5555366605        3.5216741940        1.1212530428
Mo            6.5014022199        7.1987910787        2.6654646393
S             8.0834833249        6.3398460032        4.2633174745
S             8.0963083820        6.3118663226        1.0943247732
Mo            8.1522611418        9.9159359617        2.8212732919
S             6.5034910331        8.9403099610        4.3741858375
S             6.6141835212        9.0493353728        1.1448566478
Mo            3.4387834708        1.7723881911        2.7335497441
S             4.9842368711        0.8194494048        4.3673558356
S             5.0451071859        0.8489908805        1.2153495905
Mo            4.9822781703        4.5214019986        2.6363085034
S             3.4354248298        3.6735461977        4.2823235219
S             3.4335277196        3.5416886931        1.0710578343
Mo            3.4580654936        7.2108441027        2.6255618095
S             4.9862964020        6.3219885642        1.0362738000
Mo            5.0029448268        9.9042036392        2.7443174727
S             3.4703696561        8.9349514402        4.3238397124
S             3.4054089919        9.0673892588        1.1052767139
Mo            0.2786272041        1.7584451609        2.8263369874
S             1.9132799411        0.8179431235        4.4655091262
S             1.8480142606        0.8531507788        1.2030890470
Mo            1.8561067810        4.4919713268        2.6682517183
S             0.2684229944        3.6560189196        4.3315062674
S             0.2346090610        3.5263672235        1.1670157287
Mo            0.2680942862        7.2269696240        2.6999055328
S             1.9032160497        6.3115626095        4.2393584578
S             1.8519444379        6.3172524406        1.0542872657
Mo            1.8655928462        9.9324167052        2.7685004982
S             0.2950706445        9.0401080730        4.3990857308
S             0.2675629817        9.0520650493        1.1641226932
H             3.0943527216        1.1805953973        5.3165850489



     Writing config-only to output data dir ./MoS2-V-O.save/
     NEW-OLD atomic charge density approx. for the potential

     negative rho (up, down):  1.484E-04 0.000E+00

     total cpu time spent up to now is      189.1 secs

     Self-consistent Calculation

     iteration #  1     ecut=    80.00 Ry     beta= 0.70
     Davidson diagonalization with overlap
     ethr =  1.00E-06,  avg # of iterations = 15.0

     negative rho (up, down):  7.488E-05 0.000E+00

     total cpu time spent up to now is      203.3 secs

     total energy              =   -2205.55059400 Ry
     estimated scf accuracy    <       0.00276213 Ry

     iteration #  2     ecut=    80.00 Ry     beta= 0.70
     Davidson diagonalization with overlap
     ethr =  9.00E-07,  avg # of iterations =  2.0

     negative rho (up, down):  5.662E-05 0.000E+00

     total cpu time spent up to now is      217.9 secs

     total energy              =   -2205.55069311 Ry
     estimated scf accuracy    <       0.00049936 Ry

     iteration #  3     ecut=    80.00 Ry     beta= 0.70
     Davidson diagonalization with overlap
     ethr =  1.63E-07,  avg # of iterations =  3.0

     negative rho (up, down):  4.048E-05 0.000E+00

     total cpu time spent up to now is      232.0 secs

     total energy              =   -2205.55071822 Ry
     estimated scf accuracy    <       0.00016043 Ry

     iteration #  4     ecut=    80.00 Ry     beta= 0.70
     Davidson diagonalization with overlap
     ethr =  5.23E-08,  avg # of iterations =  4.0

     negative rho (up, down):  3.682E-05 0.000E+00

     total cpu time spent up to now is      245.8 secs

     total energy              =   -2205.55073700 Ry
     estimated scf accuracy    <       0.00001162 Ry

     iteration #  5     ecut=    80.00 Ry     beta= 0.70
     Davidson diagonalization with overlap
     ethr =  3.78E-09,  avg # of iterations =  6.0

     negative rho (up, down):  3.774E-05 0.000E+00

     total cpu time spent up to now is      258.5 secs

     total energy              =   -2205.55074026 Ry
     estimated scf accuracy    <       0.00000405 Ry

     iteration #  6     ecut=    80.00 Ry     beta= 0.70
     Davidson diagonalization with overlap
     ethr =  1.32E-09,  avg # of iterations =  3.0

     negative rho (up, down):  4.307E-05 0.000E+00

     total cpu time spent up to now is      271.0 secs

     total energy              =   -2205.55074061 Ry
     estimated scf accuracy    <       0.00000100 Ry

     iteration #  7     ecut=    80.00 Ry     beta= 0.70
     Davidson diagonalization with overlap
     ethr =  3.26E-10,  avg # of iterations =  5.0

     negative rho (up, down):  5.094E-05 0.000E+00

     total cpu time spent up to now is      282.4 secs

     total energy              =   -2205.55074069 Ry
     estimated scf accuracy    <       0.00000033 Ry

     iteration #  8     ecut=    80.00 Ry     beta= 0.70
     Davidson diagonalization with overlap
     ethr =  1.08E-10,  avg # of iterations =  2.0

     negative rho (up, down):  8.090E-05 0.000E+00

     total cpu time spent up to now is      295.2 secs

     total energy              =   -2205.55074058 Ry
     estimated scf accuracy    <       0.00000016 Ry

     iteration #  9     ecut=    80.00 Ry     beta= 0.70
     Davidson diagonalization with overlap
     ethr =  5.05E-11,  avg # of iterations =  3.0

     negative rho (up, down):  1.378E-04 0.000E+00

     total cpu time spent up to now is      297.2 secs

     End of self-consistent calculation

          k = 0.0000 0.0000 0.0000 (105382 PWs)   bands (ev):

   -62.8616 -62.8557 -62.8347 -62.8292 -62.8216 -62.8200 -62.8107 -62.7512
   -62.7489 -62.6921 -62.6741 -62.6644 -37.1889 -37.1234 -37.1153 -37.1124
   -37.0987 -37.0862 -37.0671 -37.0557 -37.0436 -37.0397 -37.0310 -37.0196
   -37.0152 -37.0094 -36.9960 -36.9942 -36.9802 -36.9765 -36.9660 -36.9304
   -36.9200 -36.9154 -36.8856 -36.8772 -36.8638 -36.8538 -36.8534 -36.8458
   -36.8399 -36.8306 -36.8240 -36.8142 -36.8082 -36.7789 -36.6683 -36.6319
   -16.0887 -15.4826 -15.1591 -15.0330 -14.8894 -14.8273 -14.6537 -14.4712
   -14.4072 -14.3878 -14.3651 -14.3621 -14.3149 -14.2549 -14.1509 -14.1080
   -14.0822 -14.0795 -14.0172 -13.8938 -13.8153 -13.7950 -13.7598  -8.6147
    -7.6360  -7.4131  -7.2511  -7.2353  -7.2195  -7.1683  -7.1480  -6.9761
    -6.8147  -6.7592  -6.7294  -6.6382  -6.6202  -6.4630  -6.4180  -6.4146
    -6.3338  -6.2265  -6.1172  -5.9167  -5.9000  -5.8752  -5.8033  -5.7633
    -5.7565  -5.6817  -5.6524  -5.6189  -5.5958  -5.5399  -5.5057  -5.4454
    -5.3674  -5.3225  -5.1606  -5.1104  -5.0624  -4.9984  -4.9606  -4.9432
    -4.9092  -4.8048  -4.6276  -4.4976  -4.4294  -4.2933  -4.2567  -4.2010
    -4.1837  -4.0812  -3.9910  -3.9010  -3.7841  -3.7728  -3.7390  -3.6616
    -3.6299  -3.5655  -3.5352  -3.4857  -3.4600  -3.4314  -3.4124  -3.3562
    -3.3325  -3.1986  -3.1261  -2.8847  -2.8551  -2.7591  -2.7533  -2.7140
    -2.6861  -2.6699  -2.6376  -2.5745  -2.5124  -2.2374  -2.0007  -1.9685
    -1.9102  -0.8741  -0.7175  -0.5442  -0.1401  -0.1003  -0.0556  -0.0048
     0.0658   0.1298   0.1607   0.2402   0.3019   0.3077   0.3437   0.4891
     0.5175   0.5775   0.5990   0.6160   0.6512   0.6974   0.7437   0.7595
     0.7863   0.8548   0.9004   0.9113   0.9809   1.0010   1.0466   1.3201
     1.3713

     the Fermi energy is    -0.8842 ev

!    total energy              =   -2205.55074044 Ry
     estimated scf accuracy    <       0.00000003 Ry
     smearing contrib. (-TS)   =      -0.00687926 Ry
     internal energy E=F+TS    =   -2205.54386118 Ry

     The total energy is F=E-TS. E is the sum of the following terms:
     one-electron contribution =  -18041.95508224 Ry
     hartree contribution      =    9008.01947184 Ry
     xc contribution           =    -385.28052147 Ry
     ewald contribution        =    7213.67227069 Ry

     convergence has been achieved in   9 iterations

     negative rho (up, down):  1.378E-04 0.000E+00

     Forces acting on atoms (cartesian axes, Ry/au):

     atom    1 type  1   force =    -0.00297504   -0.00276704   -0.00230351
     atom    2 type  2   force =    -0.00306034    0.00683979   -0.00242219
     atom    3 type  2   force =    -0.00746731    0.00709501   -0.01219839
     atom    4 type  1   force =     0.00363048    0.00283313    0.00065172
     atom    5 type  2   force =     0.00253859   -0.00521990   -0.00360675
     atom    6 type  2   force =     0.00193412    0.00425429    0.00215976
     atom    7 type  1   force =     0.00701923   -0.00882610    0.00129455
     atom    8 type  2   force =     0.00151664   -0.00291731    0.01064470
     atom    9 type  2   force =     0.01012899    0.00426611    0.00223222
     atom   10 type  1   force =     0.00126966    0.00783559   -0.00011243
     atom   11 type  2   force =     0.00510017   -0.00171450   -0.00939852
     atom   12 type  2   force =    -0.00497771   -0.00042105    0.00116146
     atom   13 type  1   force =     0.00641383    0.00574828   -0.00124999
     atom   14 type  2   force =     0.00865678    0.00378286   -0.00372804
     atom   15 type  2   force =    -0.00168716    0.00007190   -0.00867386
     atom   16 type  1   force =     0.00273313    0.00468986    0.00250679
     atom   17 type  2   force =     0.00563195    0.00155525   -0.00064199
     atom   18 type  2   force =    -0.00122728    0.00330820    0.00097257
     atom   19 type  1   force =    -0.00030494   -0.00434231    0.00039992
     atom   20 type  2   force =     0.00254701   -0.00290961   -0.00347859
     atom   21 type  1   force =    -0.00337708    0.00153536    0.00274319
     atom   22 type  2   force =     0.00184928   -0.00697344   -0.00050938
     atom   23 type  2   force =    -0.00082038   -0.00032039    0.00203678
     atom   24 type  1   force =    -0.00161909    0.00120482   -0.00035304
     atom   25 type  2   force =     0.02327286    0.01073157    0.02407850
     atom   26 type  2   force =    -0.00567495   -0.00028388   -0.00201809
     atom   27 type  1   force =    -0.00159714   -0.00044960    0.00533015
     atom   28 type  2   force =    -0.00354143    0.00000593   -0.00354929
     atom   29 type  2   force =     0.00029748    0.00252751   -0.00487335
     atom   30 type  1   force =    -0.00083626   -0.00233426    0.00554437
     atom   31 type  2   force =     0.00038843   -0.00060772    0.00620551
     atom   32 type  2   force =    -0.00582239    0.00309540    0.00579992
     atom   33 type  1   force =     0.00481746    0.00155833    0.00920410
     atom   34 type  2   force =    -0.00164557   -0.01942009   -0.01381511
     atom   35 type  2   force =    -0.00226105    0.00756035    0.00404199
     atom   36 type  3   force =    -0.04085093   -0.02099233   -0.01407564
     The non-local contrib.  to forces
     atom    1 type  1   force =     0.00350177    0.02649498   -0.01290828
     atom    2 type  2   force =    -0.00902917   -0.00755662   -0.26128685
     atom    3 type  2   force =    -0.00866168   -0.00109846    0.26419284
     atom    4 type  1   force =     0.00093799    0.01182484    0.00284270
     atom    5 type  2   force =     0.00642418   -0.03353290   -0.25562534
     atom    6 type  2   force =    -0.00086085    0.00520892    0.26807528
     atom    7 type  1   force =    -0.02652281    0.00382705   -0.02106423
     atom    8 type  2   force =     0.00820961   -0.00222161   -0.25753534
     atom    9 type  2   force =     0.00637815   -0.01003351    0.26998203
     atom   10 type  1   force =    -0.00230682   -0.00298137    0.00041571
     atom   11 type  2   force =     0.01407557    0.00258779   -0.26164364
     atom   12 type  2   force =    -0.01299777   -0.01708430    0.26322608
     atom   13 type  1   force =     0.00896711    0.02443507   -0.00015240
     atom   14 type  2   force =    -0.00375330   -0.00053802   -0.22281829
     atom   15 type  2   force =    -0.00559118   -0.00526599    0.26124791
     atom   16 type  1   force =    -0.00065676    0.03973711   -0.02881865
     atom   17 type  2   force =     0.00049798   -0.01649682   -0.23674813
     atom   18 type  2   force =    -0.00198270   -0.00066454    0.26715191
     atom   19 type  1   force =     0.01790901   -0.00677312   -0.01897016
     atom   20 type  2   force =    -0.00026782   -0.01966683    0.26266337
     atom   21 type  1   force =    -0.00085204    0.02350485    0.00086535
     atom   22 type  2   force =    -0.00337866    0.00898516   -0.25762165
     atom   23 type  2   force =     0.00203242   -0.01875425    0.26338726
     atom   24 type  1   force =     0.00737753    0.01728838   -0.01803293
     atom   25 type  2   force =     0.25840911    0.09820526   -0.04261649
     atom   26 type  2   force =     0.00348847   -0.01012065    0.27055931
     atom   27 type  1   force =    -0.00250611    0.00923150    0.00675124
     atom   28 type  2   force =    -0.00491553   -0.02037782   -0.27053895
     atom   29 type  2   force =     0.00284658   -0.00161396    0.26651275
     atom   30 type  1   force =    -0.00395411    0.01825627    0.00754629
     atom   31 type  2   force =    -0.00793428   -0.00094665   -0.26063982
     atom   32 type  2   force =     0.00007978   -0.01127320    0.27262839
     atom   33 type  1   force =    -0.00257572    0.00659814   -0.00785593
     atom   34 type  2   force =    -0.00639475   -0.01975971   -0.27525353
     atom   35 type  2   force =     0.00225282   -0.01083718    0.26706495
     atom   36 type  3   force =    -0.03088114   -0.01106900   -0.02433274
     The ionic contribution  to forces
     atom    1 type  1   force =     0.06832316    0.57598374    5.76458644
     atom    2 type  2   force =    -0.22505652    0.10297646   39.37935387
     atom    3 type  2   force =    -0.08499697   -0.05599371  -36.35457068
     atom    4 type  1   force =    -0.00712073    0.55399189    0.78319699
     atom    5 type  2   force =    -0.90841001    1.52983602   38.63376450
     atom    6 type  2   force =     0.32213545   -0.53700868  -37.92152630
     atom    7 type  1   force =    -2.76793150   -2.23423388    2.43104310
     atom    8 type  2   force =    -0.98521673    0.11116629   37.70272320
     atom    9 type  2   force =     0.35782807   -0.05071368  -38.01457289
     atom   10 type  1   force =    -0.60281060   -0.41049278    5.14389231
     atom   11 type  2   force =    -0.47304167   -1.66658034   38.94033427
[...]
     atom   27 type  1   force =     0.00203769    0.01545269    0.00280298
     atom   28 type  2   force =     0.00250575   -0.02610120   -0.26308194
     atom   29 type  2   force =    -0.00114243   -0.00761168    0.26768210
     atom   30 type  1   force =    -0.00584102    0.01355144    0.00573509
     atom   31 type  2   force =    -0.00962897   -0.00353766   -0.26537923
     atom   32 type  2   force =     0.00501546   -0.01469783    0.26555862
     atom   33 type  1   force =     0.00100090   -0.02018638   -0.01063456
     atom   34 type  2   force =     0.00741885   -0.00070979   -0.26193442
     atom   35 type  2   force =     0.00095090   -0.01483598    0.26646317
     atom   36 type  3   force =    -0.00405273    0.00389100   -0.06330755
     The ionic contribution  to forces
     atom    1 type  1   force =    -0.25278009    0.61167351    2.75892649
     atom    2 type  2   force =    -0.19444111   -0.19020865   39.10155149
     atom    3 type  2   force =     0.18708284   -0.10999928  -37.48430954
     atom    4 type  1   force =    -0.54985920    0.39064005    1.13056275
     atom    5 type  2   force =    -0.90262410    1.26548211   38.40735650
     atom    6 type  2   force =     0.08004273   -0.37830913  -37.88079409
     atom    7 type  1   force =    -3.41336992   -1.74380186    0.73084224
     atom    8 type  2   force =    -1.38343086    0.24012208   38.39976933
     atom    9 type  2   force =     0.25553577   -0.10574014  -38.27255046
     atom   10 type  1   force =    -0.24423281   -0.21364207    2.63082439
     atom   11 type  2   force =    -0.62115744   -1.52283835   38.36117840
     atom   12 type  2   force =     0.07857053    0.41965354  -38.06785975
     atom   13 type  1   force =    -0.42972865    0.11928529    2.96108804
     atom   14 type  2   force =    -0.04518524   -0.34715277   38.60131367
     atom   15 type  2   force =    -0.16900178   -0.19454168  -37.46986808
     atom   16 type  1   force =     0.48923581    3.64050227    2.03319040
     atom   17 type  2   force =     0.80876667    1.19539792   38.69338878
     atom   18 type  2   force =    -0.30018082   -0.48908168  -38.12361484
     atom   19 type  1   force =     3.32747149   -1.31315791    1.80897686
     atom   20 type  2   force =     0.04840657    0.06695351  -38.63281078
     atom   21 type  1   force =    -0.45867363   -0.45122837    1.00977827
     atom   22 type  2   force =     0.76143249   -1.45617147   38.33284446
     atom   23 type  2   force =    -0.05087749    0.45956829  -37.92175068
     atom   24 type  1   force =     0.81351974   -0.19503651    3.67011584
     atom   25 type  2   force =     0.06427299    0.02520126   35.74044234
     atom   26 type  2   force =    -0.03616953   -0.05188158  -36.39422005
     atom   27 type  1   force =     0.25816848   -0.02831455    0.81023402
     atom   28 type  2   force =     0.06582214    0.48986485   38.57741117
     atom   29 type  2   force =     0.12597840   -0.31678478  -37.62924574
     atom   30 type  1   force =     0.09636832   -0.46427364    1.69458357
     atom   31 type  2   force =     1.18787084    0.30223706   38.35102759
     atom   32 type  2   force =    -0.25631335   -0.00253529  -38.12592199
     atom   33 type  1   force =     0.61664162    0.33597500    2.32529221
     atom   34 type  2   force =    -0.07687792   -0.35868027   38.82633499
     atom   35 type  2   force =     0.01625870    0.44053373  -37.67429650
     atom   36 type  3   force =     0.10345779   -0.06971052    8.72020870
     The local contribution  to forces
     atom    1 type  1   force =     0.25225397   -0.63966430   -2.75248599
     atom    2 type  2   force =     0.18837211    0.19326716  -38.86487617
     atom    3 type  2   force =    -0.18272738    0.11666781   37.23842694
     atom    4 type  1   force =     0.55333238   -0.41103747   -1.13395586
     atom    5 type  2   force =     0.89775513   -1.24224620  -38.17215110
     atom    6 type  2   force =    -0.08211834    0.38297521   37.63555808
     atom    7 type  1   force =     3.44415622    1.74388350   -0.72484455
     atom    8 type  2   force =     1.36882284   -0.23718565  -38.15653976
     atom    9 type  2   force =    -0.25222086    0.11510773   38.02801658
     atom   10 type  1   force =     0.24962597    0.21229320   -2.63148822
     atom   11 type  2   force =     0.61471756    1.51442933  -38.12545701
     atom   12 type  2   force =    -0.07469970   -0.40713589   37.82503370
     atom   13 type  1   force =     0.41036084   -0.14954200   -2.94878311
     atom   14 type  2   force =     0.05213479    0.35094622  -38.36517374
     atom   15 type  2   force =     0.16771247    0.19999332   37.22887059
     atom   16 type  1   force =    -0.49702379   -3.70262324   -2.00288024
     atom   17 type  2   force =    -0.80293926   -1.16601931  -38.46541422
     atom   18 type  2   force =     0.30404069    0.49246420   37.88186229
     atom   19 type  1   force =    -3.36662673    1.31845856   -1.79239564
     atom   20 type  2   force =    -0.04848176   -0.05551252   38.39215170
     atom   21 type  1   force =     0.45481892    0.43609620   -1.01234880
     atom   22 type  2   force =    -0.75264451    1.44722293  -38.10112802
     atom   23 type  2   force =     0.04518478   -0.44335963   37.67742257
     atom   24 type  1   force =    -0.79385316    0.16748988   -3.65642828
     atom   25 type  2   force =    -0.07878612   -0.02486048  -35.99714153
     atom   26 type  2   force =     0.03182726    0.06404689   36.12738089
     atom   27 type  1   force =    -0.25958166    0.01258932   -0.81329532
     atom   28 type  2   force =    -0.06772922   -0.46704874  -38.33637539
     atom   29 type  2   force =    -0.12506246    0.32513774   37.38233677
     atom   30 type  1   force =    -0.08999545    0.45057528   -1.70013225
     atom   31 type  2   force =    -1.17727398   -0.29916379  -38.10717807
     atom   32 type  2   force =     0.25386074    0.01690923   37.88166466
     atom   33 type  1   force =    -0.61736263   -0.31387831   -2.31309573
     atom   34 type  2   force =     0.06988992    0.36042944  -38.58525001
     atom   35 type  2   force =    -0.01711066   -0.42752210   37.42925544
     atom   36 type  3   force =    -0.10141836    0.07045508   -8.65340107
     The core correction contribution to forces
     atom    1 type  1   force =     0.00000000    0.00000000    0.00000000
     atom    2 type  2   force =    -0.00069663   -0.00003534    0.02032651
     atom    3 type  2   force =     0.00024904    0.00028107   -0.02099278
     atom    4 type  1   force =     0.00000000    0.00000000    0.00000000
     atom    5 type  2   force =    -0.00057470    0.00135360    0.02023804
     atom    6 type  2   force =    -0.00010622   -0.00003944   -0.02072956
     atom    7 type  1   force =     0.00000000    0.00000000    0.00000000
     atom    8 type  2   force =    -0.00094927    0.00041517    0.02081515
     atom    9 type  2   force =     0.00051745    0.00037603   -0.02083925
     atom   10 type  1   force =     0.00000000    0.00000000    0.00000000
     atom   11 type  2   force =    -0.00024504   -0.00091338    0.02030419
     atom   12 type  2   force =     0.00044937    0.00079716   -0.02075788
     atom   13 type  1   force =     0.00000000    0.00000000    0.00000000
     atom   14 type  2   force =     0.00076060   -0.00038143    0.02023902
     atom   15 type  2   force =    -0.00003248    0.00010537   -0.02074765
     atom   16 type  1   force =     0.00000000    0.00000000    0.00000000
     atom   17 type  2   force =     0.00055596    0.00195885    0.01990349
     atom   18 type  2   force =    -0.00000642   -0.00011353   -0.02077548
     atom   19 type  1   force =     0.00000000    0.00000000    0.00000000
     atom   20 type  2   force =     0.00006785    0.00053518   -0.02106707
     atom   21 type  1   force =     0.00000000    0.00000000    0.00000000
     atom   22 type  2   force =     0.00064572   -0.00108231    0.01999866
     atom   23 type  2   force =    -0.00028923    0.00094223   -0.02083697
     atom   24 type  1   force =     0.00000000    0.00000000    0.00000000
     atom   25 type  2   force =    -0.00103038    0.00014106   -0.01096330
     atom   26 type  2   force =    -0.00024562    0.00061504   -0.02152273
     atom   27 type  1   force =     0.00000000    0.00000000    0.00000000
     atom   28 type  2   force =    -0.00019969    0.00180864    0.02056315
     atom   29 type  2   force =     0.00005072    0.00026018   -0.02093398
     atom   30 type  1   force =     0.00000000    0.00000000    0.00000000
     atom   31 type  2   force =     0.00051822    0.00051005    0.02074458
     atom   32 type  2   force =    -0.00056557    0.00073622   -0.02080141
     atom   33 type  1   force =     0.00000000    0.00000000    0.00000000
     atom   34 type  2   force =    -0.00060120   -0.00030061    0.02055002
     atom   35 type  2   force =    -0.00018556    0.00083137   -0.02095627
     atom   36 type  3   force =     0.00000000    0.00000000    0.00000000
     The Hubbard contrib.    to forces
     atom    1 type  1   force =     0.00000000    0.00000000    0.00000000
     atom    2 type  2   force =     0.00000000    0.00000000    0.00000000
     atom    3 type  2   force =     0.00000000    0.00000000    0.00000000
     atom    4 type  1   force =     0.00000000    0.00000000    0.00000000
     atom    5 type  2   force =     0.00000000    0.00000000    0.00000000
     atom    6 type  2   force =     0.00000000    0.00000000    0.00000000
     atom    7 type  1   force =     0.00000000    0.00000000    0.00000000
     atom    8 type  2   force =     0.00000000    0.00000000    0.00000000
     atom    9 type  2   force =     0.00000000    0.00000000    0.00000000
     atom   10 type  1   force =     0.00000000    0.00000000    0.00000000
     atom   11 type  2   force =     0.00000000    0.00000000    0.00000000
     atom   12 type  2   force =     0.00000000    0.00000000    0.00000000
     atom   13 type  1   force =     0.00000000    0.00000000    0.00000000
     atom   14 type  2   force =     0.00000000    0.00000000    0.00000000
     atom   15 type  2   force =     0.00000000    0.00000000    0.00000000
     atom   16 type  1   force =     0.00000000    0.00000000    0.00000000
     atom   17 type  2   force =     0.00000000    0.00000000    0.00000000
     atom   18 type  2   force =     0.00000000    0.00000000    0.00000000
     atom   19 type  1   force =     0.00000000    0.00000000    0.00000000
     atom   20 type  2   force =     0.00000000    0.00000000    0.00000000
     atom   21 type  1   force =     0.00000000    0.00000000    0.00000000
     atom   22 type  2   force =     0.00000000    0.00000000    0.00000000
     atom   23 type  2   force =     0.00000000    0.00000000    0.00000000
     atom   24 type  1   force =     0.00000000    0.00000000    0.00000000
     atom   25 type  2   force =     0.00000000    0.00000000    0.00000000
     atom   26 type  2   force =     0.00000000    0.00000000    0.00000000
     atom   27 type  1   force =     0.00000000    0.00000000    0.00000000
     atom   28 type  2   force =     0.00000000    0.00000000    0.00000000
     atom   29 type  2   force =     0.00000000    0.00000000    0.00000000
     atom   30 type  1   force =     0.00000000    0.00000000    0.00000000
     atom   31 type  2   force =     0.00000000    0.00000000    0.00000000
     atom   32 type  2   force =     0.00000000    0.00000000    0.00000000
     atom   33 type  1   force =     0.00000000    0.00000000    0.00000000
     atom   34 type  2   force =     0.00000000    0.00000000    0.00000000
     atom   35 type  2   force =     0.00000000    0.00000000    0.00000000
     atom   36 type  3   force =     0.00000000    0.00000000    0.00000000
     The SCF correction term to forces
     atom    1 type  1   force =    -0.00000282    0.00003873   -0.00003769
     atom    2 type  2   force =     0.00003252   -0.00001251    0.00001861
     atom    3 type  2   force =    -0.00000262   -0.00001716   -0.00000408
     atom    4 type  1   force =    -0.00002540    0.00002236    0.00001358
     atom    5 type  2   force =    -0.00001377    0.00001453   -0.00000536
     atom    6 type  2   force =    -0.00000441    0.00001093    0.00002018
     atom    7 type  1   force =    -0.00001159   -0.00002373    0.00002320
     atom    8 type  2   force =     0.00001432    0.00000087    0.00003187
     atom    9 type  2   force =     0.00001011   -0.00001202   -0.00001836
     atom   10 type  1   force =     0.00001836    0.00001676    0.00002280
     atom   11 type  2   force =     0.00000616   -0.00000652    0.00000577
     atom   12 type  2   force =     0.00000041   -0.00000279    0.00000462
     atom   13 type  1   force =    -0.00001323    0.00003740    0.00002637
     atom   14 type  2   force =    -0.00000837    0.00000705   -0.00001448
     atom   15 type  2   force =     0.00000497    0.00000386    0.00002042
     atom   16 type  1   force =    -0.00000792   -0.00001187    0.00002798
     atom   17 type  2   force =    -0.00000475    0.00000577   -0.00000989
     atom   18 type  2   force =    -0.00000469    0.00001201    0.00003117
     atom   19 type  1   force =    -0.00000715   -0.00002971    0.00004825
     atom   20 type  2   force =    -0.00000718    0.00000106    0.00001520
     atom   21 type  1   force =    -0.00001938   -0.00000782    0.00002684
     atom   22 type  2   force =     0.00000601   -0.00001461    0.00000293
     atom   23 type  2   force =     0.00001651   -0.00001793    0.00000160
     atom   24 type  1   force =     0.00006099    0.00001242    0.00009113
     atom   25 type  2   force =    -0.00004114    0.00003204   -0.00001966
     atom   26 type  2   force =    -0.00001508    0.00000648    0.00002746
     atom   27 type  1   force =    -0.00003496   -0.00003253    0.00003132
     atom   28 type  2   force =     0.00002741   -0.00000750    0.00001228
     atom   29 type  2   force =     0.00001183    0.00002255    0.00001030
     atom   30 type  1   force =    -0.00001884    0.00000740    0.00003871
     atom   31 type  2   force =     0.00000516   -0.00001056    0.00002035
     atom   32 type  2   force =     0.00000799   -0.00001125   -0.00000147
     atom   33 type  1   force =    -0.00005845    0.00002517    0.00005912
     atom   34 type  2   force =    -0.00000281    0.00000788    0.00000764
     atom   35 type  2   force =    -0.00001419   -0.00001449    0.00000829
     atom   36 type  3   force =    -0.00000408    0.00000212    0.00000195

     Total force =     0.010594     Total SCF correction =     0.000233
     Energy error            =      8.6E-05 Ry
     Gradient error          =      4.6E-03 Ry/Bohr

     bfgs converged in  33 scf cycles and  32 bfgs steps
     (criteria: energy <  1.0E-04 Ry, force <  1.0E-02 Ry/Bohr)

     End of BFGS Geometry Optimization

     Final energy             =   -2205.5894722029 Ry

     File ./MoS2-V-O.bfgs deleted, as requested
Begin final coordinates

ATOMIC_POSITIONS (angstrom)
Mo            6.6011526778        1.7814925524        2.7676166689
S             8.1505086221        0.8658452916        4.3842701653
S             8.1820825294        0.8749657169        1.1829711338
Mo            8.1546235660        4.5183664649        2.7226383755
S             6.5456298652        3.6979198372        4.3165681167
S             6.5937393332        3.5913860403        1.1184313471
Mo            6.5819747565        7.2133122602        2.6319307045
S             8.1023080928        6.3316629490        4.3040571976
S             8.1897568645        6.3261172529        1.0931658666
Mo            8.1761200488        9.9628762087        2.7622963481
S             6.5650792787        8.9604379286        4.3110392776
S             6.6289788348        9.0742865826        1.1111642431
Mo            3.5060994118        1.8083653232        2.7748708153
S             5.0537829239        0.8300989137        4.3480615817
S             5.0363445061        0.8631517258        1.1719479119
Mo            5.0105081792        4.5650911483        2.6605016140
S             3.4994250184        3.7180730574        4.3345274703
S             3.4631784645        3.5835428590        1.1121926065
Mo            3.4840822252        7.1605370063        2.6526661603
S             5.0327833762        6.3306194126        1.0323904780
Mo            5.0326166462        9.9213311282        2.7251615085
S             3.5164791904        8.9113070213        4.3178248933
S             3.4402439321        9.0328553618        1.1176535796
Mo            0.2666832020        1.7826848695        2.7969389000
S             1.9213847827        0.8306355684        4.2737758947
S             1.8869095641        0.8601252610        1.2299674197
Mo            1.8847098502        4.4990915241        2.7198546199
S             0.2819012577        3.6481943113        4.3408635308
S             0.2859804555        3.5655467305        1.1562983675
Mo            0.2867684412        7.2263948956        2.7287402594
S             1.9199919751        6.3120937591        4.3047047361
S             1.8558418011        6.3160763688        1.1010204606
Mo            1.8946091039        9.8910743815        2.7633027719
S             0.2906998189        9.0201922397        4.3566124810
S             0.2986500018        9.0611043050        1.1596997866
H             2.0029717473        0.7584123749        5.6346125793
End final coordinates



     Writing all to output data dir ./MoS2-V-O.save/
 
     init_run     :      3.09s CPU      3.36s WALL (       1 calls)
     electrons    :   3227.03s CPU   3586.91s WALL (      33 calls)
     update_pot   :     44.75s CPU     47.10s WALL (      32 calls)
     forces       :     43.45s CPU     49.25s WALL (      33 calls)

     Called by init_run:
     wfcinit      :      0.38s CPU      0.43s WALL (       1 calls)
     potinit      :      2.02s CPU      2.15s WALL (       1 calls)
     hinit0       :      0.16s CPU      0.18s WALL (       1 calls)

     Called by electrons:
     c_bands      :    357.70s CPU    362.90s WALL (     296 calls)
     sum_band     :     84.03s CPU    103.90s WALL (     296 calls)
     v_of_rho     :    123.35s CPU    148.74s WALL (     321 calls)
     newd         :     42.21s CPU     60.35s WALL (     321 calls)
     mix_rho      :   2633.39s CPU   2924.25s WALL (     296 calls)

     Called by c_bands:
     init_us_2    :      6.26s CPU      6.79s WALL (     593 calls)
     init_us_2:cp :      6.26s CPU      6.79s WALL (     593 calls)
     regterg      :    335.83s CPU    340.45s WALL (     296 calls)

     Called by *egterg:
     rdiaghg      :     27.75s CPU     28.06s WALL (    1648 calls)
     h_psi        :    193.07s CPU    194.77s WALL (    1689 calls)
     s_psi        :     24.56s CPU     24.64s WALL (    1689 calls)
     g_psi        :      1.24s CPU      1.26s WALL (    1392 calls)

     Called by h_psi:
     h_psi:calbec :     27.67s CPU     27.80s WALL (    1689 calls)
     vloc_psi     :    138.25s CPU    139.68s WALL (    1689 calls)
     add_vuspsi   :     24.25s CPU     24.39s WALL (    1689 calls)

     General routines
     calbec       :     39.30s CPU     39.49s WALL (    2117 calls)
     fft          :     78.88s CPU     93.83s WALL (   21502 calls)
     ffts         :   1183.08s CPU   1464.41s WALL (  646548 calls)
     fftw         :    118.52s CPU    119.61s WALL (  178660 calls)
     interpolate  :      2.34s CPU      2.75s WALL (     321 calls)
 
     Parallel routines
 
     PWSCF        :  55m24.22s CPU      1h 1m WALL

 
   This run was terminated on:  22: 4:56   3Nov2023            

=------------------------------------------------------------------------------=
   JOB DONE.
=------------------------------------------------------------------------------=
