
     Program PWSCF v.7.2 starts on  4Nov2023 at  3:57:44 

     This program is part of the open-source Quantum ESPRESSO suite
     for quantum simulation of materials; please cite
         "P. Giannozzi et al., J. Phys.:Condens. Matter 21 395502 (2009);
         "P. Giannozzi et al., J. Phys.:Condens. Matter 29 465901 (2017);
         "P. Giannozzi et al., J. Chem. Phys. 152 154105 (2020);
          URL http://www.quantum-espresso.org", 
     in publications or presentations arising from this work. More details at
     http://www.quantum-espresso.org/quote

     Parallel version (MPI & OpenMP), running on      48 processor cores
     Number of MPI processes:                48
     Threads/MPI process:                     1

     MPI processes distributed on     1 nodes
     64677 MiB available memory on the printing compute node when the environment starts
 
     Waiting for input...
     Reading input from standard input
Warning: card &CELL ignored
Warning: card CELL_DYNAMICS = 'BFGS', ignored
Warning: card CELL_DOFREE = '2DXY' ignored
Warning: card / ignored

     Current dimensions of program PWSCF are:
     Max number of different atomic species (ntypx) = 10
     Max number of k-points (npk) =  40000
     Max angular momentum in pseudopotentials (lmaxx) =  4

     IMPORTANT: XC functional enforced from input :
     Exchange-correlation= RVV10
                           (   1   4  13   4  26   0   0)
     Any further DFT definition will be discarded
     Please, verify this is what you really want


     gamma-point specific algorithms are used
     signal trapping enabled: kill the code with -SIGUSR1 to stop cleanly the simulation 
 
     R & G space division:  proc/nbgrp/npool/nimage =      48
     Subspace diagonalization in iterative solution of the eigenvalue problem:
     one sub-group per band group will be used
     scalapack distributed-memory algorithm (size of sub-group:  2*  2 procs)

 
     Parallelization info
     --------------------
     sticks:   dense  smooth     PW     G-vecs:    dense   smooth      PW
     Min         243     194     47                49060    35090    4376
     Max         246     196     50                49086    35128    4410
     Sum       11735    9389   2349              2355467  1685513  210763
 
     Using Slab Decomposition
 


     bravais-lattice index     =            0
     lattice parameter (alat)  =      17.8707  a.u.
     unit-cell volume          =   17436.2743 (a.u.)^3
     number of atoms/cell      =           36
     number of atomic types    =            3
     number of electrons       =       307.00
     number of Kohn-Sham states=          185
     kinetic-energy cutoff     =      80.0000  Ry
     charge density cutoff     =     400.0000  Ry
     scf convergence threshold =      1.0E-06
     mixing beta               =       0.7000
     number of iterations used =            8  local-TF  mixing
     energy convergence thresh.=      1.0E-04
     force convergence thresh. =      1.0E-02
     Exchange-correlation= RVV10
                           (   1   4  13   4  26   0   0)
     nstep                     =          200


     celldm(1)=  17.870686  celldm(2)=   0.000000  celldm(3)=   0.000000
     celldm(4)=   0.000000  celldm(5)=   0.000000  celldm(6)=   0.000000

     crystal axes: (cart. coord. in units of alat)
               a(1) = (   1.000000   0.000000   0.000000 )  
               a(2) = (   0.000000   1.155671   0.000000 )  
               a(3) = (   0.000000   0.000000   2.643601 )  

     reciprocal axes: (cart. coord. in units 2 pi/alat)
               b(1) = (  1.000000  0.000000  0.000000 )  
               b(2) = (  0.000000  0.865298  0.000000 )  
               b(3) = (  0.000000  0.000000  0.378272 )  


     PseudoPot. # 1 for Mo read from file:
     ../pseudo/Mo_ONCV_PBE-1.0.oncvpsp.upf
     MD5 check sum: 1b5d28e075c9ccadda658a603575cd1f
     Pseudo is Norm-conserving, Zval = 14.0
     Generated using ONCVPSP code by D. R. Hamann
     Using radial grid of 1526 points,  6 beta functions with: 
                l(1) =   0
                l(2) =   0
                l(3) =   1
                l(4) =   1
                l(5) =   2
                l(6) =   2

     PseudoPot. # 2 for S  read from file:
     ../pseudo/s_pbe_v1.4.uspp.F.UPF
     MD5 check sum: 88d86576ff6df21479756cfb9bdac1df
     Pseudo is Ultrasoft + core correction, Zval =  6.0
     Generated by new atomic code, or converted to UPF format
     Using radial grid of  907 points,  6 beta functions with: 
                l(1) =   0
                l(2) =   0
                l(3) =   1
                l(4) =   1
                l(5) =   2
                l(6) =   2
     Q(r) pseudized with  8 coefficients,  rinner =    1.300   1.300   1.300
                                                       1.300   1.300

     PseudoPot. # 3 for H  read from file:
     ../pseudo/H_ONCV_PBE-1.0.oncvpsp.upf
     MD5 check sum: 1790becc920ee074925cf490c71280fe
     Pseudo is Norm-conserving, Zval =  1.0
     Generated using ONCVPSP code by D. R. Hamann
     Using radial grid of 1166 points,  2 beta functions with: 
                l(1) =   0
                l(2) =   0

     atomic species   valence    mass     pseudopotential
        Mo            14.00    95.94000     Mo( 1.00)
        S              6.00    32.06500     S ( 1.00)
        H              1.00     1.00794     H ( 1.00)

     No symmetry found



   Cartesian axes

     site n.     atom                  positions (alat units)
         1           Mo  tau(   1) = (   0.6952221   0.1890506   0.2985846  )
         2           S   tau(   2) = (   0.8646417   0.0856217   0.4689279  )
         3           S   tau(   3) = (   0.8663890   0.0857843   0.1351291  )
         4           Mo  tau(   4) = (   0.8560186   0.4753274   0.2873942  )
         5           S   tau(   5) = (   0.6873294   0.3936244   0.4596353  )
         6           S   tau(   6) = (   0.6929804   0.3713468   0.1185692  )
         7           Mo  tau(   7) = (   0.6862796   0.7633098   0.2825370  )
         8           S   tau(   8) = (   0.8545980   0.6708292   0.4486168  )
         9           S   tau(   9) = (   0.8545123   0.6666874   0.1146125  )
        10           Mo  tau(  10) = (   0.8629403   1.0471007   0.3006803  )
        11           S   tau(  11) = (   0.6868280   0.9456650   0.4634891  )
        12           S   tau(  12) = (   0.6998113   0.9568511   0.1205389  )
        13           Mo  tau(  13) = (   0.3618216   0.1847309   0.2935964  )
        14           S   tau(  14) = (   0.5260962   0.0863870   0.4600448  )
        15           S   tau(  15) = (   0.5348379   0.0894875   0.1297123  )
        16           Mo  tau(  16) = (   0.5265817   0.4772436   0.2784130  )
        17           S   tau(  17) = (   0.3624753   0.3882513   0.4525556  )
        18           S   tau(  18) = (   0.3635411   0.3752055   0.1119148  )
        19           Mo  tau(  19) = (   0.3652268   0.7630864   0.2781795  )
        20           S   tau(  20) = (   0.5269494   0.6690381   0.1096838  )
        21           Mo  tau(  21) = (   0.5300192   1.0470394   0.2900995  )
        22           S   tau(  22) = (   0.3670346   0.9457522   0.4574073  )
        23           S   tau(  23) = (   0.3604225   0.9585725   0.1159032  )
        24           Mo  tau(  24) = (   0.0313099   0.1847895   0.3013130  )
        25           S   tau(  25) = (   0.1956761   0.0838230   0.4650863  )
        26           S   tau(  26) = (   0.1967693   0.0903508   0.1278874  )
        27           Mo  tau(  27) = (   0.1967578   0.4753919   0.2813011  )
        28           S   tau(  28) = (   0.0287851   0.3864324   0.4586755  )
        29           S   tau(  29) = (   0.0244514   0.3729871   0.1239344  )
        30           Mo  tau(  30) = (   0.0286728   0.7631204   0.2856894  )
        31           S   tau(  31) = (   0.2011512   0.6675435   0.4465001  )
        32           S   tau(  32) = (   0.1969214   0.6672839   0.1104564  )
        33           Mo  tau(  33) = (   0.1950294   1.0511147   0.2932237  )
        34           S   tau(  34) = (   0.0312912   0.9612169   0.4667423  )
        35           S   tau(  35) = (   0.0292670   0.9563028   0.1216485  )
        36           H   tau(  36) = (   0.2222222   0.6420393   0.5792558  )

     number of k points=     1  Gaussian smearing, width (Ry)=  0.0100
                       cart. coord. in units 2pi/alat
        k(    1) = (   0.0000000   0.0000000   0.0000000), wk =   2.0000000

     Dense  grid:  1177734 G-vectors     FFT dimensions: ( 120, 135, 320)

     Smooth grid:   842757 G-vectors     FFT dimensions: ( 108, 120, 270)

     Estimated max dynamical RAM per process >     146.59 MB

     Estimated total dynamical RAM >       6.87 GB

     Initial potential from superposition of free atoms

     starting charge     306.9873, renormalised to     307.0000

     negative rho (up, down):  1.401E-04 0.000E+00


---------------------------------------------------------------------------------
Carrying out rVV10 run using the following parameters:
Nqs =      20    Nr_points =    1024   r_max =   100.000
b_value =  6.30000    beta =  0.00901
     q_mesh =  0.00010000  0.00030000  0.00058939  0.00100810
               0.00161396  0.00249058  0.00375900  0.00559430
               0.00824984  0.01209221  0.01765183  0.02569619
               0.03733578  0.05417739  0.07854596  0.11380545
               0.16482331  0.23864234  0.34545298  0.50000000

Gradients computed in Reciprocal space

---------------------------------------------------------------------------------


     Starting wfcs are  213 randomized atomic wfcs

     total cpu time spent up to now is        3.5 secs

     Self-consistent Calculation

     iteration #  1     ecut=    80.00 Ry     beta= 0.70
     Davidson diagonalization with overlap
     ethr =  1.00E-02,  avg # of iterations =  2.0

     Threshold (ethr) on eigenvalues was too large:
     Diagonalizing with lowered threshold

     Davidson diagonalization with overlap
     ethr =  3.86E-04,  avg # of iterations =  4.0

     negative rho (up, down):  2.206E-08 0.000E+00

     total cpu time spent up to now is       23.2 secs

     total energy              =   -2205.65053317 Ry
     estimated scf accuracy    <       1.46160828 Ry

     iteration #  2     ecut=    80.00 Ry     beta= 0.70
     Davidson diagonalization with overlap
     ethr =  4.76E-04,  avg # of iterations =  1.0

     total cpu time spent up to now is       25.5 secs

     total energy              =   -2205.46419332 Ry
     estimated scf accuracy    <       0.62341702 Ry

     iteration #  3     ecut=    80.00 Ry     beta= 0.70
     Davidson diagonalization with overlap
     ethr =  2.03E-04,  avg # of iterations =  2.0

     total cpu time spent up to now is       27.9 secs

     total energy              =   -2205.56350589 Ry
     estimated scf accuracy    <       0.09514822 Ry

     iteration #  4     ecut=    80.00 Ry     beta= 0.70
     Davidson diagonalization with overlap
     ethr =  3.10E-05,  avg # of iterations = 12.0

     total cpu time spent up to now is       30.8 secs

     total energy              =   -2205.56870953 Ry
     estimated scf accuracy    <       0.03728273 Ry

     iteration #  5     ecut=    80.00 Ry     beta= 0.70
     Davidson diagonalization with overlap
     ethr =  1.21E-05,  avg # of iterations =  2.0

     total cpu time spent up to now is       33.1 secs

     total energy              =   -2205.56770731 Ry
     estimated scf accuracy    <       0.02015180 Ry

     iteration #  6     ecut=    80.00 Ry     beta= 0.70
     Davidson diagonalization with overlap
     ethr =  6.56E-06,  avg # of iterations =  2.0

     total cpu time spent up to now is       35.4 secs

     total energy              =   -2205.56707687 Ry
     estimated scf accuracy    <       0.01474326 Ry

     iteration #  7     ecut=    80.00 Ry     beta= 0.70
     Davidson diagonalization with overlap
     ethr =  4.80E-06,  avg # of iterations =  2.0

     total cpu time spent up to now is       38.5 secs

     total energy              =   -2205.56506389 Ry
     estimated scf accuracy    <       0.00926752 Ry

     iteration #  8     ecut=    80.00 Ry     beta= 0.70
     Davidson diagonalization with overlap
     c_bands:  1 eigenvalues not converged
     ethr =  3.02E-06,  avg # of iterations = 20.0

     negative rho (up, down):  6.508E-03 0.000E+00

     total cpu time spent up to now is       43.8 secs

     total energy              =   -2205.56478983 Ry
     estimated scf accuracy    <       0.00483550 Ry

     iteration #  9     ecut=    80.00 Ry     beta= 0.70
     Davidson diagonalization with overlap
     c_bands:  1 eigenvalues not converged
     ethr =  1.58E-06,  avg # of iterations = 20.0

     negative rho (up, down):  2.725E-02 0.000E+00

     total cpu time spent up to now is       48.7 secs

     total energy              =   -2205.56436412 Ry
     estimated scf accuracy    <       0.00317638 Ry

     iteration # 10     ecut=    80.00 Ry     beta= 0.70
     Davidson diagonalization with overlap
     ethr =  1.03E-06,  avg # of iterations =  2.0

     negative rho (up, down):  3.277E-02 0.000E+00

     total cpu time spent up to now is       53.0 secs

     total energy              =   -2205.56436259 Ry
     estimated scf accuracy    <       0.00134895 Ry

     iteration # 11     ecut=    80.00 Ry     beta= 0.70
     Davidson diagonalization with overlap
     ethr =  4.39E-07,  avg # of iterations =  2.0

     negative rho (up, down):  1.948E-02 0.000E+00

     total cpu time spent up to now is       58.5 secs

     total energy              =   -2205.56436141 Ry
     estimated scf accuracy    <       0.00053172 Ry

     iteration # 12     ecut=    80.00 Ry     beta= 0.70
     Davidson diagonalization with overlap
     ethr =  1.73E-07,  avg # of iterations =  5.0

     negative rho (up, down):  5.089E-03 0.000E+00

     total cpu time spent up to now is       67.2 secs

     total energy              =   -2205.56442380 Ry
     estimated scf accuracy    <       0.00013548 Ry

     iteration # 13     ecut=    80.00 Ry     beta= 0.70
     Davidson diagonalization with overlap
     ethr =  4.41E-08,  avg # of iterations =  6.0

     negative rho (up, down):  1.698E-03 0.000E+00

     total cpu time spent up to now is       74.7 secs

     total energy              =   -2205.56445036 Ry
     estimated scf accuracy    <       0.00001336 Ry

     iteration # 14     ecut=    80.00 Ry     beta= 0.70
     Davidson diagonalization with overlap
     ethr =  4.35E-09,  avg # of iterations =  5.0

     negative rho (up, down):  6.407E-04 0.000E+00

     total cpu time spent up to now is       86.1 secs

     total energy              =   -2205.56445331 Ry
     estimated scf accuracy    <       0.00000546 Ry

     iteration # 15     ecut=    80.00 Ry     beta= 0.70
     Davidson diagonalization with overlap
     ethr =  1.78E-09,  avg # of iterations =  2.0

     negative rho (up, down):  3.422E-04 0.000E+00

     total cpu time spent up to now is       96.5 secs

     total energy              =   -2205.56445948 Ry
     estimated scf accuracy    <       0.00000212 Ry

     iteration # 16     ecut=    80.00 Ry     beta= 0.70
     Davidson diagonalization with overlap
     ethr =  6.92E-10,  avg # of iterations =  3.0

     negative rho (up, down):  1.363E-04 0.000E+00

     total cpu time spent up to now is       98.6 secs

     End of self-consistent calculation

          k = 0.0000 0.0000 0.0000 (105382 PWs)   bands (ev):

   -62.8497 -62.8361 -62.7709 -62.7622 -62.7559 -62.7488 -62.7417 -62.7227
   -62.6950 -62.5619 -62.5179 -62.4662 -37.1656 -37.0942 -37.0811 -37.0524
   -37.0396 -37.0301 -37.0218 -37.0032 -36.9878 -36.9772 -36.9685 -36.9506
   -36.9483 -36.9413 -36.9380 -36.9313 -36.9215 -36.9171 -36.9082 -36.8884
   -36.8699 -36.8570 -36.8421 -36.8199 -36.8102 -36.7973 -36.7683 -36.7415
   -36.7253 -36.7171 -36.7011 -36.6671 -36.6483 -36.6160 -36.5042 -36.4729
   -16.6710 -15.7464 -15.0822 -14.9600 -14.8028 -14.7377 -14.6666 -14.4030
   -14.3602 -14.3250 -14.2548 -14.2308 -14.2222 -14.1708 -14.1242 -14.0467
   -14.0084 -13.9964 -13.9278 -13.8455 -13.7383 -13.7193 -13.6911  -9.5366
    -7.6435  -7.3737  -7.3146  -7.2364  -7.1600  -7.0941  -7.0716  -7.0159
    -6.7568  -6.7236  -6.6867  -6.6239  -6.5066  -6.4436  -6.4165  -6.3170
    -6.2979  -6.1496  -6.1205  -5.9006  -5.8668  -5.8028  -5.7337  -5.6672
    -5.6548  -5.6292  -5.6128  -5.5649  -5.5263  -5.4691  -5.4408  -5.4074
    -5.3820  -5.3544  -5.1234  -5.0739  -4.9929  -4.9092  -4.8752  -4.8448
    -4.8042  -4.7859  -4.5934  -4.5845  -4.4076  -4.2048  -4.1788  -4.1446
    -4.0643  -3.9709  -3.9306  -3.9130  -3.7230  -3.7193  -3.6597  -3.6086
    -3.5946  -3.4787  -3.4571  -3.4339  -3.3726  -3.3583  -3.3437  -3.2901
    -3.2563  -3.1675  -3.0455  -2.7979  -2.7718  -2.7321  -2.6814  -2.6671
    -2.6291  -2.5987  -2.5472  -2.5073  -2.4644  -2.1655  -1.9238  -1.8985
    -1.8577  -0.6485  -0.6076  -0.2895  -0.1063  -0.0596  -0.0203   0.0153
     0.1559   0.2365   0.3178   0.3449   0.3814   0.4259   0.4589   0.5209
     0.5508   0.6125   0.6362   0.6916   0.7274   0.7699   0.7894   0.8502
     0.8829   0.9049   0.9299   0.9929   1.0063   1.0835   1.1163   1.3066
     1.4514

     the Fermi energy is    -0.6944 ev

!    total energy              =   -2205.56445951 Ry
     estimated scf accuracy    <       0.00000070 Ry
     smearing contrib. (-TS)   =      -0.00879036 Ry
     internal energy E=F+TS    =   -2205.55566915 Ry

     The total energy is F=E-TS. E is the sum of the following terms:
     one-electron contribution =  -18045.10131841 Ry
     hartree contribution      =    9010.23955725 Ry
     xc contribution           =    -385.39845847 Ry
     ewald contribution        =    7214.70455047 Ry

     convergence has been achieved in  16 iterations

     negative rho (up, down):  1.363E-04 0.000E+00

     Forces acting on atoms (cartesian axes, Ry/au):

     atom    1 type  1   force =     0.01194136   -0.02299259    0.00512003
     atom    2 type  2   force =    -0.01512315    0.01677606    0.00046869
     atom    3 type  2   force =    -0.01156619    0.00896878   -0.00282223
     atom    4 type  1   force =     0.01091371   -0.00061144   -0.00045995
     atom    5 type  2   force =    -0.00039652   -0.00547910   -0.00544900
     atom    6 type  2   force =     0.00254861    0.01006966    0.00100073
     atom    7 type  1   force =     0.00628043   -0.01334962   -0.00099447
     atom    8 type  2   force =    -0.00726256   -0.00307579    0.01350380
     atom    9 type  2   force =     0.01626340    0.00559842    0.01141612
     atom   10 type  1   force =    -0.01178699    0.00684477   -0.02493205
     atom   11 type  2   force =     0.00477124   -0.00075092   -0.00485430
     atom   12 type  2   force =    -0.00167371    0.00326061    0.00493485
     atom   13 type  1   force =     0.00505571    0.00830315   -0.00792042
     atom   14 type  2   force =     0.00880069    0.00000579    0.01038759
     atom   15 type  2   force =    -0.01240389    0.00170229   -0.00807922
     atom   16 type  1   force =     0.00413780    0.00695183    0.00012174
     atom   17 type  2   force =     0.00811181   -0.00249943    0.00435683
     atom   18 type  2   force =    -0.00797836   -0.00696077    0.01397507
     atom   19 type  1   force =     0.01272660    0.00305195   -0.00880998
     atom   20 type  2   force =     0.00027040   -0.00377288    0.00125451
     atom   21 type  1   force =    -0.00441586    0.00430228    0.00035258
     atom   22 type  2   force =    -0.00234010    0.00334085   -0.00227302
     atom   23 type  2   force =     0.00034775    0.00382393    0.00837385
     atom   24 type  1   force =    -0.01067450   -0.00123557   -0.02103600
     atom   25 type  2   force =     0.01650625    0.01702278    0.00846246
     atom   26 type  2   force =    -0.01032327    0.00013541   -0.00384777
     atom   27 type  1   force =    -0.00550675   -0.01415919    0.00940133
     atom   28 type  2   force =    -0.00166592   -0.00339414   -0.00574790
     atom   29 type  2   force =     0.00429026    0.00004101   -0.00336785
     atom   30 type  1   force =    -0.01490510    0.01397642    0.01214564
     atom   31 type  2   force =     0.00714690    0.00584228   -0.08525535
     atom   32 type  2   force =    -0.01030331    0.00523424    0.00968948
     atom   33 type  1   force =     0.01343564   -0.00766672   -0.00770175
     atom   34 type  2   force =     0.00130194   -0.03598465   -0.01280108
     atom   35 type  2   force =    -0.00711812    0.00644948    0.01378309
     atom   36 type  3   force =     0.00059379   -0.00976921    0.07760400
     The non-local contrib.  to forces
     atom    1 type  1   force =    -0.00343148    0.03195985   -0.01120736
     atom    2 type  2   force =    -0.00975251    0.00044607   -0.26970047
     atom    3 type  2   force =    -0.01437422   -0.00354375    0.27067035
     atom    4 type  1   force =    -0.00908389    0.00555323    0.00426935
     atom    5 type  2   force =     0.00810220   -0.03187878   -0.25137694
     atom    6 type  2   force =    -0.00015720    0.01244916    0.26194924
     atom    7 type  1   force =    -0.03934093   -0.00389389   -0.01866510
     atom    8 type  2   force =     0.00657088   -0.00263521   -0.24842425
     atom    9 type  2   force =     0.01465622   -0.00415892    0.27690606
     atom   10 type  1   force =    -0.00193081    0.00578435   -0.00129610
     atom   11 type  2   force =     0.01470383    0.00524355   -0.25893315
     atom   12 type  2   force =    -0.01189402   -0.01411849    0.26255071
     atom   13 type  1   force =     0.00560556    0.01714356   -0.00876113
     atom   14 type  2   force =     0.01033144   -0.01084405   -0.26253543
     atom   15 type  2   force =    -0.01387698   -0.00502749    0.26115249
     atom   16 type  1   force =    -0.00187928    0.04636064   -0.01520456
     atom   17 type  2   force =    -0.00408707   -0.02361893   -0.24110636
     atom   18 type  2   force =    -0.01140442   -0.00463305    0.27473319
     atom   19 type  1   force =     0.03599295   -0.01146352   -0.00498007
     atom   20 type  2   force =    -0.00135434   -0.01728431    0.26363538
     atom   21 type  1   force =     0.00622844    0.02160354    0.00554033
     atom   22 type  2   force =    -0.00609874   -0.00171199   -0.25026535
     atom   23 type  2   force =     0.00609637   -0.01517126    0.26772886
     atom   24 type  1   force =     0.00358788    0.01176407   -0.01285455
     atom   25 type  2   force =     0.00871014    0.00330256   -0.25864794
     atom   26 type  2   force =    -0.00265439   -0.01510924    0.26490050
     atom   27 type  1   force =     0.00473369    0.00282055   -0.00419527
     atom   28 type  2   force =     0.00346401   -0.02144191   -0.26476430
     atom   29 type  2   force =     0.01066326    0.00056062    0.26546104
     atom   30 type  1   force =    -0.00870984    0.01367608   -0.00784078
     atom   31 type  2   force =     0.01451175   -0.03804522    0.19214272
     atom   32 type  2   force =    -0.00793236   -0.00998838    0.28393407
     atom   33 type  1   force =    -0.00266666    0.01342802    0.00630637
     atom   34 type  2   force =     0.00043508   -0.04255211   -0.26691700
     atom   35 type  2   force =    -0.00374853   -0.01616468    0.27380822
     atom   36 type  3   force =    -0.01304011    0.01486830   -0.07317144
     The ionic contribution  to forces
     atom    1 type  1   force =     0.39734295    0.16796627    5.70124619
     atom    2 type  2   force =    -0.68564587    0.39601755   39.28321041
     atom    3 type  2   force =    -0.17229612    0.01224586  -36.07559017
     atom    4 type  1   force =    -0.03779876    0.47518321    0.55214243
     atom    5 type  2   force =    -0.94621173    1.43179469   38.73273895
     atom    6 type  2   force =     0.34927278   -0.52319109  -38.03099756
     atom    7 type  1   force =    -2.57667906   -2.70766094    2.48074807
     atom    8 type  2   force =    -1.13653034    0.04843458   37.32694235
     atom    9 type  2   force =     0.31769063   -0.03110411  -38.03505048
     atom   10 type  1   force =    -1.15436394   -0.22189136    5.64881710
     atom   11 type  2   force =    -0.54637047   -1.54189858   39.13074322
     atom   12 type  2   force =     0.44510887    0.71576470  -37.85427069
     atom   13 type  1   force =     0.52937240    0.87091451    2.80367309
     atom   14 type  2   force =     0.08696675   -0.01718118   38.51788726
     atom   15 type  2   force =     0.16769849   -0.06802818  -36.79667659
     atom   16 type  1   force =     0.15108805    3.81963180    0.31467896
     atom   17 type  2   force =     0.95814300    1.22452424   37.81009989
     atom   18 type  2   force =    -0.14274837   -0.68529951  -38.60443516
     atom   19 type  1   force =     2.95398384   -2.22408675    0.18624547
     atom   20 type  2   force =     0.26031104   -0.19138949  -38.52048106
     atom   21 type  1   force =     0.10609823    0.15479047    1.13749770
     atom   22 type  2   force =     0.55799359   -1.49812625   38.35750570
     atom   23 type  2   force =    -0.07107607    0.70486295  -38.31788132
     atom   24 type  1   force =    -0.61023658    1.03194583    5.80010832
     atom   25 type  2   force =     0.65161170    0.26647006   39.26010201
     atom   26 type  2   force =    -0.29059793    0.05861249  -37.33506512
     atom   27 type  1   force =    -0.02357201    0.07750980   -2.77679173
     atom   28 type  2   force =    -0.10161591    0.79099199   38.11992173
     atom   29 type  2   force =    -0.28867675   -0.46593255  -37.29956153
     atom   30 type  1   force =    -0.60710262   -0.71058507   -0.41453558
     atom   31 type  2   force =     0.92056725    0.31854576   35.41040679
     atom   32 type  2   force =    -0.48732346    0.00266261  -38.73585642
     atom   33 type  1   force =     0.77876923   -0.67391016    1.97339212
     atom   34 type  2   force =     0.14075567   -1.26856730   39.30646428
     atom   35 type  2   force =    -0.31986461    0.51490854  -37.83851118
     atom   36 type  3   force =     0.42593614   -0.25492541    8.78113253
     The local contribution  to forces
     atom    1 type  1   force =    -0.38192235   -0.22313170   -5.68397022
     atom    2 type  2   force =     0.68007961   -0.37969345  -39.03340657
     atom    3 type  2   force =     0.17449346    0.00012574   35.82352385
     atom    4 type  1   force =     0.05779916   -0.48113058   -0.55589291
     atom    5 type  2   force =     0.93856657   -1.40722389  -38.50659402
     atom    6 type  2   force =    -0.34658762    0.52191628   37.79124785
     atom    7 type  1   force =     2.62244861    2.69847566   -2.46213587
     atom    8 type  2   force =     1.12310656   -0.04919845  -37.08477101
     atom    9 type  2   force =    -0.31558898    0.04066206   37.79113478
     atom   10 type  1   force =     1.14442935    0.22280550   -5.67153935
     atom   11 type  2   force =     0.53717153    1.53635631  -38.89700931
     atom   12 type  2   force =    -0.43596551   -0.69971566   37.61806841
     atom   13 type  1   force =    -0.52998828   -0.87998407   -2.80184015
     atom   14 type  2   force =    -0.08798880    0.02792686  -38.26525872
     atom   15 type  2   force =    -0.16698872    0.07437827   36.54851939
     atom   16 type  1   force =    -0.14496574   -3.85890195   -0.29841456
     atom   17 type  2   force =    -0.94656536   -1.20445470  -37.58378432
     atom   18 type  2   force =     0.14552039    0.68327461   38.36514047
     atom   19 type  1   force =    -2.97707821    2.23883955   -0.18909232
     atom   20 type  2   force =    -0.25876184    0.20450128   38.27970284
     atom   21 type  1   force =    -0.11659388   -0.17230346   -1.14170263
     atom   22 type  2   force =    -0.55453961    1.50325437  -38.12912334
     atom   23 type  2   force =     0.06587021   -0.68701309   38.07988147
     atom   24 type  1   force =     0.59599738   -1.04507785   -5.80734225
     atom   25 type  2   force =    -0.64376393   -0.25246975  -39.01323463
     atom   26 type  2   force =     0.28306596   -0.04422313   37.08776648
     atom   27 type  1   force =     0.01320426   -0.09455469    2.79141800
     atom   28 type  2   force =     0.09675321   -0.77433336  -37.88085749
     atom   29 type  2   force =     0.28309809    0.46591210   37.05190566
     atom   30 type  1   force =     0.60060642    0.71104293    0.43552075
     atom   31 type  2   force =    -0.92643744   -0.27764580  -35.68055304
     atom   32 type  2   force =     0.48469566    0.01190592   38.48365405
     atom   33 type  1   force =    -0.76270391    0.65289835   -1.98642923
     atom   34 type  2   force =    -0.14014678    1.27353023  -39.07277706
     atom   35 type  2   force =     0.31644861   -0.49356369   37.60025294
     atom   36 type  3   force =    -0.41230854    0.23028910   -8.63029277
     The core correction contribution to forces
     atom    1 type  1   force =     0.00000000    0.00000000    0.00000000
     atom    2 type  2   force =     0.00018914   -0.00004010    0.02068155
     atom    3 type  2   force =     0.00061043    0.00008579   -0.02091545
     atom    4 type  1   force =     0.00000000    0.00000000    0.00000000
     atom    5 type  2   force =    -0.00076242    0.00179814    0.02017648
     atom    6 type  2   force =     0.00011501   -0.00115045   -0.02078589
     atom    7 type  1   force =     0.00000000    0.00000000    0.00000000
     atom    8 type  2   force =    -0.00049587    0.00040945    0.01999124
     atom    9 type  2   force =    -0.00059499    0.00030181   -0.02098607
     atom   10 type  1   force =     0.00000000    0.00000000    0.00000000
     atom   11 type  2   force =    -0.00072846   -0.00054417    0.02051364
     atom   12 type  2   force =     0.00108087    0.00121672   -0.02078039
     atom   13 type  1   force =     0.00000000    0.00000000    0.00000000
     atom   14 type  2   force =    -0.00052087    0.00005536    0.02060972
     atom   15 type  2   force =     0.00076184    0.00032427   -0.02057546
     atom   16 type  1   force =     0.00000000    0.00000000    0.00000000
     atom   17 type  2   force =     0.00051917    0.00097879    0.01954362
     atom   18 type  2   force =     0.00056454   -0.00038047   -0.02104340
     atom   19 type  1   force =     0.00000000    0.00000000    0.00000000
     atom   20 type  2   force =     0.00020605    0.00057308   -0.02109183
     atom   21 type  1   force =     0.00000000    0.00000000    0.00000000
     atom   22 type  2   force =     0.00033941   -0.00004783    0.01991153
     atom   23 type  2   force =    -0.00050197    0.00117919   -0.02084842
     atom   24 type  1   force =     0.00000000    0.00000000    0.00000000
     atom   25 type  2   force =    -0.00004453   -0.00030453    0.02055461
     atom   26 type  2   force =    -0.00013577    0.00081603   -0.02094275
     atom   27 type  1   force =     0.00000000    0.00000000    0.00000000
     atom   28 type  2   force =    -0.00025118    0.00137871    0.02030195
     atom   29 type  2   force =    -0.00079791   -0.00051145   -0.02069771
     atom   30 type  1   force =     0.00000000    0.00000000    0.00000000
     atom   31 type  2   force =    -0.00152428    0.00302130   -0.00685569
     atom   32 type  2   force =     0.00022013    0.00066169   -0.02159338
     atom   33 type  1   force =     0.00000000    0.00000000    0.00000000
     atom   34 type  2   force =     0.00022317    0.00161079    0.02072024
     atom   35 type  2   force =    -0.00000673    0.00129496   -0.02124746
     atom   36 type  3   force =     0.00000000    0.00000000    0.00000000
     The Hubbard contrib.    to forces
     atom    1 type  1   force =     0.00000000    0.00000000    0.00000000
     atom    2 type  2   force =     0.00000000    0.00000000    0.00000000
     atom    3 type  2   force =     0.00000000    0.00000000    0.00000000
     atom    4 type  1   force =     0.00000000    0.00000000    0.00000000
     atom    5 type  2   force =     0.00000000    0.00000000    0.00000000
     atom    6 type  2   force =     0.00000000    0.00000000    0.00000000
     atom    7 type  1   force =     0.00000000    0.00000000    0.00000000
     atom    8 type  2   force =     0.00000000    0.00000000    0.00000000
     atom    9 type  2   force =     0.00000000    0.00000000    0.00000000
     atom   10 type  1   force =     0.00000000    0.00000000    0.00000000
     atom   11 type  2   force =     0.00000000    0.00000000    0.00000000
     atom   12 type  2   force =     0.00000000    0.00000000    0.00000000
     atom   13 type  1   force =     0.00000000    0.00000000    0.00000000
     atom   14 type  2   force =     0.00000000    0.00000000    0.00000000
     atom   15 type  2   force =     0.00000000    0.00000000    0.00000000
     atom   16 type  1   force =     0.00000000    0.00000000    0.00000000
     atom   17 type  2   force =     0.00000000    0.00000000    0.00000000
     atom   18 type  2   force =     0.00000000    0.00000000    0.00000000
     atom   19 type  1   force =     0.00000000    0.00000000    0.00000000
     atom   20 type  2   force =     0.00000000    0.00000000    0.00000000
     atom   21 type  1   force =     0.00000000    0.00000000    0.00000000
     atom   22 type  2   force =     0.00000000    0.00000000    0.00000000
     atom   23 type  2   force =     0.00000000    0.00000000    0.00000000
     atom   24 type  1   force =     0.00000000    0.00000000    0.00000000
     atom   25 type  2   force =     0.00000000    0.00000000    0.00000000
     atom   26 type  2   force =     0.00000000    0.00000000    0.00000000
     atom   27 type  1   force =     0.00000000    0.00000000    0.00000000
     atom   28 type  2   force =     0.00000000    0.00000000    0.00000000
     atom   29 type  2   force =     0.00000000    0.00000000    0.00000000
     atom   30 type  1   force =     0.00000000    0.00000000    0.00000000
     atom   31 type  2   force =     0.00000000    0.00000000    0.00000000
     atom   32 type  2   force =     0.00000000    0.00000000    0.00000000
     atom   33 type  1   force =     0.00000000    0.00000000    0.00000000
     atom   34 type  2   force =     0.00000000    0.00000000    0.00000000
     atom   35 type  2   force =     0.00000000    0.00000000    0.00000000
     atom   36 type  3   force =     0.00000000    0.00000000    0.00000000
     The SCF correction term to forces
     atom    1 type  1   force =    -0.00004848    0.00020840   -0.00091307
     atom    2 type  2   force =     0.00000577    0.00004141   -0.00028071
     atom    3 type  2   force =    -0.00000045    0.00005056   -0.00047529
     atom    4 type  1   force =    -0.00000352   -0.00022189   -0.00094330
     atom    5 type  2   force =    -0.00009185    0.00002617   -0.00035795
     atom    6 type  2   force =    -0.00009507    0.00004118   -0.00037740
     atom    7 type  1   force =    -0.00014890   -0.00027504   -0.00090606
     atom    8 type  2   force =     0.00008550   -0.00009074   -0.00019901
     atom    9 type  2   force =     0.00009981   -0.00010700   -0.00055265
     atom   10 type  1   force =     0.00007770    0.00014170   -0.00087817
     atom   11 type  2   force =    -0.00000590    0.00008738   -0.00013318
     atom   12 type  2   force =    -0.00000464    0.00010876   -0.00059768
     atom   13 type  1   force =     0.00006532    0.00022456   -0.00095671
     atom   14 type  2   force =     0.00001146    0.00004420   -0.00027971
     atom   15 type  2   force =     0.00000077    0.00005083   -0.00046353
     atom   16 type  1   force =    -0.00010594   -0.00014326   -0.00090259
     atom   17 type  2   force =     0.00010135    0.00006658   -0.00036047
     atom   18 type  2   force =     0.00008879    0.00007305   -0.00038451
     atom   19 type  1   force =    -0.00017270   -0.00024192   -0.00094753
     atom   20 type  2   force =    -0.00013122   -0.00017804   -0.00047530
     atom   21 type  1   force =    -0.00014937    0.00020714   -0.00094729
     atom   22 type  2   force =    -0.00003547   -0.00003203   -0.00026605
     atom   23 type  2   force =    -0.00004150   -0.00003845   -0.00047121
     atom   24 type  1   force =    -0.00002389    0.00012778   -0.00091200
     atom   25 type  2   force =    -0.00000785    0.00001984   -0.00027607
     atom   26 type  2   force =    -0.00000186    0.00003467   -0.00047135
     atom   27 type  1   force =     0.00012659    0.00006056   -0.00099415
     atom   28 type  2   force =    -0.00001677    0.00000583   -0.00031427
     atom   29 type  2   force =     0.00000285    0.00000771   -0.00043979
     atom   30 type  1   force =     0.00030023   -0.00016210   -0.00096323
     atom   31 type  2   force =     0.00002889   -0.00003834   -0.00036060
     atom   32 type  2   force =     0.00003600   -0.00001219   -0.00041333
     atom   33 type  1   force =     0.00003626   -0.00008753   -0.00093548
     atom   34 type  2   force =     0.00003409   -0.00001084   -0.00025602
     atom   35 type  2   force =     0.00005241   -0.00003024   -0.00048391
     atom   36 type  3   force =     0.00000558   -0.00000579   -0.00002879

     Total force =     0.151503     Total SCF correction =     0.003852

     BFGS Geometry Optimization
     Energy error            =      0.0E+00 Ry
     Gradient error          =      8.5E-02 Ry/Bohr

     number of scf cycles    =   1
     number of bfgs steps    =   0

     energy             new  =   -2205.5644595052 Ry

     new trust radius        =       0.0857536301 bohr
     new conv_thr            =       0.0000010000 Ry


ATOMIC_POSITIONS (angstrom)
Mo            6.5808675035        1.7756390758        2.8263524340
S             8.1687065134        0.8185815346        4.4347863721
S             8.1871125229        0.8159878198        1.2763899640
Mo            8.1009378536        4.4947333833        2.7175749966
S             6.4996994264        3.7195120734        4.3437771609
S             6.5546984653        3.5170661914        1.1218097899
Mo            6.4933051563        7.2113729697        2.6713582314
S             8.0778845456        6.3422433567        4.2496074666
S             8.0895238700        6.3076648739        1.0899041497
Mo            8.1543816442        9.9058025111        2.8302682870
S             6.4976924298        8.9425294456        4.3805367500
S             6.6170615123        9.0504366552        1.1425187105
Mo            3.4243350304        1.7513496876        2.7722798548
S             4.9798226149        0.8169442732        4.3560299680
S             5.0512698957        0.8471629218        1.2223831196
Mo            4.9819463106        4.5168567523        2.6329489701
S             3.4321342459        3.6702770442        4.2820151161
S             3.4336986169        3.5445452156        1.0657469684
Mo            3.4605963673        7.2179395630        2.6260148219
S             4.9833772814        6.3249357647        1.0379175883
Mo            5.0099271454        9.9038767192        2.7435875385
S             3.4697197922        8.9455191681        4.3243884797
S             3.4086131878        9.0670135209        1.1004995496
Mo            0.2904417868        1.7468556939        2.8383129359
S             1.8591969452        0.8017020751        4.4026875801
S             1.8553371930        0.8544975718        1.2073647006
Mo            1.8577772616        4.4881740427        2.6651723514
S             0.2713322802        3.6526027264        4.3345424398
S             0.2335015133        3.5272709297        1.1702356924
Mo            0.2632647128        7.2240420975        2.7081236244
S             1.9060202226        6.3158904368        4.1773289330
S             1.8567859359        6.3131136548        1.0496867342
Mo            1.8514564965        9.9360820981        2.7688706624
S             0.2966018579        9.0709555722        4.4070954236
S             0.2730046551        9.0469386334        1.1576944752
H             2.1018164415        6.0664414680        5.5189496963



     Writing config-only to output data dir ./MoS2-V-O.save/
     NEW-OLD atomic charge density approx. for the potential

     negative rho (up, down):  1.458E-04 0.000E+00

     total cpu time spent up to now is      102.1 secs

     Self-consistent Calculation

     iteration #  1     ecut=    80.00 Ry     beta= 0.70
     Davidson diagonalization with overlap
     ethr =  1.00E-06,  avg # of iterations =  8.0

     negative rho (up, down):  1.891E-04 0.000E+00

     total cpu time spent up to now is      124.5 secs

     total energy              =   -2205.57786959 Ry
     estimated scf accuracy    <       0.00296504 Ry

     iteration #  2     ecut=    80.00 Ry     beta= 0.70
     Davidson diagonalization with overlap
     ethr =  9.66E-07,  avg # of iterations =  2.0

     negative rho (up, down):  2.354E-04 0.000E+00

     total cpu time spent up to now is      137.7 secs

     total energy              =   -2205.57799853 Ry
     estimated scf accuracy    <       0.00060592 Ry

     iteration #  3     ecut=    80.00 Ry     beta= 0.70
     Davidson diagonalization with overlap
     ethr =  1.97E-07,  avg # of iterations =  5.0

     negative rho (up, down):  2.836E-04 0.000E+00

     total cpu time spent up to now is      161.7 secs

     total energy              =   -2205.57803967 Ry
     estimated scf accuracy    <       0.00014579 Ry

     iteration #  4     ecut=    80.00 Ry     beta= 0.70
     Davidson diagonalization with overlap
     ethr =  4.75E-08,  avg # of iterations =  6.0

     negative rho (up, down):  2.994E-04 0.000E+00

     total cpu time spent up to now is      175.9 secs

     total energy              =   -2205.57806339 Ry
     estimated scf accuracy    <       0.00001058 Ry

     iteration #  5     ecut=    80.00 Ry     beta= 0.70
     Davidson diagonalization with overlap
     ethr =  3.45E-09,  avg # of iterations =  5.0

     negative rho (up, down):  2.975E-04 0.000E+00

     total cpu time spent up to now is      190.5 secs

     total energy              =   -2205.57806827 Ry
     estimated scf accuracy    <       0.00000445 Ry

     iteration #  6     ecut=    80.00 Ry     beta= 0.70
     Davidson diagonalization with overlap
     ethr =  1.45E-09,  avg # of iterations =  2.0

     negative rho (up, down):  2.857E-04 0.000E+00

     total cpu time spent up to now is      205.2 secs

     total energy              =   -2205.57806854 Ry
     estimated scf accuracy    <       0.00000132 Ry

     iteration #  7     ecut=    80.00 Ry     beta= 0.70
     Davidson diagonalization with overlap
     ethr =  4.32E-10,  avg # of iterations =  6.0

     negative rho (up, down):  1.364E-04 0.000E+00

     total cpu time spent up to now is      207.6 secs

     End of self-consistent calculation

          k = 0.0000 0.0000 0.0000 (105382 PWs)   bands (ev):

   -62.8419 -62.8260 -62.7740 -62.7661 -62.7608 -62.7499 -62.7463 -62.7305
   -62.6990 -62.5710 -62.5091 -62.4753 -37.1660 -37.0936 -37.0814 -37.0512
   -37.0383 -37.0286 -37.0232 -37.0068 -36.9875 -36.9803 -36.9715 -36.9528
   -36.9512 -36.9424 -36.9394 -36.9346 -36.9240 -36.9218 -36.9149 -36.8940
   -36.8754 -36.8613 -36.8453 -36.8228 -36.8106 -36.8000 -36.7726 -36.7462
   -36.7318 -36.7236 -36.7046 -36.6729 -36.6568 -36.6222 -36.5112 -36.4707
   -16.4968 -15.7237 -15.0908 -14.9597 -14.8012 -14.7372 -14.6664 -14.4066
   -14.3566 -14.3327 -14.2641 -14.2347 -14.2233 -14.1791 -14.1272 -14.0577
   -14.0130 -14.0027 -13.9361 -13.8399 -13.7378 -13.7246 -13.7131  -9.2922
    -7.6619  -7.3954  -7.3261  -7.2487  -7.1517  -7.1028  -7.0863  -7.0274
    -6.7622  -6.7366  -6.6937  -6.6241  -6.5149  -6.4470  -6.4198  -6.3214
    -6.2946  -6.1582  -6.1216  -5.9058  -5.8745  -5.8098  -5.7499  -5.6708
    -5.6630  -5.6376  -5.6246  -5.5727  -5.5323  -5.4643  -5.4549  -5.4104
    -5.3856  -5.3633  -5.1179  -5.0712  -4.9990  -4.9259  -4.8710  -4.8537
    -4.8160  -4.7940  -4.5981  -4.5782  -4.4198  -4.2100  -4.1877  -4.1541
    -4.0834  -3.9645  -3.9375  -3.9187  -3.7340  -3.7167  -3.6638  -3.6146
    -3.5966  -3.4982  -3.4547  -3.4428  -3.3883  -3.3680  -3.3507  -3.2972
    -3.2612  -3.1814  -3.0540  -2.8022  -2.7725  -2.7272  -2.6901  -2.6813
    -2.6385  -2.5967  -2.5636  -2.5116  -2.4725  -2.1673  -1.9356  -1.9001
    -1.8694  -0.6611  -0.6076  -0.2829  -0.1033  -0.0464  -0.0038   0.0100
     0.1651   0.2312   0.3109   0.3611   0.3837   0.4236   0.4613   0.5123
     0.5621   0.6227   0.6414   0.6939   0.7230   0.7752   0.7825   0.8391
     0.8690   0.9200   0.9237   0.9869   1.0058   1.0862   1.1091   1.2959
     1.4558

     the Fermi energy is    -0.7018 ev

!    total energy              =   -2205.57806918 Ry
     estimated scf accuracy    <       0.00000037 Ry
     smearing contrib. (-TS)   =      -0.00865272 Ry
     internal energy E=F+TS    =   -2205.56941645 Ry

     The total energy is F=E-TS. E is the sum of the following terms:
     one-electron contribution =  -18053.03267835 Ry
     hartree contribution      =    9014.13492525 Ry
     xc contribution           =    -385.38943316 Ry
     ewald contribution        =    7218.71776981 Ry

     convergence has been achieved in   7 iterations

     negative rho (up, down):  1.364E-04 0.000E+00

     Forces acting on atoms (cartesian axes, Ry/au):

     atom    1 type  1   force =     0.00288560   -0.01152602   -0.00012452
     atom    2 type  2   force =    -0.00968804    0.01055732   -0.00135004
     atom    3 type  2   force =    -0.01058813    0.00705396   -0.00831201
     atom    4 type  1   force =     0.00717190    0.00047021    0.00066081
     atom    5 type  2   force =     0.00132694   -0.00569176   -0.00543101
     atom    6 type  2   force =     0.00252197    0.00642454    0.00248230
     atom    7 type  1   force =     0.00439507   -0.01132082    0.00045477
     atom    8 type  2   force =    -0.00576063   -0.00441727    0.01275760
     atom    9 type  2   force =     0.01357550    0.00466991    0.00852250
     atom   10 type  1   force =    -0.00478575    0.00744896   -0.00989265
     atom   11 type  2   force =     0.00410902   -0.00060926   -0.00656483
     atom   12 type  2   force =    -0.00359567    0.00142019    0.00171899
     atom   13 type  1   force =     0.00423906    0.00461578   -0.00273210
     atom   14 type  2   force =     0.00626782    0.00002880    0.00711753
     atom   15 type  2   force =    -0.00897901    0.00140440   -0.00641237
     atom   16 type  1   force =     0.00514260    0.00423447    0.00175636
     atom   17 type  2   force =     0.00718609   -0.00088301    0.00443529
     atom   18 type  2   force =    -0.00570531   -0.00450565    0.01037069
     atom   19 type  1   force =     0.01135676    0.00642621   -0.01043581
     atom   20 type  2   force =     0.00232034   -0.00365083   -0.00199862
     atom   21 type  1   force =    -0.00349898    0.00322773    0.00203774
     atom   22 type  2   force =    -0.00080821    0.00156285   -0.00146406
     atom   23 type  2   force =     0.00160679    0.00363128    0.00354483
     atom   24 type  1   force =    -0.00662917   -0.00167712   -0.00917031
     atom   25 type  2   force =     0.01138712    0.01313472    0.00088356
     atom   26 type  2   force =    -0.00677337   -0.00072349   -0.00417156
     atom   27 type  1   force =    -0.00346128   -0.01448848    0.00165310
     atom   28 type  2   force =    -0.00148601   -0.00426870   -0.00393255
     atom   29 type  2   force =     0.00286728    0.00036587   -0.00521584
     atom   30 type  1   force =    -0.01328054    0.00870427    0.00615596
     atom   31 type  2   force =     0.01834698   -0.01030189    0.01128913
     atom   32 type  2   force =    -0.00961605    0.00389657    0.00836190
     atom   33 type  1   force =     0.00614496   -0.00202578   -0.00030490
     atom   34 type  2   force =    -0.00101678   -0.02563265   -0.01356472
     atom   35 type  2   force =    -0.00557095    0.00682798    0.00852079
     atom   36 type  3   force =    -0.01160792    0.00561670   -0.00164597
     The non-local contrib.  to forces
     atom    1 type  1   force =    -0.00152873    0.02859448   -0.01137273
     atom    2 type  2   force =    -0.00633878   -0.00322609   -0.26909178
     atom    3 type  2   force =    -0.01204228   -0.00599996    0.26622773
     atom    4 type  1   force =    -0.00753368    0.00689953    0.00432582
     atom    5 type  2   force =     0.00923940   -0.03271517   -0.25266152
     atom    6 type  2   force =     0.00044816    0.00898949    0.26402767
     atom    7 type  1   force =    -0.03962414   -0.00533548   -0.01956448
     atom    8 type  2   force =     0.00833565   -0.00353876   -0.24845853
     atom    9 type  2   force =     0.01131455   -0.00575230    0.27434855
     atom   10 type  1   force =    -0.00306260    0.00552990   -0.00169499
     atom   11 type  2   force =     0.01284605    0.00430376   -0.26048833
     atom   12 type  2   force =    -0.01312461   -0.01580194    0.26162303
     atom   13 type  1   force =     0.00604825    0.01848247   -0.00961515
     atom   14 type  2   force =     0.00828945   -0.01063297   -0.26444921
     atom   15 type  2   force =    -0.01137146   -0.00551334    0.26161751
     atom   16 type  1   force =    -0.00389107    0.04786026   -0.01640913
     atom   17 type  2   force =    -0.00491591   -0.02138455   -0.24100812
     atom   18 type  2   force =    -0.00923637   -0.00251154    0.27252454
     atom   19 type  1   force =     0.03662759   -0.01148504   -0.00349824
     atom   20 type  2   force =     0.00017660   -0.01700282    0.26110046
     atom   21 type  1   force =     0.00520097    0.02247675    0.00443340
     atom   22 type  2   force =    -0.00444704   -0.00391278   -0.25036409
     atom   23 type  2   force =     0.00648403   -0.01549835    0.26424692
     atom   24 type  1   force =     0.00199259    0.01254284   -0.01231068
     atom   25 type  2   force =     0.00476885    0.00016479   -0.26383109
     atom   26 type  2   force =    -0.00006028   -0.01525812    0.26569785
     atom   27 type  1   force =     0.00340957    0.00125573   -0.00174442
     atom   28 type  2   force =     0.00347972   -0.02133376   -0.26455276
     atom   29 type  2   force =     0.00850766   -0.00073682    0.26425655
     atom   30 type  1   force =    -0.00959381    0.01599113   -0.00605852
     atom   31 type  2   force =     0.01928042   -0.04838563    0.27530004
     atom   32 type  2   force =    -0.00586062   -0.01042337    0.28554168
     atom   33 type  1   force =    -0.00106095    0.01110120    0.00463562
     atom   34 type  2   force =    -0.00151967   -0.03497519   -0.26931165
     atom   35 type  2   force =    -0.00263682   -0.01482662    0.27077418
     atom   36 type  3   force =    -0.00990236    0.01175151   -0.05917445
     The ionic contribution  to forces
     atom    1 type  1   force =     0.13690965    0.47053071    5.78986703
     atom    2 type  2   force =    -0.49462171    0.27121983   39.36897961
     atom    3 type  2   force =    -0.15530499    0.02154371  -36.19510747
     atom    4 type  1   force =    -0.15397849    0.44610239    0.58632101
     atom    5 type  2   force =    -0.95440823    1.42053361   38.66781283
     atom    6 type  2   force =     0.30990393   -0.56105574  -37.95831039
     atom    7 type  1   force =    -2.65973083   -2.59197264    2.50009053
     atom    8 type  2   force =    -1.13540659    0.01090647   37.48692708
     atom    9 type  2   force =     0.31102468   -0.05670979  -38.02661594
     atom   10 type  1   force =    -0.92171766   -0.19831521    5.32032311
     atom   11 type  2   force =    -0.52962088   -1.53988988   39.11334822
     atom   12 type  2   force =     0.36811523    0.63432270  -37.84979325
     atom   13 type  1   force =     0.50074581    0.76283754    2.72243085
     atom   14 type  2   force =     0.00190487    0.00306783   38.59180029
     atom   15 type  2   force =     0.18092114   -0.02217078  -36.84388006
     atom   16 type  1   force =     0.12997787    3.68339190    0.36003938
     atom   17 type  2   force =     0.96158904    1.25034390   37.87049096
     atom   18 type  2   force =    -0.10420014   -0.60721405  -38.54579282
     atom   19 type  1   force =     2.95821062   -2.25788109   -0.03959828
     atom   20 type  2   force =     0.25892854   -0.20491075  -38.57534136
     atom   21 type  1   force =     0.11294434    0.12069997    1.26742894
     atom   22 type  2   force =     0.53980292   -1.52268255   38.42458154
     atom   23 type  2   force =    -0.06302707    0.68388562  -38.34121458
     atom   24 type  1   force =    -0.38796494    0.80633630    5.51250041
     atom   25 type  2   force =     0.53542366    0.21096153   39.23102613
     atom   26 type  2   force =    -0.25215427    0.03187330  -37.30161508
     atom   27 type  1   force =     0.07779216    0.13223999   -2.50534049
     atom   28 type  2   force =    -0.08283864    0.74139346   38.17779044
     atom   29 type  2   force =    -0.27946289   -0.40688157  -37.37944263
     atom   30 type  1   force =    -0.54494611   -0.79393368   -0.08832280
     atom   31 type  2   force =     1.00649654    0.25430751   35.22361669
     atom   32 type  2   force =    -0.48817029   -0.02618782  -38.64104140
     atom   33 type  1   force =     0.58321448   -0.41945778    2.05147016
     atom   34 type  2   force =     0.11927210   -1.04404856   39.26157427
     atom   35 type  2   force =    -0.25517754    0.49733937  -37.78887278
     atom   36 type  3   force =     0.36955368   -0.20052574    8.55186983
     The local contribution  to forces
     atom    1 type  1   force =    -0.13243749   -0.51068502   -5.77853678
     atom    2 type  2   force =     0.49107707   -0.25737026  -39.12181364
     atom    3 type  2   force =     0.15622090   -0.00866375   35.94130574
     atom    4 type  1   force =     0.16866984   -0.45273495   -0.58987540
     atom    5 type  2   force =     0.94720883   -1.39529994  -38.44066007
     atom    6 type  2   force =    -0.30802160    0.55954003   37.71749987
     atom    7 type  1   force =     2.70370534    2.58567079   -2.48002500
     atom    8 type  2   force =     1.12206292   -0.01227942  -37.24540610
     atom    9 type  2   force =    -0.30827127    0.06670019   37.78152959
     atom   10 type  1   force =     0.92004438    0.20043548   -5.32864257
     atom   11 type  2   force =     0.52150293    1.53557716  -38.87971641
     atom   12 type  2   force =    -0.35963485   -0.61812497   37.61038442
     atom   13 type  1   force =    -0.50247088   -0.77644102   -2.71556435
     atom   14 type  2   force =    -0.00341755    0.00756766  -38.34078998
     atom   15 type  2   force =    -0.17921050    0.02874017   36.59630948
     atom   16 type  1   force =    -0.12101581   -3.72723323   -0.34178935
     atom   17 type  2   force =    -0.95002681   -1.23063516  -37.64446776
     atom   18 type  2   force =     0.10734582    0.60563146   38.30461799
     atom   19 type  1   force =    -2.98365527    2.27558891    0.03281681
     atom   20 type  2   force =    -0.25700349    0.21748611   38.33310076
     atom   21 type  1   force =    -0.12178997   -0.13960981   -1.26988704
     atom   22 type  2   force =    -0.53648310    1.52813320  -38.19541098
     atom   23 type  2   force =     0.05864929   -0.66585780   38.10113182
     atom   24 type  1   force =     0.37925673   -0.82038397   -5.50938648
     atom   25 type  2   force =    -0.52885381   -0.19775214  -38.98675586
     atom   26 type  2   force =     0.24566199   -0.01811156   37.05253273
     atom   27 type  1   force =    -0.08455362   -0.14807097    2.50897907
     atom   28 type  2   force =     0.07820023   -0.72557213  -37.93733621
     atom   29 type  2   force =     0.27452326    0.40833312   37.13057767
     atom   30 type  1   force =     0.54147250    0.78659802    0.10087236
     atom   31 type  2   force =    -1.00586051   -0.21976785  -35.47689041
     atom   32 type  2   force =     0.48433088    0.03979806   38.38527274
     atom   33 type  1   force =    -0.57594491    0.40630161   -2.05641736
     atom   34 type  2   force =    -0.11897214    1.05182352  -39.02639544
     atom   35 type  2   force =     0.25224673   -0.47684842   37.54764209
     atom   36 type  3   force =    -0.37126334    0.19437437   -8.49426054
     The core correction contribution to forces
     atom    1 type  1   force =     0.00000000    0.00000000    0.00000000
     atom    2 type  2   force =     0.00015312    0.00002478    0.02069933
     atom    3 type  2   force =     0.00049960    0.00020873   -0.02083495
     atom    4 type  1   force =     0.00000000    0.00000000    0.00000000
     atom    5 type  2   force =    -0.00081630    0.00182137    0.02018115
     atom    6 type  2   force =     0.00008093   -0.00102788   -0.02080604
     atom    7 type  1   force =     0.00000000    0.00000000    0.00000000
     atom    8 type  2   force =    -0.00059411    0.00040737    0.02000661
     atom    9 type  2   force =    -0.00040217    0.00034499   -0.02094332
     atom   10 type  1   force =     0.00000000    0.00000000    0.00000000
     atom   11 type  2   force =    -0.00060779   -0.00049768    0.02055839
     atom   12 type  2   force =     0.00105926    0.00122615   -0.02075399
     atom   13 type  1   force =     0.00000000    0.00000000    0.00000000
     atom   14 type  2   force =    -0.00049032    0.00007062    0.02068710
     atom   15 type  2   force =     0.00067806    0.00036852   -0.02059231
     atom   16 type  1   force =     0.00000000    0.00000000    0.00000000
     atom   17 type  2   force =     0.00057939    0.00087341    0.01955437
     atom   18 type  2   force =     0.00047094   -0.00040993   -0.02099076
     atom   19 type  1   force =     0.00000000    0.00000000    0.00000000
     atom   20 type  2   force =     0.00014852    0.00056111   -0.02103204
     atom   21 type  1   force =     0.00000000    0.00000000    0.00000000
     atom   22 type  2   force =     0.00026111    0.00003745    0.01995947
     atom   23 type  2   force =    -0.00049385    0.00118552   -0.02077799
     atom   24 type  1   force =     0.00000000    0.00000000    0.00000000
     atom   25 type  2   force =     0.00008265   -0.00017666    0.02067699
     atom   26 type  2   force =    -0.00022655    0.00081122   -0.02095124
     atom   27 type  1   force =     0.00000000    0.00000000    0.00000000
     atom   28 type  2   force =    -0.00026220    0.00129931    0.02036192
     atom   29 type  2   force =    -0.00067914   -0.00039936   -0.02069579
     atom   30 type  1   force =     0.00000000    0.00000000    0.00000000
     atom   31 type  2   force =    -0.00164338    0.00347642   -0.01062015
     atom   32 type  2   force =     0.00007977    0.00065033   -0.02156430
     atom   33 type  1   force =     0.00000000    0.00000000    0.00000000
     atom   34 type  2   force =     0.00026009    0.00142485    0.02081684
     atom   35 type  2   force =    -0.00001697    0.00120398   -0.02116066
     atom   36 type  3   force =     0.00000000    0.00000000    0.00000000
     The Hubbard contrib.    to forces
     atom    1 type  1   force =     0.00000000    0.00000000    0.00000000
     atom    2 type  2   force =     0.00000000    0.00000000    0.00000000
     atom    3 type  2   force =     0.00000000    0.00000000    0.00000000
     atom    4 type  1   force =     0.00000000    0.00000000    0.00000000
     atom    5 type  2   force =     0.00000000    0.00000000    0.00000000
     atom    6 type  2   force =     0.00000000    0.00000000    0.00000000
     atom    7 type  1   force =     0.00000000    0.00000000    0.00000000
     atom    8 type  2   force =     0.00000000    0.00000000    0.00000000
     atom    9 type  2   force =     0.00000000    0.00000000    0.00000000
     atom   10 type  1   force =     0.00000000    0.00000000    0.00000000
     atom   11 type  2   force =     0.00000000    0.00000000    0.00000000
     atom   12 type  2   force =     0.00000000    0.00000000    0.00000000
     atom   13 type  1   force =     0.00000000    0.00000000    0.00000000
     atom   14 type  2   force =     0.00000000    0.00000000    0.00000000
     atom   15 type  2   force =     0.00000000    0.00000000    0.00000000
     atom   16 type  1   force =     0.00000000    0.00000000    0.00000000
     atom   17 type  2   force =     0.00000000    0.00000000    0.00000000
     atom   18 type  2   force =     0.00000000    0.00000000    0.00000000
     atom   19 type  1   force =     0.00000000    0.00000000    0.00000000
     atom   20 type  2   force =     0.00000000    0.00000000    0.00000000
     atom   21 type  1   force =     0.00000000    0.00000000    0.00000000
     atom   22 type  2   force =     0.00000000    0.00000000    0.00000000
     atom   23 type  2   force =     0.00000000    0.00000000    0.00000000
     atom   24 type  1   force =     0.00000000    0.00000000    0.00000000
     atom   25 type  2   force =     0.00000000    0.00000000    0.00000000
     atom   26 type  2   force =     0.00000000    0.00000000    0.00000000
     atom   27 type  1   force =     0.00000000    0.00000000    0.00000000
     atom   28 type  2   force =     0.00000000    0.00000000    0.00000000
     atom   29 type  2   force =     0.00000000    0.00000000    0.00000000
     atom   30 type  1   force =     0.00000000    0.00000000    0.00000000
     atom   31 type  2   force =     0.00000000    0.00000000    0.00000000
     atom   32 type  2   force =     0.00000000    0.00000000    0.00000000
     atom   33 type  1   force =     0.00000000    0.00000000    0.00000000
     atom   34 type  2   force =     0.00000000    0.00000000    0.00000000
     atom   35 type  2   force =     0.00000000    0.00000000    0.00000000
     atom   36 type  3   force =     0.00000000    0.00000000    0.00000000
     The SCF correction term to forces
     atom    1 type  1   force =    -0.00005740    0.00002993   -0.00007899
     atom    2 type  2   force =     0.00004271   -0.00009482   -0.00012050
     atom    3 type  2   force =     0.00003909   -0.00003866    0.00010000
     atom    4 type  1   force =     0.00001466    0.00019936   -0.00010756
     atom    5 type  2   force =     0.00010368   -0.00003551   -0.00010034
     atom    6 type  2   force =     0.00011099   -0.00002524    0.00007425
     atom    7 type  1   force =     0.00004514    0.00031264   -0.00004322
     atom    8 type  2   force =    -0.00015806    0.00008319   -0.00030840
     atom    9 type  2   force =    -0.00008984    0.00008294    0.00020667
     atom   10 type  1   force =    -0.00004943   -0.00020509    0.00012486
     atom   11 type  2   force =    -0.00001085   -0.00010651   -0.00026365
     atom   12 type  2   force =    -0.00001026   -0.00020562    0.00026184
     atom   13 type  1   force =    -0.00008367   -0.00026709    0.00001961
     atom   14 type  2   force =    -0.00001819   -0.00004822   -0.00012762
     atom   15 type  2   force =     0.00000419   -0.00002405    0.00013607
     atom   16 type  1   force =     0.00007205    0.00021167   -0.00008149
     atom   17 type  2   force =    -0.00003917   -0.00008449   -0.00013110
     atom   18 type  2   force =    -0.00008513   -0.00000547    0.00001481
     atom   19 type  1   force =     0.00017426    0.00019956   -0.00015305
     atom   20 type  2   force =     0.00007061    0.00021165    0.00017663
     atom   21 type  1   force =     0.00014612   -0.00034305    0.00006550
     atom   22 type  2   force =     0.00005834   -0.00001634   -0.00022695
     atom   23 type  2   force =    -0.00000517   -0.00008760    0.00016171
     atom   24 type  1   force =     0.00008689   -0.00017616    0.00002950
     atom   25 type  2   force =    -0.00003379   -0.00006669   -0.00022956
     atom   26 type  2   force =     0.00000619   -0.00004221    0.00016723
     atom   27 type  1   force =    -0.00010895    0.00008289   -0.00023801
     atom   28 type  2   force =    -0.00006469   -0.00005946   -0.00019288
     atom   29 type  2   force =    -0.00002118    0.00004662    0.00009142
     atom   30 type  1   force =    -0.00021268    0.00004492   -0.00033202
     atom   31 type  2   force =     0.00007435    0.00006378   -0.00011398
     atom   32 type  2   force =     0.00000464    0.00005549    0.00015624
     atom   33 type  1   force =    -0.00006322    0.00002530    0.00000974
     atom   34 type  2   force =    -0.00005673    0.00013885   -0.00024569
     atom   35 type  2   force =     0.00001410   -0.00004420    0.00014102
     atom   36 type  3   force =     0.00000455    0.00001268   -0.00007775

     Total force =     0.074717     Total SCF correction =     0.001369
     Energy error            =      1.4E-02 Ry
     Gradient error          =      2.6E-02 Ry/Bohr

     number of scf cycles    =   2
     number of bfgs steps    =   1

     energy             old  =   -2205.5644595052 Ry
     energy             new  =   -2205.5780691770 Ry

     CASE: energy            _new < energy            _old

     new trust radius        =       0.0498560952 bohr
     new conv_thr            =       0.0000000256 Ry


ATOMIC_POSITIONS (angstrom)
Mo            6.5848802693        1.7638075928        2.8271365812
S             8.1594757054        0.8286908746        4.4339376678
S             8.1778670314        0.8223618889        1.2701949831
Mo            8.1077234175        4.4949528450        2.7179512489
S             6.5005445049        3.7146675058        4.3391170009
S             6.5568655854        3.5231944673        1.1236866831
Mo            6.4973942160        7.2013206949        2.6715020081
S             8.0726896473        6.3386834242        4.2606739002
S             8.1016215034        6.3118270667        1.0977037681
Mo            8.1490885098        9.9120873720        2.8192304806
S             6.5013284224        8.9419829393        4.3751979743
S             6.6143047119        9.0519671189        1.1445390446
Mo            3.4281087638        1.7559341227        2.7690557011
S             4.9856275611        0.8169650638        4.3626887703
S             5.0429885670        0.8484178015        1.2166013404
Mo            4.9861854099        4.5209494360        2.6341773663
S             3.4384535906        3.6692452678        4.2858050599
S             3.4284201617        3.5402645457        1.0752521551
Mo            3.4705675172        7.2228768475        2.6173422811
S             4.9850187434        6.3217844382        1.0367563988
Mo            5.0067710060        9.9068270434        2.7450486369
S             3.4687665206        8.9471613576        4.3229956208
S             3.4097771315        9.0701600748        1.1043595836
Mo            0.2840700508        1.7454925715        2.8284336753
S             1.8698310425        0.8136256134        4.4047327102
S             1.8489259686        0.8540230822        1.2038425825
Mo            1.8544617264        4.4758060793        2.6679061313
S             0.2700274628        3.6490908745        4.3308618828
S             0.2362019414        3.5275294764        1.1660770313
Mo            0.2516006451        7.2324016406        2.7144198797
S             1.9198501671        6.3097990576        4.1706087512
S             1.8484234013        6.3166822141        1.0570826073
Mo            1.8579643287        9.9333867216        2.7673526615
S             0.2961238621        9.0472169610        4.3955933710
S             0.2679647283        9.0527293449        1.1658950141
H             2.0939354114        6.0686440952        5.5310009834



     Writing config-only to output data dir ./MoS2-V-O.save/
     NEW-OLD atomic charge density approx. for the potential

     negative rho (up, down):  1.430E-04 0.000E+00

     total cpu time spent up to now is      211.1 secs

     Self-consistent Calculation

     iteration #  1     ecut=    80.00 Ry     beta= 0.70
     Davidson diagonalization with overlap
     ethr =  1.00E-06,  avg # of iterations = 14.0

     negative rho (up, down):  1.233E-04 0.000E+00

     total cpu time spent up to now is      223.9 secs

     total energy              =   -2205.58487982 Ry
     estimated scf accuracy    <       0.00080966 Ry

     iteration #  2     ecut=    80.00 Ry     beta= 0.70
     Davidson diagonalization with overlap
     ethr =  2.64E-07,  avg # of iterations =  2.0

     negative rho (up, down):  1.144E-04 0.000E+00

     total cpu time spent up to now is      235.0 secs

     total energy              =   -2205.58488976 Ry
     estimated scf accuracy    <       0.00021280 Ry

     iteration #  3     ecut=    80.00 Ry     beta= 0.70
     Davidson diagonalization with overlap
     ethr =  6.93E-08,  avg # of iterations =  6.0

     negative rho (up, down):  1.119E-04 0.000E+00

     total cpu time spent up to now is      251.6 secs

     total energy              =   -2205.58491661 Ry
     estimated scf accuracy    <       0.00005340 Ry

     iteration #  4     ecut=    80.00 Ry     beta= 0.70
     Davidson diagonalization with overlap
     ethr =  1.74E-08,  avg # of iterations =  4.0

     negative rho (up, down):  1.135E-04 0.000E+00

     total cpu time spent up to now is      266.8 secs

     total energy              =   -2205.58492647 Ry
     estimated scf accuracy    <       0.00000356 Ry

     iteration #  5     ecut=    80.00 Ry     beta= 0.70
     Davidson diagonalization with overlap
     ethr =  1.16E-09,  avg # of iterations =  5.0

     negative rho (up, down):  1.166E-04 0.000E+00

     total cpu time spent up to now is      279.6 secs

     total energy              =   -2205.58492766 Ry
     estimated scf accuracy    <       0.00000135 Ry

     iteration #  6     ecut=    80.00 Ry     beta= 0.70
     Davidson diagonalization with overlap
     ethr =  4.41E-10,  avg # of iterations =  2.0

     negative rho (up, down):  1.203E-04 0.000E+00

     total cpu time spent up to now is      292.2 secs

     total energy              =   -2205.58492780 Ry
     estimated scf accuracy    <       0.00000031 Ry

     iteration #  7     ecut=    80.00 Ry     beta= 0.70
     Davidson diagonalization with overlap
     ethr =  1.02E-10,  avg # of iterations =  9.0

     negative rho (up, down):  1.224E-04 0.000E+00

     total cpu time spent up to now is      306.8 secs

     total energy              =   -2205.58492784 Ry
     estimated scf accuracy    <       0.00000007 Ry

     iteration #  8     ecut=    80.00 Ry     beta= 0.70
     Davidson diagonalization with overlap
     ethr =  2.29E-11,  avg # of iterations =  5.0

     negative rho (up, down):  1.368E-04 0.000E+00

     total cpu time spent up to now is      309.1 secs

     End of self-consistent calculation

          k = 0.0000 0.0000 0.0000 (105382 PWs)   bands (ev):

   -62.8457 -62.8254 -62.7756 -62.7677 -62.7634 -62.7483 -62.7466 -62.7360
   -62.7000 -62.5820 -62.5018 -62.4768 -37.1666 -37.0968 -37.0850 -37.0551
   -37.0415 -37.0314 -37.0231 -37.0091 -36.9876 -36.9834 -36.9728 -36.9538
   -36.9532 -36.9429 -36.9379 -36.9365 -36.9248 -36.9242 -36.9190 -36.8978
   -36.8787 -36.8646 -36.8471 -36.8248 -36.8104 -36.8019 -36.7743 -36.7537
   -36.7405 -36.7252 -36.7053 -36.6778 -36.6595 -36.6220 -36.5124 -36.4650
   -16.4619 -15.7201 -15.1019 -14.9634 -14.8000 -14.7388 -14.6654 -14.4111
   -14.3569 -14.3393 -14.2761 -14.2389 -14.2211 -14.1868 -14.1308 -14.0735
   -14.0186 -14.0048 -13.9444 -13.8392 -13.7366 -13.7345 -13.7275  -9.2293
    -7.6641  -7.3932  -7.3344  -7.2559  -7.1443  -7.1134  -7.0996  -7.0347
    -6.7670  -6.7491  -6.6965  -6.6252  -6.5165  -6.4544  -6.4254  -6.3276
    -6.2911  -6.1692  -6.1216  -5.9061  -5.8804  -5.8108  -5.7676  -5.6761
    -5.6709  -5.6442  -5.6291  -5.5781  -5.5377  -5.4712  -5.4599  -5.4098
    -5.3815  -5.3601  -5.1046  -5.0667  -5.0051  -4.9418  -4.8641  -4.8607
    -4.8281  -4.8047  -4.6040  -4.5714  -4.4264  -4.2182  -4.2017  -4.1608
    -4.1059  -3.9595  -3.9407  -3.9223  -3.7367  -3.7180  -3.6677  -3.6270
    -3.5959  -3.5135  -3.4602  -3.4455  -3.3969  -3.3812  -3.3566  -3.3007
    -3.2684  -3.1881  -3.0638  -2.8089  -2.7720  -2.7210  -2.6958  -2.6870
    -2.6409  -2.5960  -2.5744  -2.5097  -2.4701  -2.1648  -1.9489  -1.8976
    -1.8773  -0.6722  -0.6017  -0.2696  -0.1029  -0.0333  -0.0073   0.0079
     0.1650   0.2262   0.2995   0.3796   0.3860   0.4204   0.4595   0.5040
     0.5675   0.6292   0.6428   0.6884   0.7242   0.7686   0.7854   0.8342
     0.8577   0.9163   0.9415   0.9769   1.0074   1.0873   1.1089   1.2957
     1.4562

     the Fermi energy is    -0.7063 ev

!    total energy              =   -2205.58492780 Ry
     estimated scf accuracy    <       0.00000001 Ry
     smearing contrib. (-TS)   =      -0.00842240 Ry
     internal energy E=F+TS    =   -2205.57650540 Ry

     The total energy is F=E-TS. E is the sum of the following terms:
     one-electron contribution =  -18057.22553349 Ry
     hartree contribution      =    9016.24079372 Ry
     xc contribution           =    -385.40123071 Ry
     ewald contribution        =    7220.80946508 Ry

     convergence has been achieved in   8 iterations

     negative rho (up, down):  1.368E-04 0.000E+00

     Forces acting on atoms (cartesian axes, Ry/au):

     atom    1 type  1   force =    -0.00475786   -0.00087775   -0.00519692
     atom    2 type  2   force =    -0.00415433    0.00442414   -0.00194299
     atom    3 type  2   force =    -0.00842324    0.00466191   -0.01137284
     atom    4 type  1   force =     0.00440189    0.00150033    0.00144679
     atom    5 type  2   force =     0.00303139   -0.00543766   -0.00425368
     atom    6 type  2   force =     0.00226923    0.00304947    0.00303770
     atom    7 type  1   force =     0.00184740   -0.00803842    0.00183437
     atom    8 type  2   force =    -0.00426710   -0.00514521    0.01086372
     atom    9 type  2   force =     0.00980096    0.00377892    0.00476537
     atom   10 type  1   force =    -0.00030089    0.00699667    0.00097918
     atom   11 type  2   force =     0.00318860   -0.00046590   -0.00691456
     atom   12 type  2   force =    -0.00472012   -0.00038931   -0.00027175
     atom   13 type  1   force =     0.00296854    0.00015378    0.00123391
     atom   14 type  2   force =     0.00346453    0.00000091    0.00384419
     atom   15 type  2   force =    -0.00558173    0.00060172   -0.00444885
     atom   16 type  1   force =     0.00412176    0.00163910    0.00149430
     atom   17 type  2   force =     0.00634366   -0.00076751    0.00314520
     atom   18 type  2   force =    -0.00265165   -0.00184802    0.00612507
     atom   19 type  1   force =     0.00688953    0.00689706   -0.00408793
     atom   20 type  2   force =     0.00405220   -0.00320033   -0.00506721
     atom   21 type  1   force =    -0.00219569    0.00305952    0.00228886
     atom   22 type  2   force =     0.00099050    0.00013105   -0.00068411
     atom   23 type  2   force =     0.00224652    0.00343448   -0.00121678
     atom   24 type  1   force =    -0.00360238   -0.00123274   -0.00111651
     atom   25 type  2   force =     0.00570173    0.00856105   -0.00418549
     atom   26 type  2   force =    -0.00280114   -0.00111359   -0.00294332
     atom   27 type  1   force =    -0.00059675   -0.00927087    0.00167014
     atom   28 type  2   force =    -0.00135629   -0.00548670   -0.00214184
     atom   29 type  2   force =     0.00138807   -0.00004505   -0.00632380
     atom   30 type  1   force =    -0.00314691   -0.00181058    0.00647170
     atom   31 type  2   force =     0.01289422   -0.00839664    0.01943573
     atom   32 type  2   force =    -0.00831798    0.00219995    0.00929052
     atom   33 type  1   force =    -0.00047569    0.00174722    0.00405772
     atom   34 type  2   force =    -0.00296913   -0.01277647   -0.01072937
     atom   35 type  2   force =    -0.00385033    0.00630325    0.00356876
     atom   36 type  3   force =    -0.01143151    0.00716223   -0.01265531
     The non-local contrib.  to forces
     atom    1 type  1   force =    -0.00022266    0.02564205   -0.01111253
     atom    2 type  2   force =    -0.00227625   -0.00728401   -0.26752036
     atom    3 type  2   force =    -0.00874726   -0.00860581    0.26286130
     atom    4 type  1   force =    -0.00619179    0.00846749    0.00422099
     atom    5 type  2   force =     0.01025136   -0.03312391   -0.25320991
     atom    6 type  2   force =     0.00077393    0.00563390    0.26547345
     atom    7 type  1   force =    -0.03971518   -0.00645111   -0.02160757
     atom    8 type  2   force =     0.01005827   -0.00423347   -0.24901117
     atom    9 type  2   force =     0.00719225   -0.00735748    0.27111866
     atom   10 type  1   force =    -0.00363124    0.00557326   -0.00147700
     atom   11 type  2   force =     0.01096220    0.00299236   -0.26159213
     atom   12 type  2   force =    -0.01390296   -0.01720098    0.26162062
     atom   13 type  1   force =     0.00677889    0.02028792   -0.01028105
     atom   14 type  2   force =     0.00550411   -0.01051102   -0.26596429
     atom   15 type  2   force =    -0.00880090   -0.00634357    0.26193650
     atom   16 type  1   force =    -0.00556195    0.04963770   -0.01732835
     atom   17 type  2   force =    -0.00564765   -0.02048358   -0.24202780
     atom   18 type  2   force =    -0.00650255   -0.00049594    0.26983505
     atom   19 type  1   force =     0.03913053   -0.01171943   -0.00265607
     atom   20 type  2   force =     0.00152024   -0.01571920    0.25877633
     atom   21 type  1   force =     0.00392172    0.02261741    0.00331336
     atom   22 type  2   force =    -0.00265183   -0.00465360   -0.24982133
     atom   23 type  2   force =     0.00670729   -0.01551870    0.26038133
     atom   24 type  1   force =     0.00021324    0.01284200   -0.01132592
     atom   25 type  2   force =     0.00055985   -0.00380016   -0.26724380
     atom   26 type  2   force =     0.00294944   -0.01481713    0.26700453
     atom   27 type  1   force =     0.00254713   -0.00195823   -0.00188741
     atom   28 type  2   force =     0.00315940   -0.02164880   -0.26320536
     atom   29 type  2   force =     0.00642804   -0.00279920    0.26359151
     atom   30 type  1   force =    -0.01269155    0.01959935   -0.00536072
     atom   31 type  2   force =     0.01414013   -0.04689268    0.28356832
     atom   32 type  2   force =    -0.00324881   -0.01181353    0.28818781
     atom   33 type  1   force =     0.00060374    0.00890410    0.00360241
     atom   34 type  2   force =    -0.00317646   -0.02440262   -0.26850101
     atom   35 type  2   force =    -0.00154146   -0.01461621    0.26798837
     atom   36 type  3   force =    -0.00842396    0.01086220   -0.05745640
     The ionic contribution  to forces
     atom    1 type  1   force =    -0.08622444    0.73867689    5.75529292
     atom    2 type  2   force =    -0.30958750    0.15278560   39.45247901
     atom    3 type  2   force =    -0.12147493    0.01922097  -36.36551798
     atom    4 type  1   force =    -0.20531434    0.43085376    0.62200427
     atom    5 type  2   force =    -0.95308042    1.40278391   38.59125993
     atom    6 type  2   force =     0.27302388   -0.58380459  -37.89142263
     atom    7 type  1   force =    -2.75401135   -2.40349919    2.52013105
     atom    8 type  2   force =    -1.10886740   -0.01684970   37.68183553
     atom    9 type  2   force =     0.30580188   -0.08181217  -38.01792967
     atom   10 type  1   force =    -0.72784804   -0.20315466    5.03187190
     atom   11 type  2   force =    -0.51557041   -1.54424061   39.05065346
[...]
     atom   27 type  1   force =     0.00275598   -0.01187693   -0.00927416
     atom   28 type  2   force =     0.00554544   -0.00912855   -0.26080294
     atom   29 type  2   force =     0.00126740   -0.01229806    0.26647571
     atom   30 type  1   force =    -0.01712185    0.02459909   -0.00283309
     atom   31 type  2   force =    -0.01477406   -0.02155654    0.27056851
     atom   32 type  2   force =     0.00530130   -0.01646487    0.28917312
     atom   33 type  1   force =    -0.00043070    0.00639715    0.00388621
     atom   34 type  2   force =     0.00049908   -0.01835396   -0.26238896
     atom   35 type  2   force =     0.00044251   -0.01608684    0.26688372
     atom   36 type  3   force =     0.00129725    0.00463283   -0.06290808
     The ionic contribution  to forces
     atom    1 type  1   force =    -0.02319904    0.85218083    1.66220476
     atom    2 type  2   force =    -0.20734854    0.14685353   38.94861549
     atom    3 type  2   force =     0.15028251   -0.17126095  -37.58160301
     atom    4 type  1   force =    -0.03531693    0.93844234    0.76527076
     atom    5 type  2   force =    -0.95794599    1.24977049   38.19731141
     atom    6 type  2   force =     0.32162856   -0.14312592  -38.26714994
     atom    7 type  1   force =    -2.00959451   -2.40533243    4.40394398
     atom    8 type  2   force =    -1.14666337    0.01143870   38.34305338
     atom    9 type  2   force =     0.37275909    0.09097018  -37.46964370
     atom   10 type  1   force =    -0.40588416   -0.67496330    3.46450992
     atom   11 type  2   force =    -0.33228572   -1.39394488   38.78077727
     atom   12 type  2   force =     0.41305212    0.07570625  -37.71868861
     atom   13 type  1   force =     0.02607679    0.79262186    1.99012322
     atom   14 type  2   force =     0.02243702    0.14242519   38.64418135
     atom   15 type  2   force =     0.06230065   -0.04723588  -37.95780136
     atom   16 type  1   force =    -0.69786675    4.03684940   -0.27696215
     atom   17 type  2   force =     0.98491465    1.45937627   38.14767989
     atom   18 type  2   force =    -0.23307251    0.08545186  -38.22919101
     atom   19 type  1   force =     1.24081928   -3.86199563    1.76878829
     atom   20 type  2   force =    -0.15482270   -0.23384244  -38.72408638
     atom   21 type  1   force =     0.40822194   -0.13135317    0.69255625
     atom   22 type  2   force =     0.21917120   -1.41676763   38.99466957
     atom   23 type  2   force =    -0.49614946    0.20782945  -38.45981310
     atom   24 type  1   force =    -0.07198275    0.27819305    2.54742648
     atom   25 type  2   force =     0.21291520    0.16867935   38.88864093
     atom   26 type  2   force =    -0.17812404   -0.08882790  -37.51057315
     atom   27 type  1   force =     0.58354628    1.83730078    0.70767714
     atom   28 type  2   force =    -0.03545480    0.62206407   38.46909167
     atom   29 type  2   force =    -0.03134569    0.20103537  -37.84752303
     atom   30 type  1   force =     0.44113946   -1.17301374    3.03073484
     atom   31 type  2   force =     1.46637331    0.09863776   34.85382756
     atom   32 type  2   force =    -0.22713763   -0.04016262  -36.59321510
     atom   33 type  1   force =     0.04378003   -0.81869499    3.04205727
     atom   34 type  2   force =     0.07573069   -0.49041275   39.03596897
     atom   35 type  2   force =     0.05939527   -0.10948311  -37.34795510
     atom   36 type  3   force =     0.13965052   -0.09540939    8.60509526
     The local contribution  to forces
     atom    1 type  1   force =     0.02675678   -0.87951602   -1.65980986
     atom    2 type  2   force =     0.20453295   -0.13429692  -38.70606906
     atom    3 type  2   force =    -0.14773255    0.18237277   37.33535615
     atom    4 type  1   force =     0.03790456   -0.94776533   -0.76919364
     atom    5 type  2   force =     0.95142917   -1.22595219  -37.96382002
     atom    6 type  2   force =    -0.32055192    0.14705796   38.02340618
     atom    7 type  1   force =     2.04740134    2.42201286   -4.37061626
     atom    8 type  2   force =     1.13271163   -0.01205160  -38.10993030
     atom    9 type  2   force =    -0.36840088   -0.07452413   37.22554461
     atom   10 type  1   force =     0.40987264    0.66928456   -3.46733302
     atom   11 type  2   force =     0.32564056    1.39932313  -38.54047087
     atom   12 type  2   force =    -0.40083303   -0.06808893   37.47459571
     atom   13 type  1   force =    -0.03156922   -0.81442620   -1.98032977
     atom   14 type  2   force =    -0.02006956   -0.13159705  -38.40014107
     atom   15 type  2   force =    -0.06101659    0.05367070   37.71853302
     atom   16 type  1   force =     0.70303358   -4.08739042    0.28666024
     atom   17 type  2   force =    -0.96996887   -1.44315807  -37.92240200
     atom   18 type  2   force =     0.23053607   -0.08015262   37.98497767
     atom   19 type  1   force =    -1.28756652    3.87831327   -1.75698066
     atom   20 type  2   force =     0.15446100    0.24631642   38.48499761
     atom   21 type  1   force =    -0.40977168    0.11152114   -0.69397485
     atom   22 type  2   force =    -0.21161569    1.42195912  -38.76630496
     atom   23 type  2   force =     0.48892391   -0.19997838   38.22284086
     atom   24 type  1   force =     0.07510730   -0.29015940   -2.54203017
     atom   25 type  2   force =    -0.21073346   -0.15669692  -38.64407738
     atom   26 type  2   force =     0.17595542    0.10176240   37.26217363
     atom   27 type  1   force =    -0.58672663   -1.82692258   -0.69828406
     atom   28 type  2   force =     0.02951075   -0.61297843  -38.22940497
     atom   29 type  2   force =     0.02997289   -0.18841752   37.60202273
     atom   30 type  1   force =    -0.42508857    1.14946605   -3.02771878
     atom   31 type  2   force =    -1.45325080   -0.07847740  -35.11258769
     atom   32 type  2   force =     0.22218106    0.05492541   36.32574164
     atom   33 type  1   force =    -0.04277715    0.81137419   -3.04578941
     atom   34 type  2   force =    -0.07608283    0.50726118  -38.79395602
     atom   35 type  2   force =    -0.05903236    0.12341511   37.10227805
     atom   36 type  3   force =    -0.14178402    0.09171488   -8.54279708
     The core correction contribution to forces
     atom    1 type  1   force =     0.00000000    0.00000000    0.00000000
     atom    2 type  2   force =    -0.00026458    0.00059742    0.02065720
     atom    3 type  2   force =     0.00014839    0.00035840   -0.02092419
     atom    4 type  1   force =     0.00000000    0.00000000    0.00000000
     atom    5 type  2   force =    -0.00063103    0.00115593    0.02021708
     atom    6 type  2   force =     0.00039696   -0.00015011   -0.02076456
     atom    7 type  1   force =     0.00000000    0.00000000    0.00000000
     atom    8 type  2   force =    -0.00097097    0.00007016    0.02010997
     atom    9 type  2   force =     0.00023547    0.00095961   -0.02073328
     atom   10 type  1   force =     0.00000000    0.00000000    0.00000000
     atom   11 type  2   force =    -0.00029577    0.00014942    0.02048473
     atom   12 type  2   force =     0.00090019    0.00042794   -0.02072148
     atom   13 type  1   force =     0.00000000    0.00000000    0.00000000
     atom   14 type  2   force =     0.00018035    0.00026013    0.02079626
     atom   15 type  2   force =     0.00003730    0.00025082   -0.02062771
     atom   16 type  1   force =     0.00000000    0.00000000    0.00000000
     atom   17 type  2   force =     0.00139920    0.00069908    0.01973910
     atom   18 type  2   force =    -0.00011288    0.00004002   -0.02088396
     atom   19 type  1   force =     0.00000000    0.00000000    0.00000000
     atom   20 type  2   force =    -0.00001793    0.00040736   -0.02106975
     atom   21 type  1   force =     0.00000000    0.00000000    0.00000000
     atom   22 type  2   force =     0.00032757    0.00029631    0.02004161
     atom   23 type  2   force =    -0.00077139    0.00092776   -0.02070859
     atom   24 type  1   force =     0.00000000    0.00000000    0.00000000
     atom   25 type  2   force =     0.00021052    0.00065589    0.02066512
     atom   26 type  2   force =    -0.00017517    0.00057722   -0.02096784
     atom   27 type  1   force =     0.00000000    0.00000000    0.00000000
     atom   28 type  2   force =    -0.00049273    0.00039204    0.02044719
     atom   29 type  2   force =    -0.00017664    0.00048137   -0.02088077
     atom   30 type  1   force =     0.00000000    0.00000000    0.00000000
     atom   31 type  2   force =     0.00120314    0.00160411   -0.01137290
     atom   32 type  2   force =    -0.00024285    0.00088898   -0.02150397
     atom   33 type  1   force =     0.00000000    0.00000000    0.00000000
     atom   34 type  2   force =    -0.00006255    0.00115659    0.02058770
     atom   35 type  2   force =     0.00001516    0.00095524   -0.02102453
     atom   36 type  3   force =     0.00000000    0.00000000    0.00000000
     The Hubbard contrib.    to forces
     atom    1 type  1   force =     0.00000000    0.00000000    0.00000000
     atom    2 type  2   force =     0.00000000    0.00000000    0.00000000
     atom    3 type  2   force =     0.00000000    0.00000000    0.00000000
     atom    4 type  1   force =     0.00000000    0.00000000    0.00000000
     atom    5 type  2   force =     0.00000000    0.00000000    0.00000000
     atom    6 type  2   force =     0.00000000    0.00000000    0.00000000
     atom    7 type  1   force =     0.00000000    0.00000000    0.00000000
     atom    8 type  2   force =     0.00000000    0.00000000    0.00000000
     atom    9 type  2   force =     0.00000000    0.00000000    0.00000000
     atom   10 type  1   force =     0.00000000    0.00000000    0.00000000
     atom   11 type  2   force =     0.00000000    0.00000000    0.00000000
     atom   12 type  2   force =     0.00000000    0.00000000    0.00000000
     atom   13 type  1   force =     0.00000000    0.00000000    0.00000000
     atom   14 type  2   force =     0.00000000    0.00000000    0.00000000
     atom   15 type  2   force =     0.00000000    0.00000000    0.00000000
     atom   16 type  1   force =     0.00000000    0.00000000    0.00000000
     atom   17 type  2   force =     0.00000000    0.00000000    0.00000000
     atom   18 type  2   force =     0.00000000    0.00000000    0.00000000
     atom   19 type  1   force =     0.00000000    0.00000000    0.00000000
     atom   20 type  2   force =     0.00000000    0.00000000    0.00000000
     atom   21 type  1   force =     0.00000000    0.00000000    0.00000000
     atom   22 type  2   force =     0.00000000    0.00000000    0.00000000
     atom   23 type  2   force =     0.00000000    0.00000000    0.00000000
     atom   24 type  1   force =     0.00000000    0.00000000    0.00000000
     atom   25 type  2   force =     0.00000000    0.00000000    0.00000000
     atom   26 type  2   force =     0.00000000    0.00000000    0.00000000
     atom   27 type  1   force =     0.00000000    0.00000000    0.00000000
     atom   28 type  2   force =     0.00000000    0.00000000    0.00000000
     atom   29 type  2   force =     0.00000000    0.00000000    0.00000000
     atom   30 type  1   force =     0.00000000    0.00000000    0.00000000
     atom   31 type  2   force =     0.00000000    0.00000000    0.00000000
     atom   32 type  2   force =     0.00000000    0.00000000    0.00000000
     atom   33 type  1   force =     0.00000000    0.00000000    0.00000000
     atom   34 type  2   force =     0.00000000    0.00000000    0.00000000
     atom   35 type  2   force =     0.00000000    0.00000000    0.00000000
     atom   36 type  3   force =     0.00000000    0.00000000    0.00000000
     The SCF correction term to forces
     atom    1 type  1   force =     0.00003191    0.00003614    0.00008235
     atom    2 type  2   force =     0.00000982   -0.00000202    0.00002306
     atom    3 type  2   force =     0.00000485    0.00000370    0.00001793
     atom    4 type  1   force =     0.00005566    0.00004196    0.00005492
     atom    5 type  2   force =     0.00001542    0.00000580    0.00003900
     atom    6 type  2   force =     0.00001368    0.00002179   -0.00000022
     atom    7 type  1   force =     0.00002998   -0.00000776    0.00004143
     atom    8 type  2   force =     0.00003604    0.00001180    0.00003193
     atom    9 type  2   force =     0.00001542    0.00001319    0.00001268
     atom   10 type  1   force =     0.00001972   -0.00007449    0.00007294
     atom   11 type  2   force =     0.00000948   -0.00001441    0.00002491
     atom   12 type  2   force =     0.00000605   -0.00002896    0.00001101
     atom   13 type  1   force =    -0.00005612    0.00005679    0.00007217
     atom   14 type  2   force =     0.00001275   -0.00000147    0.00003771
     atom   15 type  2   force =     0.00000104   -0.00000728   -0.00000341
     atom   16 type  1   force =    -0.00001656    0.00005559    0.00004616
     atom   17 type  2   force =    -0.00001457    0.00001155    0.00001899
     atom   18 type  2   force =    -0.00000868    0.00002375    0.00002008
     atom   19 type  1   force =    -0.00003359   -0.00001107    0.00003195
     atom   20 type  2   force =    -0.00001220    0.00001431    0.00000344
     atom   21 type  1   force =     0.00002121   -0.00008450    0.00005859
     atom   22 type  2   force =    -0.00001092   -0.00002989    0.00002897
     atom   23 type  2   force =    -0.00000887   -0.00003333    0.00000154
     atom   24 type  1   force =    -0.00002403    0.00004755    0.00005806
     atom   25 type  2   force =    -0.00001488   -0.00000450    0.00004516
     atom   26 type  2   force =    -0.00000043    0.00000310   -0.00000288
     atom   27 type  1   force =    -0.00001644    0.00004149    0.00005547
     atom   28 type  2   force =     0.00000178    0.00002665    0.00002703
     atom   29 type  2   force =    -0.00000584    0.00002194    0.00001772
     atom   30 type  1   force =    -0.00001336    0.00000593    0.00007851
     atom   31 type  2   force =    -0.00002761    0.00002068    0.00005577
     atom   32 type  2   force =    -0.00000896    0.00000962   -0.00000192
     atom   33 type  1   force =    -0.00005501   -0.00007729    0.00006913
     atom   34 type  2   force =     0.00000610   -0.00004104    0.00003514
     atom   35 type  2   force =    -0.00000164   -0.00004262    0.00001329
     atom   36 type  3   force =    -0.00000343    0.00000168    0.00000023

     Total force =     0.006232     Total SCF correction =     0.000349
     Energy error            =      8.1E-05 Ry
     Gradient error          =      1.5E-03 Ry/Bohr

     bfgs converged in  19 scf cycles and  18 bfgs steps
     (criteria: energy <  1.0E-04 Ry, force <  1.0E-02 Ry/Bohr)

     End of BFGS Geometry Optimization

     Final energy             =   -2205.5992646288 Ry

     File ./MoS2-V-O.bfgs deleted, as requested
Begin final coordinates

ATOMIC_POSITIONS (angstrom)
Mo            6.5697323832        1.7498209281        2.7451735824
S             8.1251661134        0.8433063563        4.3727755189
S             8.1482190857        0.8202151826        1.1767604705
Mo            8.1464977778        4.4845332288        2.7231997640
S             6.5369652214        3.6545759476        4.2987092714
S             6.5941036141        3.5550796722        1.1009321684
Mo            6.4857524540        7.1743827635        2.7092651928
S             8.0582748630        6.2948009124        4.3268144078
S             8.1389749381        6.3290998017        1.1457836552
Mo            8.1345650831        9.9276798101        2.7864602936
S             6.5046165718        8.9604580174        4.3498206817
S             6.5913648856        9.0156081048        1.1466348905
Mo            3.4364835178        1.7454412388        2.7495473603
S             5.0086761045        0.8274921286        4.3365575933
S             4.9997744296        0.8383643484        1.1460478958
Mo            5.0178837922        4.5064526594        2.6228521505
S             3.5043977849        3.6409619936        4.3027937668
S             3.4258162689        3.5435497622        1.1020164450
Mo            3.5422328707        7.2747776339        2.6650231740
S             4.9993954948        6.3142497767        1.0401513890
Mo            4.9949758912        9.9279000291        2.7291697868
S             3.4865042505        8.9999128631        4.3529957575
S             3.4013726436        9.0661603122        1.1104382693
Mo            0.2614779992        1.7358014674        2.7743568530
S             1.8594249384        0.8483136355        4.3698811031
S             1.8423504511        0.8343673275        1.1808723052
Mo            1.8698501151        4.4278058014        2.7244053049
S             0.2688499359        3.5846062122        4.3379420289
S             0.2753811088        3.5419828784        1.1433776526
Mo            0.2431693688        7.2248687912        2.7708506158
S             1.9495951613        6.3078365148        4.2095863335
S             1.8585420039        6.3217632986        1.1774730829
Mo            1.8513492422        9.9357063902        2.7776428677
S             0.2626254443        9.0407238515        4.3824995756
S             0.2589333641        9.0427239534        1.1918516357
H             1.9205540615        6.2112339279        5.5740986927
End final coordinates



     Writing all to output data dir ./MoS2-V-O.save/
 
     init_run     :      3.07s CPU      3.37s WALL (       1 calls)
     electrons    :   1652.04s CPU   1841.54s WALL (      19 calls)
     update_pot   :     25.46s CPU     27.07s WALL (      18 calls)
     forces       :     25.90s CPU     30.23s WALL (      19 calls)

     Called by init_run:
     wfcinit      :      0.38s CPU      0.44s WALL (       1 calls)
     potinit      :      2.01s CPU      2.14s WALL (       1 calls)
     hinit0       :      0.16s CPU      0.18s WALL (       1 calls)

     Called by electrons:
     c_bands      :    215.53s CPU    219.15s WALL (     162 calls)
     sum_band     :     48.57s CPU     62.65s WALL (     162 calls)
     v_of_rho     :     69.60s CPU     85.07s WALL (     166 calls)
     newd         :     22.03s CPU     35.00s WALL (     166 calls)
     mix_rho      :   1304.95s CPU   1448.95s WALL (     162 calls)

     Called by c_bands:
     init_us_2    :      3.44s CPU      3.74s WALL (     325 calls)
     init_us_2:cp :      3.44s CPU      3.73s WALL (     325 calls)
     regterg      :    203.36s CPU    206.67s WALL (     162 calls)

     Called by *egterg:
     rdiaghg      :     15.41s CPU     15.63s WALL (     878 calls)
     h_psi        :    111.02s CPU    112.01s WALL (     912 calls)
     s_psi        :     13.48s CPU     13.53s WALL (     912 calls)
     g_psi        :      1.25s CPU      1.26s WALL (     749 calls)

     Called by h_psi:
     h_psi:calbec :     16.19s CPU     16.28s WALL (     912 calls)
     vloc_psi     :     78.93s CPU     79.74s WALL (     912 calls)
     add_vuspsi   :     13.52s CPU     13.60s WALL (     912 calls)

     General routines
     calbec       :     22.97s CPU     23.09s WALL (    1150 calls)
     fft          :     46.24s CPU     54.27s WALL (   11242 calls)
     ffts         :    587.31s CPU    726.52s WALL (  319852 calls)
     fftw         :     67.53s CPU     68.12s WALL (   99448 calls)
     interpolate  :      1.19s CPU      1.43s WALL (     166 calls)
 
     Parallel routines
 
     PWSCF        :  28m29.74s CPU  31m48.12s WALL

 
   This run was terminated on:   4:29:32   4Nov2023            

=------------------------------------------------------------------------------=
   JOB DONE.
=------------------------------------------------------------------------------=
