
     Program PWSCF v.7.2 starts on  4Nov2023 at  8:50:58 

     This program is part of the open-source Quantum ESPRESSO suite
     for quantum simulation of materials; please cite
         "P. Giannozzi et al., J. Phys.:Condens. Matter 21 395502 (2009);
         "P. Giannozzi et al., J. Phys.:Condens. Matter 29 465901 (2017);
         "P. Giannozzi et al., J. Chem. Phys. 152 154105 (2020);
          URL http://www.quantum-espresso.org", 
     in publications or presentations arising from this work. More details at
     http://www.quantum-espresso.org/quote

     Parallel version (MPI & OpenMP), running on      48 processor cores
     Number of MPI processes:                48
     Threads/MPI process:                     1

     MPI processes distributed on     1 nodes
     87202 MiB available memory on the printing compute node when the environment starts
 
     Waiting for input...
     Reading input from standard input
Warning: card &CELL ignored
Warning: card CELL_DYNAMICS = 'BFGS', ignored
Warning: card CELL_DOFREE = '2DXY' ignored
Warning: card / ignored

     Current dimensions of program PWSCF are:
     Max number of different atomic species (ntypx) = 10
     Max number of k-points (npk) =  40000
     Max angular momentum in pseudopotentials (lmaxx) =  4

     IMPORTANT: XC functional enforced from input :
     Exchange-correlation= RVV10
                           (   1   4  13   4  26   0   0)
     Any further DFT definition will be discarded
     Please, verify this is what you really want


     gamma-point specific algorithms are used
     signal trapping enabled: kill the code with -SIGUSR1 to stop cleanly the simulation 
 
     R & G space division:  proc/nbgrp/npool/nimage =      48
     Subspace diagonalization in iterative solution of the eigenvalue problem:
     one sub-group per band group will be used
     scalapack distributed-memory algorithm (size of sub-group:  2*  2 procs)

 
     Parallelization info
     --------------------
     sticks:   dense  smooth     PW     G-vecs:    dense   smooth      PW
     Min         243     194     47                49060    35090    4376
     Max         246     196     50                49086    35128    4410
     Sum       11735    9389   2349              2355467  1685513  210763
 
     Using Slab Decomposition
 


     bravais-lattice index     =            0
     lattice parameter (alat)  =      17.8707  a.u.
     unit-cell volume          =   17436.2743 (a.u.)^3
     number of atoms/cell      =           36
     number of atomic types    =            3
     number of electrons       =       307.00
     number of Kohn-Sham states=          185
     kinetic-energy cutoff     =      80.0000  Ry
     charge density cutoff     =     400.0000  Ry
     scf convergence threshold =      1.0E-06
     mixing beta               =       0.7000
     number of iterations used =            8  local-TF  mixing
     energy convergence thresh.=      1.0E-04
     force convergence thresh. =      1.0E-02
     Exchange-correlation= RVV10
                           (   1   4  13   4  26   0   0)
     nstep                     =          200


     celldm(1)=  17.870686  celldm(2)=   0.000000  celldm(3)=   0.000000
     celldm(4)=   0.000000  celldm(5)=   0.000000  celldm(6)=   0.000000

     crystal axes: (cart. coord. in units of alat)
               a(1) = (   1.000000   0.000000   0.000000 )  
               a(2) = (   0.000000   1.155671   0.000000 )  
               a(3) = (   0.000000   0.000000   2.643601 )  

     reciprocal axes: (cart. coord. in units 2 pi/alat)
               b(1) = (  1.000000  0.000000  0.000000 )  
               b(2) = (  0.000000  0.865298  0.000000 )  
               b(3) = (  0.000000  0.000000  0.378272 )  


     PseudoPot. # 1 for Mo read from file:
     ../pseudo/Mo_ONCV_PBE-1.0.oncvpsp.upf
     MD5 check sum: 1b5d28e075c9ccadda658a603575cd1f
     Pseudo is Norm-conserving, Zval = 14.0
     Generated using ONCVPSP code by D. R. Hamann
     Using radial grid of 1526 points,  6 beta functions with: 
                l(1) =   0
                l(2) =   0
                l(3) =   1
                l(4) =   1
                l(5) =   2
                l(6) =   2

     PseudoPot. # 2 for S  read from file:
     ../pseudo/s_pbe_v1.4.uspp.F.UPF
     MD5 check sum: 88d86576ff6df21479756cfb9bdac1df
     Pseudo is Ultrasoft + core correction, Zval =  6.0
     Generated by new atomic code, or converted to UPF format
     Using radial grid of  907 points,  6 beta functions with: 
                l(1) =   0
                l(2) =   0
                l(3) =   1
                l(4) =   1
                l(5) =   2
                l(6) =   2
     Q(r) pseudized with  8 coefficients,  rinner =    1.300   1.300   1.300
                                                       1.300   1.300

     PseudoPot. # 3 for H  read from file:
     ../pseudo/H_ONCV_PBE-1.0.oncvpsp.upf
     MD5 check sum: 1790becc920ee074925cf490c71280fe
     Pseudo is Norm-conserving, Zval =  1.0
     Generated using ONCVPSP code by D. R. Hamann
     Using radial grid of 1166 points,  2 beta functions with: 
                l(1) =   0
                l(2) =   0

     atomic species   valence    mass     pseudopotential
        Mo            14.00    95.94000     Mo( 1.00)
        S              6.00    32.06500     S ( 1.00)
        H              1.00     1.00794     H ( 1.00)

     No symmetry found



   Cartesian axes

     site n.     atom                  positions (alat units)
         1           Mo  tau(   1) = (   0.6952221   0.1890506   0.2985846  )
         2           S   tau(   2) = (   0.8646417   0.0856217   0.4689279  )
         3           S   tau(   3) = (   0.8663890   0.0857843   0.1351291  )
         4           Mo  tau(   4) = (   0.8560186   0.4753274   0.2873942  )
         5           S   tau(   5) = (   0.6873294   0.3936244   0.4596353  )
         6           S   tau(   6) = (   0.6929804   0.3713468   0.1185692  )
         7           Mo  tau(   7) = (   0.6862796   0.7633098   0.2825370  )
         8           S   tau(   8) = (   0.8545980   0.6708292   0.4486168  )
         9           S   tau(   9) = (   0.8545123   0.6666874   0.1146125  )
        10           Mo  tau(  10) = (   0.8629403   1.0471007   0.3006803  )
        11           S   tau(  11) = (   0.6868280   0.9456650   0.4634891  )
        12           S   tau(  12) = (   0.6998113   0.9568511   0.1205389  )
        13           Mo  tau(  13) = (   0.3618216   0.1847309   0.2935964  )
        14           S   tau(  14) = (   0.5260962   0.0863870   0.4600448  )
        15           S   tau(  15) = (   0.5348379   0.0894875   0.1297123  )
        16           Mo  tau(  16) = (   0.5265817   0.4772436   0.2784130  )
        17           S   tau(  17) = (   0.3624753   0.3882513   0.4525556  )
        18           S   tau(  18) = (   0.3635411   0.3752055   0.1119148  )
        19           Mo  tau(  19) = (   0.3652268   0.7630864   0.2781795  )
        20           S   tau(  20) = (   0.5269494   0.6690381   0.1096838  )
        21           Mo  tau(  21) = (   0.5300192   1.0470394   0.2900995  )
        22           S   tau(  22) = (   0.3670346   0.9457522   0.4574073  )
        23           S   tau(  23) = (   0.3604225   0.9585725   0.1159032  )
        24           Mo  tau(  24) = (   0.0313099   0.1847895   0.3013130  )
        25           S   tau(  25) = (   0.1956761   0.0838230   0.4650863  )
        26           S   tau(  26) = (   0.1967693   0.0903508   0.1278874  )
        27           Mo  tau(  27) = (   0.1967578   0.4753919   0.2813011  )
        28           S   tau(  28) = (   0.0287851   0.3864324   0.4586755  )
        29           S   tau(  29) = (   0.0244514   0.3729871   0.1239344  )
        30           Mo  tau(  30) = (   0.0286728   0.7631204   0.2856894  )
        31           S   tau(  31) = (   0.2011512   0.6675435   0.4465001  )
        32           S   tau(  32) = (   0.1969214   0.6672839   0.1104564  )
        33           Mo  tau(  33) = (   0.1950294   1.0511147   0.2932237  )
        34           S   tau(  34) = (   0.0312912   0.9612169   0.4667423  )
        35           S   tau(  35) = (   0.0292670   0.9563028   0.1216485  )
        36           H   tau(  36) = (   0.1111111   1.0272628   0.5792558  )

     number of k points=     1  Gaussian smearing, width (Ry)=  0.0100
                       cart. coord. in units 2pi/alat
        k(    1) = (   0.0000000   0.0000000   0.0000000), wk =   2.0000000

     Dense  grid:  1177734 G-vectors     FFT dimensions: ( 120, 135, 320)

     Smooth grid:   842757 G-vectors     FFT dimensions: ( 108, 120, 270)

     Estimated max dynamical RAM per process >     146.59 MB

     Estimated total dynamical RAM >       6.87 GB

     Initial potential from superposition of free atoms

     starting charge     306.9873, renormalised to     307.0000

     negative rho (up, down):  1.406E-04 0.000E+00


---------------------------------------------------------------------------------
Carrying out rVV10 run using the following parameters:
Nqs =      20    Nr_points =    1024   r_max =   100.000
b_value =  6.30000    beta =  0.00901
     q_mesh =  0.00010000  0.00030000  0.00058939  0.00100810
               0.00161396  0.00249058  0.00375900  0.00559430
               0.00824984  0.01209221  0.01765183  0.02569619
               0.03733578  0.05417739  0.07854596  0.11380545
               0.16482331  0.23864234  0.34545298  0.50000000

Gradients computed in Reciprocal space

---------------------------------------------------------------------------------


     Starting wfcs are  213 randomized atomic wfcs

     total cpu time spent up to now is        2.7 secs

     Self-consistent Calculation

     iteration #  1     ecut=    80.00 Ry     beta= 0.70
     Davidson diagonalization with overlap
     ethr =  1.00E-02,  avg # of iterations =  2.0

     Threshold (ethr) on eigenvalues was too large:
     Diagonalizing with lowered threshold

     Davidson diagonalization with overlap
     ethr =  3.97E-04,  avg # of iterations =  4.0

     negative rho (up, down):  1.953E-08 0.000E+00

     total cpu time spent up to now is       26.2 secs

     total energy              =   -2205.61416588 Ry
     estimated scf accuracy    <       1.50536487 Ry

     iteration #  2     ecut=    80.00 Ry     beta= 0.70
     Davidson diagonalization with overlap
     ethr =  4.90E-04,  avg # of iterations =  4.0

     total cpu time spent up to now is       28.7 secs

     total energy              =   -2205.49344634 Ry
     estimated scf accuracy    <       0.60015861 Ry

     iteration #  3     ecut=    80.00 Ry     beta= 0.70
     Davidson diagonalization with overlap
     ethr =  1.95E-04,  avg # of iterations =  2.0

     total cpu time spent up to now is       31.0 secs

     total energy              =   -2205.52392741 Ry
     estimated scf accuracy    <       0.23026040 Ry

     iteration #  4     ecut=    80.00 Ry     beta= 0.70
     Davidson diagonalization with overlap
     ethr =  7.50E-05,  avg # of iterations =  8.0

     total cpu time spent up to now is       33.5 secs

     total energy              =   -2205.54638279 Ry
     estimated scf accuracy    <       0.03883447 Ry

     iteration #  5     ecut=    80.00 Ry     beta= 0.70
     Davidson diagonalization with overlap
     c_bands:  1 eigenvalues not converged
     ethr =  1.26E-05,  avg # of iterations = 20.0

     total cpu time spent up to now is       36.5 secs

     total energy              =   -2205.54723951 Ry
     estimated scf accuracy    <       0.02108921 Ry

     iteration #  6     ecut=    80.00 Ry     beta= 0.70
     Davidson diagonalization with overlap
     ethr =  6.87E-06,  avg # of iterations =  2.0

     total cpu time spent up to now is       38.6 secs

     total energy              =   -2205.54636578 Ry
     estimated scf accuracy    <       0.01354350 Ry

     iteration #  7     ecut=    80.00 Ry     beta= 0.70
     Davidson diagonalization with overlap
     ethr =  4.41E-06,  avg # of iterations =  2.0

     negative rho (up, down):  1.562E-07 0.000E+00

     total cpu time spent up to now is       42.7 secs

     total energy              =   -2205.54416472 Ry
     estimated scf accuracy    <       0.00851247 Ry

     iteration #  8     ecut=    80.00 Ry     beta= 0.70
     Davidson diagonalization with overlap
     ethr =  2.77E-06,  avg # of iterations =  8.0

     negative rho (up, down):  1.205E-02 0.000E+00

     total cpu time spent up to now is       46.9 secs

     total energy              =   -2205.54403501 Ry
     estimated scf accuracy    <       0.00396375 Ry

     iteration #  9     ecut=    80.00 Ry     beta= 0.70
     Davidson diagonalization with overlap
     ethr =  1.29E-06,  avg # of iterations =  2.0

     negative rho (up, down):  2.930E-02 0.000E+00

     total cpu time spent up to now is       50.9 secs

     total energy              =   -2205.54380306 Ry
     estimated scf accuracy    <       0.00234931 Ry

     iteration # 10     ecut=    80.00 Ry     beta= 0.70
     Davidson diagonalization with overlap
     ethr =  7.65E-07,  avg # of iterations =  2.0

     negative rho (up, down):  3.094E-02 0.000E+00

     total cpu time spent up to now is       55.6 secs

     total energy              =   -2205.54390364 Ry
     estimated scf accuracy    <       0.00092113 Ry

     iteration # 11     ecut=    80.00 Ry     beta= 0.70
     Davidson diagonalization with overlap
     ethr =  3.00E-07,  avg # of iterations =  2.0

     negative rho (up, down):  1.839E-02 0.000E+00

     total cpu time spent up to now is       61.7 secs

     total energy              =   -2205.54394483 Ry
     estimated scf accuracy    <       0.00032826 Ry

     iteration # 12     ecut=    80.00 Ry     beta= 0.70
     Davidson diagonalization with overlap
     ethr =  1.07E-07,  avg # of iterations =  5.0

     negative rho (up, down):  4.418E-03 0.000E+00

     total cpu time spent up to now is       67.8 secs

     total energy              =   -2205.54396501 Ry
     estimated scf accuracy    <       0.00013763 Ry

     iteration # 13     ecut=    80.00 Ry     beta= 0.70
     Davidson diagonalization with overlap
     ethr =  4.48E-08,  avg # of iterations =  2.0

     negative rho (up, down):  1.350E-03 0.000E+00

     total cpu time spent up to now is       80.3 secs

     total energy              =   -2205.54398714 Ry
     estimated scf accuracy    <       0.00000625 Ry

     iteration # 14     ecut=    80.00 Ry     beta= 0.70
     Davidson diagonalization with overlap
     ethr =  2.04E-09,  avg # of iterations =  7.0

     negative rho (up, down):  5.555E-04 0.000E+00

     total cpu time spent up to now is       90.0 secs

     total energy              =   -2205.54399156 Ry
     estimated scf accuracy    <       0.00000494 Ry

     iteration # 15     ecut=    80.00 Ry     beta= 0.70
     Davidson diagonalization with overlap
     ethr =  1.61E-09,  avg # of iterations =  2.0

     negative rho (up, down):  1.367E-04 0.000E+00

     total cpu time spent up to now is       92.0 secs

     End of self-consistent calculation

          k = 0.0000 0.0000 0.0000 (105382 PWs)   bands (ev):

   -62.8607 -62.8386 -62.8175 -62.8040 -62.7980 -62.7832 -62.7749 -62.7660
   -62.7497 -62.7132 -62.6923 -62.6164 -37.1803 -37.1399 -37.1061 -37.0951
   -37.0885 -37.0719 -37.0601 -37.0472 -37.0247 -37.0170 -37.0133 -37.0002
   -36.9879 -36.9831 -36.9755 -36.9710 -36.9651 -36.9623 -36.9522 -36.9406
   -36.9280 -36.9150 -36.8855 -36.8719 -36.8638 -36.8579 -36.8516 -36.8466
   -36.8323 -36.8263 -36.7984 -36.7815 -36.7807 -36.7428 -36.6566 -36.6410
   -16.1844 -15.6075 -15.0887 -15.0541 -14.9118 -14.7881 -14.6596 -14.4475
   -14.4320 -14.3936 -14.3356 -14.3062 -14.2848 -14.2282 -14.1602 -14.0832
   -14.0714 -14.0516 -13.9692 -13.9263 -13.7920 -13.7677 -13.7474  -8.7890
    -7.6453  -7.4160  -7.3157  -7.2254  -7.1726  -7.1410  -7.0769  -7.0540
    -6.8035  -6.7605  -6.7293  -6.6770  -6.5506  -6.4775  -6.4546  -6.3977
    -6.3100  -6.2335  -6.1860  -5.9256  -5.8799  -5.8583  -5.7900  -5.7584
    -5.7298  -5.6755  -5.6368  -5.6061  -5.5734  -5.5415  -5.4749  -5.4029
    -5.3767  -5.3494  -5.2057  -5.1254  -5.0927  -5.0028  -4.9353  -4.9099
    -4.8664  -4.7929  -4.5998  -4.5019  -4.4217  -4.2905  -4.2634  -4.2251
    -4.1545  -4.1189  -3.9922  -3.8657  -3.7604  -3.7140  -3.6852  -3.6638
    -3.6214  -3.5554  -3.5237  -3.4533  -3.4328  -3.4282  -3.4123  -3.3294
    -3.3229  -3.2130  -3.1054  -2.8702  -2.8383  -2.7884  -2.7334  -2.7018
    -2.6714  -2.6195  -2.6050  -2.5744  -2.5283  -2.2320  -1.9671  -1.9550
    -1.9329  -0.7820  -0.7211  -0.6565  -0.1475  -0.1098  -0.0202  -0.0079
     0.1247   0.1576   0.1920   0.2648   0.2907   0.3587   0.4505   0.4729
     0.5253   0.5773   0.6132   0.6312   0.6554   0.6919   0.7182   0.7827
     0.8145   0.8285   0.9025   0.9436   0.9842   1.0479   1.1019   1.3457
     1.3723

     the Fermi energy is    -0.8260 ev

!    total energy              =   -2205.54399075 Ry
     estimated scf accuracy    <       0.00000092 Ry
     smearing contrib. (-TS)   =      -0.00938426 Ry
     internal energy E=F+TS    =   -2205.53460649 Ry

     The total energy is F=E-TS. E is the sum of the following terms:
     one-electron contribution =  -18045.85133044 Ry
     hartree contribution      =    9010.09180688 Ry
     xc contribution           =    -385.33019271 Ry
     ewald contribution        =    7215.55510978 Ry

     convergence has been achieved in  15 iterations

     negative rho (up, down):  1.367E-04 0.000E+00

     Forces acting on atoms (cartesian axes, Ry/au):

     atom    1 type  1   force =     0.01175201   -0.02001677    0.00559605
     atom    2 type  2   force =    -0.01816927    0.02070747    0.00181192
     atom    3 type  2   force =    -0.01136991    0.00747370   -0.00459487
     atom    4 type  1   force =     0.00677742   -0.00122666    0.00009959
     atom    5 type  2   force =    -0.00156610   -0.00435975   -0.00551697
     atom    6 type  2   force =     0.00216784    0.01039135    0.00039564
     atom    7 type  1   force =     0.00507295   -0.00601912   -0.00595029
     atom    8 type  2   force =    -0.00171505   -0.00650872    0.01814046
     atom    9 type  2   force =     0.01664029    0.00422838    0.01029069
     atom   10 type  1   force =    -0.01238111    0.01956378   -0.02145050
     atom   11 type  2   force =    -0.00094863   -0.00406514   -0.00741257
     atom   12 type  2   force =    -0.00090295    0.00103272    0.00535240
     atom   13 type  1   force =     0.00662879    0.00430793   -0.00756689
     atom   14 type  2   force =     0.00891334    0.00056613    0.01215085
     atom   15 type  2   force =    -0.01258399    0.00181033   -0.00893864
     atom   16 type  1   force =     0.00166222    0.00516482    0.00177486
     atom   17 type  2   force =     0.00625856    0.00160970    0.00129404
     atom   18 type  2   force =    -0.00491357   -0.00604501    0.01344298
     atom   19 type  1   force =     0.00516051   -0.00362714   -0.00464260
     atom   20 type  2   force =     0.00253153   -0.00531734    0.00102449
     atom   21 type  1   force =    -0.00463907    0.00703240    0.00181691
     atom   22 type  2   force =    -0.00184304   -0.00142129   -0.00180010
     atom   23 type  2   force =    -0.00177790    0.00138982    0.00897010
     atom   24 type  1   force =    -0.00916399   -0.00309697   -0.02227105
     atom   25 type  2   force =     0.01787416    0.01891745    0.00823408
     atom   26 type  2   force =    -0.01136448   -0.00121232   -0.00438692
     atom   27 type  1   force =    -0.00229716   -0.00522613    0.00728224
     atom   28 type  2   force =     0.00112025   -0.00099347   -0.00555943
     atom   29 type  2   force =     0.00261446    0.00088903   -0.00259310
     atom   30 type  1   force =    -0.00207530   -0.00858005   -0.02385098
     atom   31 type  2   force =     0.00408572   -0.00497223    0.01609276
     atom   32 type  2   force =    -0.01166666    0.00487916    0.00653671
     atom   33 type  1   force =     0.02170246   -0.00238743   -0.03358084
     atom   34 type  2   force =     0.02554013   -0.02479497    0.03047468
     atom   35 type  2   force =    -0.00727675    0.00719003    0.01467913
     atom   36 type  3   force =    -0.02984769   -0.00728368   -0.00534481
     The non-local contrib.  to forces
     atom    1 type  1   force =    -0.00305661    0.03608571   -0.01161478
     atom    2 type  2   force =    -0.00724420   -0.00204259   -0.26974529
     atom    3 type  2   force =    -0.01263934   -0.00882340    0.27152362
     atom    4 type  1   force =    -0.00211988    0.00587119    0.00451761
     atom    5 type  2   force =     0.00663047   -0.03242769   -0.25040079
     atom    6 type  2   force =    -0.00123439    0.01095132    0.26115864
     atom    7 type  1   force =    -0.03066165   -0.01071757   -0.01769522
     atom    8 type  2   force =    -0.00279709   -0.00833914   -0.24934286
     atom    9 type  2   force =     0.01280523   -0.00995208    0.27845125
     atom   10 type  1   force =     0.01080625   -0.00339491   -0.01045188
     atom   11 type  2   force =     0.00936637    0.00277582   -0.25742678
     atom   12 type  2   force =    -0.01219143   -0.01287000    0.26286253
     atom   13 type  1   force =     0.00014798    0.02379562   -0.00963554
     atom   14 type  2   force =     0.01084830   -0.01086268   -0.26178476
     atom   15 type  2   force =    -0.01410745   -0.00504475    0.26147088
     atom   16 type  1   force =     0.00019683    0.03636854   -0.02087622
     atom   17 type  2   force =     0.00319014   -0.02915798   -0.24936337
     atom   18 type  2   force =    -0.00446090   -0.00471332    0.27302794
     atom   19 type  1   force =     0.01868581   -0.01134711   -0.01234404
     atom   20 type  2   force =    -0.00024875   -0.02026108    0.26549604
     atom   21 type  1   force =     0.00150010    0.02585715    0.00626272
     atom   22 type  2   force =    -0.00769700    0.00776685   -0.24697742
     atom   23 type  2   force =     0.00659584   -0.01270162    0.26833470
     atom   24 type  1   force =     0.00632917    0.01677348   -0.01137745
     atom   25 type  2   force =     0.01009927    0.00786743   -0.23175456
     atom   26 type  2   force =    -0.00196104   -0.01579716    0.26468563
     atom   27 type  1   force =    -0.00085936    0.00938683    0.00872443
     atom   28 type  2   force =    -0.00445233   -0.02479822   -0.27311098
     atom   29 type  2   force =     0.00696682    0.00040811    0.26438499
     atom   30 type  1   force =     0.00326553    0.02102985   -0.00595479
     atom   31 type  2   force =    -0.00555072   -0.00422497   -0.24871026
     atom   32 type  2   force =    -0.00866100   -0.00715672    0.27405097
     atom   33 type  1   force =    -0.00040685    0.00700411    0.01225883
     atom   34 type  2   force =     0.16991498    0.16548153    0.06682160
     atom   35 type  2   force =    -0.00091042   -0.00881910    0.27591441
     atom   36 type  3   force =    -0.02668723   -0.02005416   -0.03527286
     The ionic contribution  to forces
     atom    1 type  1   force =     0.33729389    0.33156405    5.66167991
     atom    2 type  2   force =    -0.84926925    0.58411093   39.20363714
     atom    3 type  2   force =    -0.19368169    0.05058120  -36.12469475
     atom    4 type  1   force =     0.04589393    0.56395107    0.66125443
     atom    5 type  2   force =    -0.98040499    1.51333002   38.75026057
     atom    6 type  2   force =     0.34016706   -0.49167677  -38.01542905
     atom    7 type  1   force =    -2.66801599   -2.87699355    2.51582223
     atom    8 type  2   force =    -1.05408239   -0.07507311   37.36253596
     atom    9 type  2   force =     0.32550738   -0.06241383  -38.01304558
     atom   10 type  1   force =    -1.42487831   -0.28359364    5.31104214
     atom   11 type  2   force =    -0.64202743   -1.64163934   39.10534634
     atom   12 type  2   force =     0.42557812    0.68394785  -37.87815992
     atom   13 type  1   force =     0.59739269    1.15504360    2.74996054
     atom   14 type  2   force =     0.11832429    0.06344193   38.49521323
     atom   15 type  2   force =     0.16959862   -0.04094835  -36.81791798
     atom   16 type  1   force =    -0.00049653    3.93646425    0.49314090
     atom   17 type  2   force =     0.84335130    1.52912538   37.92836786
     atom   18 type  2   force =    -0.15015388   -0.63513771  -38.56167489
     atom   19 type  1   force =     2.85463976   -2.61245295    0.51652271
     atom   20 type  2   force =     0.23684266   -0.21648843  -38.47689098
     atom   21 type  1   force =     0.14316806    0.06585610    1.04838279
     atom   22 type  2   force =     0.78486538   -1.82890528   38.27804441
     atom   23 type  2   force =    -0.05120200    0.65302164  -38.34410407
     atom   24 type  1   force =    -0.62129034    1.41647540    5.63931502
     atom   25 type  2   force =     0.83499282    0.73783428   39.03838571
     atom   26 type  2   force =    -0.27275048    0.11031931  -37.39589969
     atom   27 type  1   force =     0.04852648    0.38220366   -2.28302893
     atom   28 type  2   force =     0.03380972    1.05138177   38.19538979
     atom   29 type  2   force =    -0.27176650   -0.41300639  -37.26973048
     atom   30 type  1   force =    -0.42960968   -1.19103914   -0.30507202
     atom   31 type  2   force =     1.27181055   -0.23064049   37.27228053
     atom   32 type  2   force =    -0.47217667   -0.04006280  -38.65732714
     atom   33 type  1   force =     1.03938842   -0.77948602    1.25836217
     atom   34 type  2   force =    -0.58624203   -2.12749820   38.20020601
     atom   35 type  2   force =    -0.32141531    0.45805676  -37.91162166
     atom   36 type  3   force =     0.53831233    0.26034681    8.36944676
     The local contribution  to forces
     atom    1 type  1   force =    -0.32251162   -0.38757534   -5.64349162
     atom    2 type  2   force =     0.83839961   -0.56153553  -38.95267280
     atom    3 type  2   force =     0.19444171   -0.03459597   35.87022818
     atom    4 type  1   force =    -0.03709389   -0.57112333   -0.66464661
     atom    5 type  2   force =     0.97284067   -1.48706713  -38.52548944
     atom    6 type  2   force =    -0.33704839    0.49225687   37.77612073
     atom    7 type  1   force =     2.70370436    2.88190635   -2.50314911
     atom    8 type  2   force =     1.05497642    0.07624084  -37.11506822
     atom    9 type  2   force =    -0.32130339    0.07601546   37.76655189
     atom   10 type  1   force =     1.40152763    0.30677944   -5.32106202
     atom   11 type  2   force =     0.63215648    1.63522209  -38.87581791
     atom   12 type  2   force =    -0.41543312   -0.67128784   37.64221433
     atom   13 type  1   force =    -0.59102791   -1.17444428   -2.74685515
     atom   14 type  2   force =    -0.11972705   -0.05205249  -38.24178380
     atom   15 type  2   force =    -0.16886561    0.04747492   36.56881509
     atom   16 type  1   force =     0.00192590   -3.96798361   -0.46954248
     atom   17 type  2   force =    -0.84023283   -1.49993046  -37.69786915
     atom   18 type  2   force =     0.14961126    0.63424136   38.32377563
     atom   19 type  1   force =    -2.86808307    2.62030327   -0.50786888
     atom   20 type  2   force =    -0.23418863    0.23069671   38.23430073
     atom   21 type  1   force =    -0.14925920   -0.08497271   -1.05176369
     atom   22 type  2   force =    -0.77938921    1.82042402  -38.05265129
     atom   23 type  2   force =     0.04342681   -0.64014317   38.10636145
     atom   24 type  1   force =     0.60586770   -1.43632211   -5.64908871
     atom   25 type  2   force =    -0.82729286   -0.72651805  -38.81747615
     atom   26 type  2   force =     0.26352954   -0.09648311   37.14849280
     atom   27 type  1   force =    -0.04984422   -0.39693048    2.28258703
     atom   28 type  2   force =    -0.02851411   -1.02948689  -37.94858768
     atom   29 type  2   force =     0.26802290    0.41397094   37.02404531
     atom   30 type  1   force =     0.42434580    1.16118411    0.28800962
     atom   31 type  2   force =    -1.26256019    0.22965981  -37.02764934
     atom   32 type  2   force =     0.46907300    0.05161203   38.41146481
     atom   33 type  1   force =    -1.01718689    0.77029818   -1.30316423
     atom   34 type  2   force =     0.45250729    1.94814780  -38.23694871
     atom   35 type  2   force =     0.31516653   -0.44294773   37.67232806
     atom   36 type  3   force =    -0.54145985   -0.24755858   -8.33947641
     The core correction contribution to forces
     atom    1 type  1   force =     0.00000000    0.00000000    0.00000000
     atom    2 type  2   force =     0.00001209    0.00023686    0.02061847
     atom    3 type  2   force =     0.00056003    0.00035259   -0.02093778
     atom    4 type  1   force =     0.00000000    0.00000000    0.00000000
     atom    5 type  2   force =    -0.00066056    0.00183542    0.02019744
     atom    6 type  2   force =     0.00021262   -0.00106662   -0.02077288
     atom    7 type  1   force =     0.00000000    0.00000000    0.00000000
     atom    8 type  2   force =     0.00011533    0.00057350    0.02010848
     atom    9 type  2   force =    -0.00043172    0.00057006   -0.02105819
     atom   10 type  1   force =     0.00000000    0.00000000    0.00000000
     atom   11 type  2   force =    -0.00052761   -0.00043754    0.02046467
     atom   12 type  2   force =     0.00110672    0.00115890   -0.02083499
     atom   13 type  1   force =     0.00000000    0.00000000    0.00000000
     atom   14 type  2   force =    -0.00056285    0.00007612    0.02057697
     atom   15 type  2   force =     0.00076014    0.00036271   -0.02058848
     atom   16 type  1   force =     0.00000000    0.00000000    0.00000000
     atom   17 type  2   force =    -0.00002774    0.00155985    0.02018955
     atom   18 type  2   force =     0.00013571   -0.00038507   -0.02098006
     atom   19 type  1   force =     0.00000000    0.00000000    0.00000000
     atom   20 type  2   force =     0.00012559    0.00071661   -0.02117945
     atom   21 type  1   force =     0.00000000    0.00000000    0.00000000
     atom   22 type  2   force =     0.00047962   -0.00073438    0.01977039
     atom   23 type  2   force =    -0.00055936    0.00112875   -0.02091932
     atom   24 type  1   force =     0.00000000    0.00000000    0.00000000
     atom   25 type  2   force =     0.00004123   -0.00014204    0.01905193
     atom   26 type  2   force =    -0.00018665    0.00083905   -0.02092196
     atom   27 type  1   force =     0.00000000    0.00000000    0.00000000
     atom   28 type  2   force =     0.00028120    0.00181258    0.02085403
     atom   29 type  2   force =    -0.00057478   -0.00048699   -0.02063244
     atom   30 type  1   force =     0.00000000    0.00000000    0.00000000
     atom   31 type  2   force =     0.00043650    0.00016166    0.02021657
     atom   32 type  2   force =     0.00015234    0.00045938   -0.02102288
     atom   33 type  1   force =     0.00000000    0.00000000    0.00000000
     atom   34 type  2   force =    -0.01061656   -0.01079067    0.00046001
     atom   35 type  2   force =    -0.00012994    0.00087989   -0.02133958
     atom   36 type  3   force =     0.00000000    0.00000000    0.00000000
     The Hubbard contrib.    to forces
     atom    1 type  1   force =     0.00000000    0.00000000    0.00000000
     atom    2 type  2   force =     0.00000000    0.00000000    0.00000000
     atom    3 type  2   force =     0.00000000    0.00000000    0.00000000
     atom    4 type  1   force =     0.00000000    0.00000000    0.00000000
     atom    5 type  2   force =     0.00000000    0.00000000    0.00000000
     atom    6 type  2   force =     0.00000000    0.00000000    0.00000000
     atom    7 type  1   force =     0.00000000    0.00000000    0.00000000
     atom    8 type  2   force =     0.00000000    0.00000000    0.00000000
     atom    9 type  2   force =     0.00000000    0.00000000    0.00000000
     atom   10 type  1   force =     0.00000000    0.00000000    0.00000000
     atom   11 type  2   force =     0.00000000    0.00000000    0.00000000
     atom   12 type  2   force =     0.00000000    0.00000000    0.00000000
     atom   13 type  1   force =     0.00000000    0.00000000    0.00000000
     atom   14 type  2   force =     0.00000000    0.00000000    0.00000000
     atom   15 type  2   force =     0.00000000    0.00000000    0.00000000
     atom   16 type  1   force =     0.00000000    0.00000000    0.00000000
     atom   17 type  2   force =     0.00000000    0.00000000    0.00000000
     atom   18 type  2   force =     0.00000000    0.00000000    0.00000000
     atom   19 type  1   force =     0.00000000    0.00000000    0.00000000
     atom   20 type  2   force =     0.00000000    0.00000000    0.00000000
     atom   21 type  1   force =     0.00000000    0.00000000    0.00000000
     atom   22 type  2   force =     0.00000000    0.00000000    0.00000000
     atom   23 type  2   force =     0.00000000    0.00000000    0.00000000
     atom   24 type  1   force =     0.00000000    0.00000000    0.00000000
     atom   25 type  2   force =     0.00000000    0.00000000    0.00000000
     atom   26 type  2   force =     0.00000000    0.00000000    0.00000000
     atom   27 type  1   force =     0.00000000    0.00000000    0.00000000
     atom   28 type  2   force =     0.00000000    0.00000000    0.00000000
     atom   29 type  2   force =     0.00000000    0.00000000    0.00000000
     atom   30 type  1   force =     0.00000000    0.00000000    0.00000000
     atom   31 type  2   force =     0.00000000    0.00000000    0.00000000
     atom   32 type  2   force =     0.00000000    0.00000000    0.00000000
     atom   33 type  1   force =     0.00000000    0.00000000    0.00000000
     atom   34 type  2   force =     0.00000000    0.00000000    0.00000000
     atom   35 type  2   force =     0.00000000    0.00000000    0.00000000
     atom   36 type  3   force =     0.00000000    0.00000000    0.00000000
     The SCF correction term to forces
     atom    1 type  1   force =     0.00002643   -0.00009412   -0.00095544
     atom    2 type  2   force =    -0.00006743   -0.00006511   -0.00000359
     atom    3 type  2   force =    -0.00005053   -0.00004363   -0.00069212
     atom    4 type  1   force =     0.00009734    0.00007149   -0.00100382
     atom    5 type  2   force =     0.00002840   -0.00003328   -0.00006274
     atom    6 type  2   force =     0.00007103   -0.00007637   -0.00065980
     atom    7 type  1   force =     0.00004632   -0.00021727   -0.00090617
     atom    8 type  2   force =     0.00007277    0.00008628   -0.00007088
     atom    9 type  2   force =     0.00006287    0.00000585   -0.00058668
     atom   10 type  1   force =     0.00016340   -0.00023003   -0.00095673
     atom   11 type  2   force =     0.00008365    0.00001092    0.00004313
     atom   12 type  2   force =     0.00003685    0.00008090   -0.00070754
     atom   13 type  1   force =     0.00011612   -0.00008992   -0.00101471
     atom   14 type  2   force =     0.00003073   -0.00003966   -0.00004877
     atom   15 type  2   force =     0.00003039   -0.00003711   -0.00069612
     atom   16 type  1   force =     0.00003610    0.00031272   -0.00092532
     atom   17 type  2   force =    -0.00002222    0.00001000   -0.00000884
     atom   18 type  2   force =    -0.00004566   -0.00005319   -0.00068363
     atom   19 type  1   force =    -0.00008190   -0.00013327   -0.00093037
     atom   20 type  2   force =     0.00000075    0.00001594   -0.00067985
     atom   21 type  1   force =    -0.00004795    0.00028895   -0.00104290
     atom   22 type  2   force =    -0.00010173    0.00002459    0.00003583
     atom   23 type  2   force =    -0.00003911    0.00008129   -0.00068063
     atom   24 type  1   force =    -0.00007044   -0.00002667   -0.00109790
     atom   25 type  2   force =     0.00003378   -0.00012709    0.00004918
     atom   26 type  2   force =     0.00000424   -0.00009333   -0.00072168
     atom   27 type  1   force =    -0.00011998    0.00011095   -0.00097827
     atom   28 type  2   force =    -0.00000413    0.00009437   -0.00008258
     atom   29 type  2   force =    -0.00003390    0.00000045   -0.00063846
     atom   30 type  1   force =    -0.00007686    0.00024221   -0.00081178
     atom   31 type  2   force =    -0.00005034    0.00006886   -0.00002272
     atom   32 type  2   force =    -0.00005424    0.00002436   -0.00060705
     atom   33 type  1   force =    -0.00009214   -0.00020660   -0.00101560
     atom   34 type  2   force =    -0.00002346   -0.00013835   -0.00004221
     atom   35 type  2   force =     0.00001247    0.00001731   -0.00058010
     atom   36 type  3   force =    -0.00001285   -0.00002067   -0.00002028

     Total force =     0.112935     Total SCF correction =     0.004163

     BFGS Geometry Optimization
     Energy error            =      0.0E+00 Ry
     Gradient error          =      3.4E-02 Ry/Bohr

     number of scf cycles    =   1
     number of bfgs steps    =   0

     energy             new  =   -2205.5439907456 Ry

     new trust radius        =       0.0468593085 bohr
     new conv_thr            =       0.0000010000 Ry


ATOMIC_POSITIONS (angstrom)
Mo            6.5807673030        1.7772138089        2.8266043333
S             8.1670945737        0.8206619433        4.4354971788
S             8.1872163874        0.8151966550        1.2754519271
Mo            8.0987490206        4.4944078247        2.7178710964
S             6.4990805108        3.7201044094        4.3437411914
S             6.5544969702        3.5172364200        1.1214895901
Mo            6.4926661845        7.2152521028        2.6687357277
S             8.0808201618        6.3404267267        4.2520610788
S             8.0897233099        6.3069398779        1.0893085959
Mo            8.1540672459        9.9125331217        2.8321106426
S             6.4946656028        8.9407756374        4.3791829731
S             6.6174693784        9.0492577059        1.1427396706
Mo            3.4251674657        1.7492355079        2.7724669380
S             4.9798822264        0.8172407921        4.3569630451
S             5.0511745930        0.8472200964        1.2219283380
Mo            4.9806362905        4.5159111098        2.6338237639
S             3.4311535492        3.6724515044        4.2803943547
S             3.4353204337        3.5450298150        1.0654654014
Mo            3.4565925644        7.2144051362        2.6282201057
S             4.9845738187        6.3241184722        1.0377958663
Mo            5.0098090312        9.9053214363        2.7443624295
S             3.4699828232        8.9429991548        4.3246387405
S             3.4074883404        9.0657254434        1.1008150735
Mo            0.2912411124        1.7458706832        2.8376593749
S             1.8599208089        0.8027046887        4.4025667277
S             1.8547862101        0.8537843838        1.2070793956
Mo            1.8594757024        4.4929012141        2.6640509754
S             0.2728066619        3.6538731032        4.3346421737
S             0.2326147193        3.5277196782        1.1706456753
Mo            0.2700539511        7.2121057275        2.6890750321
S             1.9044003198        6.3101676462        4.2309600414
S             1.8560644839        6.3129257510        1.0480183594
Mo            1.8558311122        9.9388757813        2.7551760349
S             0.3094281527        9.0768768931        4.4299959713
S             0.2729207078        9.0473305170        1.1581686390
H             1.0349563951        9.7107234186        5.4750550738



     Writing config-only to output data dir ./MoS2-V-O.save/
     NEW-OLD atomic charge density approx. for the potential

     negative rho (up, down):  1.418E-04 0.000E+00

     total cpu time spent up to now is       95.3 secs

     Self-consistent Calculation

     iteration #  1     ecut=    80.00 Ry     beta= 0.70
     Davidson diagonalization with overlap
     ethr =  1.00E-06,  avg # of iterations = 12.0

     negative rho (up, down):  1.231E-04 0.000E+00

     total cpu time spent up to now is      109.5 secs

     total energy              =   -2205.55382924 Ry
     estimated scf accuracy    <       0.00118222 Ry

     iteration #  2     ecut=    80.00 Ry     beta= 0.70
     Davidson diagonalization with overlap
     ethr =  3.85E-07,  avg # of iterations =  2.0

     negative rho (up, down):  1.147E-04 0.000E+00

     total cpu time spent up to now is      124.3 secs

     total energy              =   -2205.55386508 Ry
     estimated scf accuracy    <       0.00031423 Ry

     iteration #  3     ecut=    80.00 Ry     beta= 0.70
     Davidson diagonalization with overlap
     ethr =  1.02E-07,  avg # of iterations =  5.0

     negative rho (up, down):  1.155E-04 0.000E+00

     total cpu time spent up to now is      145.7 secs

     total energy              =   -2205.55389299 Ry
     estimated scf accuracy    <       0.00013188 Ry

     iteration #  4     ecut=    80.00 Ry     beta= 0.70
     Davidson diagonalization with overlap
     ethr =  4.30E-08,  avg # of iterations =  5.0

     negative rho (up, down):  1.134E-04 0.000E+00

     total cpu time spent up to now is      163.9 secs

     total energy              =   -2205.55390666 Ry
     estimated scf accuracy    <       0.00002128 Ry

     iteration #  5     ecut=    80.00 Ry     beta= 0.70
     Davidson diagonalization with overlap
     ethr =  6.93E-09,  avg # of iterations =  9.0

     negative rho (up, down):  1.105E-04 0.000E+00

     total cpu time spent up to now is      182.6 secs

     total energy              =   -2205.55391130 Ry
     estimated scf accuracy    <       0.00000333 Ry

     iteration #  6     ecut=    80.00 Ry     beta= 0.70
     Davidson diagonalization with overlap
     ethr =  1.08E-09,  avg # of iterations =  2.0

     negative rho (up, down):  1.370E-04 0.000E+00

     total cpu time spent up to now is      184.5 secs

     End of self-consistent calculation

          k = 0.0000 0.0000 0.0000 (105382 PWs)   bands (ev):

   -62.8560 -62.8369 -62.8142 -62.8004 -62.7955 -62.7825 -62.7739 -62.7580
   -62.7479 -62.7103 -62.6881 -62.6184 -37.1766 -37.1302 -37.1024 -37.0908
   -37.0833 -37.0673 -37.0590 -37.0406 -37.0232 -37.0123 -37.0100 -36.9978
   -36.9832 -36.9787 -36.9732 -36.9670 -36.9618 -36.9599 -36.9511 -36.9350
   -36.9269 -36.9114 -36.8809 -36.8685 -36.8609 -36.8537 -36.8486 -36.8424
   -36.8330 -36.8235 -36.7937 -36.7830 -36.7794 -36.7431 -36.6542 -36.6413
   -16.1665 -15.6057 -15.0840 -15.0554 -14.9100 -14.7920 -14.6514 -14.4377
   -14.4284 -14.3826 -14.3443 -14.3033 -14.2906 -14.2333 -14.1560 -14.0830
   -14.0682 -14.0574 -13.9691 -13.9185 -13.7983 -13.7711 -13.7450  -8.7843
    -7.6316  -7.4099  -7.2953  -7.2227  -7.1728  -7.1418  -7.0855  -7.0532
    -6.7884  -6.7569  -6.7225  -6.6755  -6.5396  -6.4771  -6.4516  -6.3933
    -6.3116  -6.2356  -6.1854  -5.9185  -5.8681  -5.8568  -5.7785  -5.7570
    -5.7258  -5.6768  -5.6378  -5.6104  -5.5720  -5.5493  -5.4724  -5.3987
    -5.3578  -5.3301  -5.1903  -5.1120  -5.0852  -4.9953  -4.9291  -4.9103
    -4.8731  -4.7920  -4.5949  -4.5055  -4.4204  -4.2760  -4.2669  -4.2144
    -4.1669  -4.1327  -4.0052  -3.8675  -3.7547  -3.7086  -3.6777  -3.6580
    -3.6268  -3.5428  -3.5274  -3.4558  -3.4370  -3.4266  -3.4146  -3.3265
    -3.3197  -3.2176  -3.1083  -2.8566  -2.8359  -2.7725  -2.7277  -2.7030
    -2.6589  -2.6248  -2.6042  -2.5730  -2.5303  -2.2236  -1.9664  -1.9590
    -1.9381  -0.7773  -0.7169  -0.6610  -0.1444  -0.1118  -0.0185  -0.0033
     0.1253   0.1547   0.2027   0.2743   0.3025   0.3613   0.4618   0.4723
     0.5367   0.5794   0.6218   0.6340   0.6584   0.6908   0.7136   0.7851
     0.8115   0.8310   0.9195   0.9440   0.9995   1.0475   1.0987   1.3476
     1.3931

     the Fermi energy is    -0.8228 ev

!    total energy              =   -2205.55391144 Ry
     estimated scf accuracy    <       0.00000084 Ry
     smearing contrib. (-TS)   =      -0.00949534 Ry
     internal energy E=F+TS    =   -2205.54441610 Ry

     The total energy is F=E-TS. E is the sum of the following terms:
     one-electron contribution =  -18044.18972725 Ry
     hartree contribution      =    9009.29020580 Ry
     xc contribution           =    -385.33128456 Ry
     ewald contribution        =    7214.68638991 Ry

     convergence has been achieved in   6 iterations

     negative rho (up, down):  1.370E-04 0.000E+00

     Forces acting on atoms (cartesian axes, Ry/au):

     atom    1 type  1   force =     0.00299191   -0.01090268   -0.00007751
     atom    2 type  2   force =    -0.01170845    0.01486453   -0.00049834
     atom    3 type  2   force =    -0.01075448    0.00681448   -0.00995652
     atom    4 type  1   force =     0.00493021    0.00011716    0.00168350
     atom    5 type  2   force =    -0.00014995   -0.00470410   -0.00556726
     atom    6 type  2   force =     0.00215826    0.00678701    0.00211440
     atom    7 type  1   force =     0.00563745   -0.00504952   -0.00022691
     atom    8 type  2   force =    -0.00039734   -0.00494717    0.01147279
     atom    9 type  2   force =     0.01359344    0.00214782    0.00540047
     atom   10 type  1   force =    -0.00330690    0.01244141   -0.00284909
     atom   11 type  2   force =     0.00057042   -0.00274551   -0.00894812
     atom   12 type  2   force =    -0.00240519    0.00163497    0.00171990
     atom   13 type  1   force =     0.00516055    0.00322855   -0.00279041
     atom   14 type  2   force =     0.00625079    0.00059697    0.00860174
     atom   15 type  2   force =    -0.00859566    0.00174589   -0.00722940
     atom   16 type  1   force =     0.00116462    0.00377501    0.00185661
     atom   17 type  2   force =     0.00589723    0.00099992    0.00146192
     atom   18 type  2   force =    -0.00338066   -0.00400332    0.01043782
     atom   19 type  1   force =     0.00207708   -0.00360840   -0.00026164
     atom   20 type  2   force =     0.00270381   -0.00449912   -0.00176802
     atom   21 type  1   force =    -0.00370864    0.00416147    0.00318360
     atom   22 type  2   force =    -0.00101801   -0.00101903   -0.00440179
     atom   23 type  2   force =     0.00198292   -0.00009193    0.00222369
     atom   24 type  1   force =    -0.00623151   -0.00240972   -0.00914315
     atom   25 type  2   force =     0.01303381    0.01385873   -0.00169505
     atom   26 type  2   force =    -0.00705322    0.00024689   -0.00750637
     atom   27 type  1   force =    -0.00083074   -0.00249673    0.00678203
     atom   28 type  2   force =     0.00065121   -0.00308799   -0.00551270
     atom   29 type  2   force =     0.00226722    0.00144866   -0.00410637
     atom   30 type  1   force =    -0.00029693   -0.01041929   -0.00904504
     atom   31 type  2   force =     0.00254110   -0.00380799    0.00944601
     atom   32 type  2   force =    -0.00819620    0.00244790    0.00386388
     atom   33 type  1   force =     0.01124545    0.00006444   -0.00814005
     atom   34 type  2   force =     0.01260211   -0.01765053    0.01076901
     atom   35 type  2   force =    -0.00687558    0.00683867    0.00841800
     atom   36 type  3   force =    -0.02255013   -0.00277743    0.00028836
     The non-local contrib.  to forces
     atom    1 type  1   force =    -0.00141182    0.03309696   -0.01247049
     atom    2 type  2   force =    -0.00311477   -0.00505137   -0.26865586
     atom    3 type  2   force =    -0.01151035   -0.00949482    0.26669267
     atom    4 type  1   force =    -0.00100862    0.00704547    0.00376752
     atom    5 type  2   force =     0.00760093   -0.03346614   -0.25106587
     atom    6 type  2   force =    -0.00116142    0.00737336    0.26315667
     atom    7 type  1   force =    -0.03036290   -0.01086836   -0.01873613
     atom    8 type  2   force =    -0.00290167   -0.00880543   -0.25311979
     atom    9 type  2   force =     0.01055390   -0.01111087    0.27561721
     atom   10 type  1   force =     0.00808878   -0.00183781   -0.01181277
     atom   11 type  2   force =     0.00867631    0.00379649   -0.25905576
     atom   12 type  2   force =    -0.01253277   -0.01235977    0.26178275
     atom   13 type  1   force =     0.00134365    0.02468725   -0.00982298
     atom   14 type  2   force =     0.00910410   -0.01067686   -0.26355639
     atom   15 type  2   force =    -0.01086731   -0.00551628    0.26179899
     atom   16 type  1   force =    -0.00027804    0.03712178   -0.02234298
     atom   17 type  2   force =     0.00258846   -0.02887747   -0.24968618
     atom   18 type  2   force =    -0.00308977   -0.00318773    0.27130219
     atom   19 type  1   force =     0.01928978   -0.01006678   -0.01324033
     atom   20 type  2   force =    -0.00005548   -0.01900691    0.26397936
     atom   21 type  1   force =     0.00094686    0.02661341    0.00482155
     atom   22 type  2   force =    -0.00529354    0.00735489   -0.24866796
     atom   23 type  2   force =     0.00860312   -0.01356077    0.26441723
     atom   24 type  1   force =     0.00482434    0.01699926   -0.01076292
     atom   25 type  2   force =     0.00684407    0.00422395   -0.23884059
     atom   26 type  2   force =     0.00131840   -0.01465830    0.26340733
     atom   27 type  1   force =    -0.00167229    0.00882181    0.00727956
     atom   28 type  2   force =    -0.00473501   -0.02523284   -0.27347803
     atom   29 type  2   force =     0.00627106   -0.00073208    0.26389650
     atom   30 type  1   force =     0.00329044    0.01953551   -0.00753274
     atom   31 type  2   force =    -0.00533104   -0.00441046   -0.25333571
     atom   32 type  2   force =    -0.00640913   -0.00912916    0.27306174
     atom   33 type  1   force =     0.00266518    0.00602127    0.00956999
     atom   34 type  2   force =     0.16756606    0.17824628    0.04994610
     atom   35 type  2   force =    -0.00047847   -0.00976655    0.27300931
     atom   36 type  3   force =    -0.02783722   -0.02239192   -0.03794698
     The ionic contribution  to forces
     atom    1 type  1   force =     0.09129650    0.61147200    5.75756320
     atom    2 type  2   force =    -0.63584237    0.44794206   39.30392258
     atom    3 type  2   force =    -0.18472773    0.06251960  -36.25448712
     atom    4 type  1   force =    -0.06713387    0.57786315    0.76480799
     atom    5 type  2   force =    -0.98137955    1.51804356   38.69305442
     atom    6 type  2   force =     0.29873152   -0.52288571  -37.94599346
     atom    7 type  1   force =    -2.61221686   -2.76670338    2.48688803
     atom    8 type  2   force =    -1.01999088    0.01793583   37.45926375
     atom    9 type  2   force =     0.23731497   -0.08560714  -37.98864913
     atom   10 type  1   force =    -0.98332622   -0.59440238    5.24455140
     atom   11 type  2   force =    -0.55111833   -1.66840805   39.04956496
     atom   12 type  2   force =     0.37564954    0.61993217  -37.83541627
     atom   13 type  1   force =     0.53435024    1.11210622    2.70472070
     atom   14 type  2   force =     0.03739660    0.07464166   38.59163137
     atom   15 type  2   force =     0.20475479    0.00031146  -36.87303815
     atom   16 type  1   force =     0.02970385    3.86526189    0.57621344
     atom   17 type  2   force =     0.84198110    1.50851739   37.95029220
     atom   18 type  2   force =    -0.12748206   -0.57234965  -38.49366814
     atom   19 type  1   force =     2.78449046   -2.63768015    0.52044453
     atom   20 type  2   force =     0.22891155   -0.21331988  -38.49496974
     atom   21 type  1   force =     0.18059479   -0.04545882    1.23544770
     atom   22 type  2   force =     0.71972767   -1.82662943   38.29275837
     atom   23 type  2   force =     0.03305320    0.56823134  -38.35629311
     atom   24 type  1   force =    -0.39485402    1.22136858    5.36231354
     atom   25 type  2   force =     0.69980898    0.62081247   38.99358551
     atom   26 type  2   force =    -0.24466590    0.16021607  -37.38821866
     atom   27 type  1   force =     0.12306750    0.46176535   -2.00710711
     atom   28 type  2   force =     0.04262083    0.97633114   38.20429635
     atom   29 type  2   force =    -0.25176626   -0.36750805  -37.30836112
     atom   30 type  1   force =    -0.41984902   -0.91158294   -0.54786522
     atom   31 type  2   force =     1.23392120   -0.14293439   37.32302162
     atom   32 type  2   force =    -0.37809506   -0.08803226  -38.61745743
     atom   33 type  1   force =     0.61429457   -0.70737919    0.87855156
     atom   34 type  2   force =    -0.66474083   -2.04185583   38.08625703
     atom   35 type  2   force =    -0.34573060    0.45321950  -37.74929329
     atom   36 type  3   force =     0.55124970    0.31424585    8.38166768
     The local contribution  to forces
     atom    1 type  1   force =    -0.08694776   -0.65535217   -5.74592637
     atom    2 type  2   force =     0.62734874   -0.42827189  -39.05681271
     atom    3 type  2   force =     0.18494200   -0.04655423   35.99832197
     atom    4 type  1   force =     0.07292014   -0.58478221   -0.76756263
     atom    5 type  2   force =     0.97425817   -1.49118510  -38.46826236
     atom    6 type  2   force =    -0.29563046    0.52320547   37.70556707
     atom    7 type  1   force =     2.64828767    2.77248660   -2.46903482
     atom    8 type  2   force =     1.02243737   -0.01465773  -37.21520594
     atom    9 type  2   force =    -0.23388259    0.09824758   37.73919503
     atom   10 type  1   force =     0.97188935    0.60861103   -5.23640549
     atom   11 type  2   force =     0.54350406    1.66230484  -38.82044569
     atom   12 type  2   force =    -0.36666240   -0.60703251   37.59585976
     atom   13 type  1   force =    -0.53023662   -1.13336277   -2.69843154
     atom   14 type  2   force =    -0.03972578   -0.06334311  -38.34047479
     atom   15 type  2   force =    -0.20308146    0.00660408   36.62429597
     atom   16 type  1   force =    -0.02824580   -3.89868959   -0.55263432
     atom   17 type  2   force =    -0.83855791   -1.48014999  -37.71974530
     atom   18 type  2   force =     0.12717093    0.57198748   38.25353924
     atom   19 type  1   force =    -2.80183594    2.64399258   -0.50815105
     atom   20 type  2   force =    -0.22636691    0.22714964   38.25014868
     atom   21 type  1   force =    -0.18532517    0.02290925   -1.23786012
     atom   22 type  2   force =    -0.71577202    1.81879311  -38.06890587
     atom   23 type  2   force =    -0.03902256   -0.55601083   38.11476535
     atom   24 type  1   force =     0.38379711   -1.24092720   -5.36151079
     atom   25 type  2   force =    -0.69378427   -0.61103109  -38.77621227
     atom   26 type  2   force =     0.23656427   -0.14608440   37.13794152
     atom   27 type  1   force =    -0.12203921   -0.47283666    2.00592812
     atom   28 type  2   force =    -0.03753617   -0.95595800  -37.95760350
     atom   29 type  2   force =     0.24830095    0.37006739   37.06066089
     atom   30 type  1   force =     0.41635488    0.88147788    0.54572636
     atom   31 type  2   force =    -1.22638221    0.14337251  -37.08103725
     atom   32 type  2   force =     0.37630372    0.09910805   38.36916670
     atom   33 type  1   force =    -0.60568990    0.70123679   -0.89707776
     atom   34 type  2   force =     0.52028348    1.85728959  -38.12683428
     atom   35 type  2   force =     0.33949356   -0.43757602   37.50580502
     atom   36 type  3   force =    -0.54596232   -0.29463580   -8.34352910
     The core correction contribution to forces
     atom    1 type  1   force =     0.00000000    0.00000000    0.00000000
     atom    2 type  2   force =    -0.00005172    0.00028993    0.02063972
     atom    3 type  2   force =     0.00049825    0.00041182   -0.02085971
     atom    4 type  1   force =     0.00000000    0.00000000    0.00000000
     atom    5 type  2   force =    -0.00070467    0.00187251    0.02019112
     atom    6 type  2   force =     0.00019270   -0.00093121   -0.02079925
     atom    7 type  1   force =     0.00000000    0.00000000    0.00000000
     atom    8 type  2   force =     0.00016127    0.00062586    0.02022802
     atom    9 type  2   force =    -0.00038359    0.00056768   -0.02102306
     atom   10 type  1   force =     0.00000000    0.00000000    0.00000000
     atom   11 type  2   force =    -0.00044283   -0.00050497    0.02051628
     atom   12 type  2   force =     0.00105396    0.00109939   -0.02079962
     atom   13 type  1   force =     0.00000000    0.00000000    0.00000000
     atom   14 type  2   force =    -0.00053985    0.00009303    0.02065170
     atom   15 type  2   force =     0.00065231    0.00040542   -0.02060486
     atom   16 type  1   force =     0.00000000    0.00000000    0.00000000
     atom   17 type  2   force =     0.00000808    0.00152805    0.02020424
     atom   18 type  2   force =     0.00006936   -0.00040660   -0.02094285
     atom   19 type  1   force =     0.00000000    0.00000000    0.00000000
     atom   20 type  2   force =     0.00011511    0.00066166   -0.02114527
     atom   21 type  1   force =     0.00000000    0.00000000    0.00000000
     atom   22 type  2   force =     0.00031938   -0.00072763    0.01985470
     atom   23 type  2   force =    -0.00054428    0.00109979   -0.02085013
     atom   24 type  1   force =     0.00000000    0.00000000    0.00000000
     atom   25 type  2   force =     0.00012639   -0.00005255    0.01924793
     atom   26 type  2   force =    -0.00030985    0.00085687   -0.02087824
     atom   27 type  1   force =     0.00000000    0.00000000    0.00000000
     atom   28 type  2   force =     0.00029162    0.00175776    0.02089515
     atom   29 type  2   force =    -0.00052436   -0.00037749   -0.02063780
     atom   30 type  1   force =     0.00000000    0.00000000    0.00000000
     atom   31 type  2   force =     0.00038387    0.00025490    0.02033317
     atom   32 type  2   force =     0.00010863    0.00048504   -0.02100302
     atom   33 type  1   force =     0.00000000    0.00000000    0.00000000
     atom   34 type  2   force =    -0.01060061   -0.01153419    0.00076175
     atom   35 type  2   force =    -0.00018968    0.00092961   -0.02125160
     atom   36 type  3   force =     0.00000000    0.00000000    0.00000000
     The Hubbard contrib.    to forces
     atom    1 type  1   force =     0.00000000    0.00000000    0.00000000
     atom    2 type  2   force =     0.00000000    0.00000000    0.00000000
     atom    3 type  2   force =     0.00000000    0.00000000    0.00000000
     atom    4 type  1   force =     0.00000000    0.00000000    0.00000000
     atom    5 type  2   force =     0.00000000    0.00000000    0.00000000
     atom    6 type  2   force =     0.00000000    0.00000000    0.00000000
     atom    7 type  1   force =     0.00000000    0.00000000    0.00000000
     atom    8 type  2   force =     0.00000000    0.00000000    0.00000000
     atom    9 type  2   force =     0.00000000    0.00000000    0.00000000
     atom   10 type  1   force =     0.00000000    0.00000000    0.00000000
     atom   11 type  2   force =     0.00000000    0.00000000    0.00000000
     atom   12 type  2   force =     0.00000000    0.00000000    0.00000000
     atom   13 type  1   force =     0.00000000    0.00000000    0.00000000
     atom   14 type  2   force =     0.00000000    0.00000000    0.00000000
     atom   15 type  2   force =     0.00000000    0.00000000    0.00000000
     atom   16 type  1   force =     0.00000000    0.00000000    0.00000000
     atom   17 type  2   force =     0.00000000    0.00000000    0.00000000
     atom   18 type  2   force =     0.00000000    0.00000000    0.00000000
     atom   19 type  1   force =     0.00000000    0.00000000    0.00000000
     atom   20 type  2   force =     0.00000000    0.00000000    0.00000000
     atom   21 type  1   force =     0.00000000    0.00000000    0.00000000
     atom   22 type  2   force =     0.00000000    0.00000000    0.00000000
     atom   23 type  2   force =     0.00000000    0.00000000    0.00000000
     atom   24 type  1   force =     0.00000000    0.00000000    0.00000000
     atom   25 type  2   force =     0.00000000    0.00000000    0.00000000
     atom   26 type  2   force =     0.00000000    0.00000000    0.00000000
     atom   27 type  1   force =     0.00000000    0.00000000    0.00000000
     atom   28 type  2   force =     0.00000000    0.00000000    0.00000000
     atom   29 type  2   force =     0.00000000    0.00000000    0.00000000
     atom   30 type  1   force =     0.00000000    0.00000000    0.00000000
     atom   31 type  2   force =     0.00000000    0.00000000    0.00000000
     atom   32 type  2   force =     0.00000000    0.00000000    0.00000000
     atom   33 type  1   force =     0.00000000    0.00000000    0.00000000
     atom   34 type  2   force =     0.00000000    0.00000000    0.00000000
     atom   35 type  2   force =     0.00000000    0.00000000    0.00000000
     atom   36 type  3   force =     0.00000000    0.00000000    0.00000000
     The SCF correction term to forces
     atom    1 type  1   force =     0.00005675   -0.00012339    0.00073897
     atom    2 type  2   force =    -0.00004656   -0.00004812    0.00039077
     atom    3 type  2   force =     0.00004511   -0.00007181    0.00035849
     atom    4 type  1   force =     0.00015432   -0.00001318    0.00065344
     atom    5 type  2   force =     0.00007692    0.00002715    0.00049826
     atom    6 type  2   force =     0.00002768    0.00002117    0.00016620
     atom    7 type  1   force =    -0.00006870    0.00003170    0.00063884
     atom    8 type  2   force =    -0.00010168   -0.00004962    0.00028957
     atom    9 type  2   force =    -0.00000749    0.00004665    0.00024324
     atom   10 type  1   force =     0.00004295    0.00006665    0.00080060
     atom   11 type  2   force =    -0.00004704    0.00006226    0.00045492
     atom   12 type  2   force =     0.00008822   -0.00000823    0.00027611
     atom   13 type  1   force =    -0.00029496   -0.00020607    0.00072624
     atom   14 type  2   force =     0.00001747   -0.00012168    0.00033268
     atom   15 type  2   force =    -0.00005222   -0.00006273    0.00030147
     atom   16 type  1   force =    -0.00001363    0.00007702    0.00060329
     atom   17 type  2   force =    -0.00012075   -0.00002198    0.00037980
     atom   18 type  2   force =    -0.00004737   -0.00005074    0.00019021
     atom   19 type  1   force =     0.00013454    0.00014203    0.00066803
     atom   20 type  2   force =     0.00010130    0.00001246    0.00020178
     atom   21 type  1   force =     0.00007664    0.00009371    0.00075729
     atom   22 type  2   force =     0.00000226    0.00018612    0.00054180
     atom   23 type  2   force =    -0.00010480    0.00014462    0.00016718
     atom   24 type  1   force =     0.00000282    0.00014572    0.00079985
     atom   25 type  2   force =     0.00004039   -0.00009797    0.00050721
     atom   26 type  2   force =     0.00004161   -0.00008726    0.00022451
     atom   27 type  1   force =    -0.00018498   -0.00025116    0.00066429
     atom   28 type  2   force =     0.00001170    0.00001003    0.00036016
     atom   29 type  2   force =    -0.00001241   -0.00000503    0.00031800
     atom   30 type  1   force =    -0.00009148    0.00014633    0.00060939
     atom   31 type  2   force =    -0.00004896   -0.00009447    0.00044700
     atom   32 type  2   force =    -0.00010260    0.00001231    0.00007872
     atom   33 type  1   force =    -0.00002263    0.00018166    0.00079899
     atom   34 type  2   force =     0.00009577    0.00019970    0.00062124
     atom   35 type  2   force =     0.00003137    0.00002821    0.00013139
     atom   36 type  3   force =     0.00000147    0.00000051    0.00007960

     Total force =     0.068951     Total SCF correction =     0.003097
     Energy error            =      9.9E-03 Ry
     Gradient error          =      2.3E-02 Ry/Bohr

     number of scf cycles    =   2
     number of bfgs steps    =   1

     energy             old  =   -2205.5439907456 Ry
     energy             new  =   -2205.5539114419 Ry

     CASE: energy            _new < energy            _old

     new trust radius        =       0.0515452394 bohr
     new conv_thr            =       0.0000000226 Ry


ATOMIC_POSITIONS (angstrom)
Mo            6.5849255817        1.7649831379        2.8272526170
S             8.1543862434        0.8364935744        4.4352875216
S             8.1762249994        0.8221957488        1.2660360438
Mo            8.1039883675        4.4943545246        2.7193763971
S             6.4987469073        3.7153752928        4.3380985527
S             6.5566881774        3.5245849858        1.1234148451
Mo            6.4983141591        7.2100041407        2.6677721712
S             8.0802481456        6.3352067719        4.2645567890
S             8.1039069114        6.3093858412        1.0954150022
Mo            8.1495490967        9.9260699452        2.8268363464
S             6.4950497754        8.9378206965        4.3703000915
S             6.6152213114        9.0508395407        1.1449502693
Mo            3.4305919773        1.7526498029        2.7690235229
S             4.9865660231        0.8178425814        4.3661459355
S             5.0419415915        0.8489999006        1.2143736864
Mo            4.9818817846        4.5199196753        2.6356971856
S             3.4371837473        3.6735442495        4.2818562543
S             3.4316936787        3.5407060610        1.0764416670
Mo            3.4590952378        7.2107413037        2.6273933018
S             4.9872952952        6.3194483968        1.0363596579
Mo            5.0059266718        9.9099119132        2.7474177092
S             3.4688441462        8.9419136072        4.3205056042
S             3.4090185445        9.0658220146        1.1039358425
Mo            0.2845422930        1.7433374930        2.8266998162
S             1.8737663555        0.8174152530        4.4021189503
S             1.8470769407        0.8538479419        1.1998623912
Mo            1.8584448644        4.4900180779        2.6709967721
S             0.2735275440        3.6510080893        4.3290424620
S             0.2349597549        3.5291179211        1.1666728453
Mo            0.2695247969        7.2017689600        2.6780000278
S             1.9071766774        6.3061545229        4.2413965010
S             1.8473031687        6.3157211346        1.0522814834
Mo            1.8685816599        9.9386270230        2.7436567124
S             0.3238731807        9.0580515598        4.4434480731
S             0.2658926732        9.0543147105        1.1675125769
H             1.0111398395        9.7073277946        5.4746259114



     Writing config-only to output data dir ./MoS2-V-O.save/
     NEW-OLD atomic charge density approx. for the potential

     negative rho (up, down):  1.462E-04 0.000E+00

     total cpu time spent up to now is      187.8 secs

     Self-consistent Calculation

     iteration #  1     ecut=    80.00 Ry     beta= 0.70
     Davidson diagonalization with overlap
     ethr =  1.00E-06,  avg # of iterations =  8.0

     negative rho (up, down):  1.149E-04 0.000E+00

     total cpu time spent up to now is      200.5 secs

     total energy              =   -2205.56071825 Ry
     estimated scf accuracy    <       0.00118092 Ry

     iteration #  2     ecut=    80.00 Ry     beta= 0.70
     Davidson diagonalization with overlap
     ethr =  3.85E-07,  avg # of iterations =  5.0

     negative rho (up, down):  9.423E-05 0.000E+00

     total cpu time spent up to now is      216.1 secs

     total energy              =   -2205.56075937 Ry
     estimated scf accuracy    <       0.00027569 Ry

     iteration #  3     ecut=    80.00 Ry     beta= 0.70
     Davidson diagonalization with overlap
     ethr =  8.98E-08,  avg # of iterations =  6.0

     negative rho (up, down):  8.818E-05 0.000E+00

     total cpu time spent up to now is      233.2 secs

     total energy              =   -2205.56078163 Ry
     estimated scf accuracy    <       0.00014314 Ry

     iteration #  4     ecut=    80.00 Ry     beta= 0.70
     Davidson diagonalization with overlap
     ethr =  4.66E-08,  avg # of iterations =  2.0

     negative rho (up, down):  8.378E-05 0.000E+00

     total cpu time spent up to now is      245.2 secs

     total energy              =   -2205.56079521 Ry
     estimated scf accuracy    <       0.00001447 Ry

     iteration #  5     ecut=    80.00 Ry     beta= 0.70
     Davidson diagonalization with overlap
     ethr =  4.71E-09,  avg # of iterations =  9.0

     negative rho (up, down):  8.523E-05 0.000E+00

     total cpu time spent up to now is      261.0 secs

     total energy              =   -2205.56079956 Ry
     estimated scf accuracy    <       0.00000221 Ry

     iteration #  6     ecut=    80.00 Ry     beta= 0.70
     Davidson diagonalization with overlap
     ethr =  7.20E-10,  avg # of iterations =  2.0

     negative rho (up, down):  8.978E-05 0.000E+00

     total cpu time spent up to now is      276.2 secs

     total energy              =   -2205.56079974 Ry
     estimated scf accuracy    <       0.00000039 Ry

     iteration #  7     ecut=    80.00 Ry     beta= 0.70
     Davidson diagonalization with overlap
     ethr =  1.26E-10,  avg # of iterations =  5.0

     negative rho (up, down):  9.351E-05 0.000E+00

     total cpu time spent up to now is      290.3 secs

     total energy              =   -2205.56079979 Ry
     estimated scf accuracy    <       0.00000010 Ry

     iteration #  8     ecut=    80.00 Ry     beta= 0.70
     Davidson diagonalization with overlap
     ethr =  3.25E-11,  avg # of iterations =  5.0

     negative rho (up, down):  1.014E-04 0.000E+00

     total cpu time spent up to now is      299.3 secs

     total energy              =   -2205.56079975 Ry
     estimated scf accuracy    <       0.00000004 Ry

     iteration #  9     ecut=    80.00 Ry     beta= 0.70
     Davidson diagonalization with overlap
     ethr =  1.30E-11,  avg # of iterations =  3.0

     negative rho (up, down):  1.374E-04 0.000E+00

     total cpu time spent up to now is      301.3 secs

     End of self-consistent calculation

          k = 0.0000 0.0000 0.0000 (105382 PWs)   bands (ev):

   -62.8513 -62.8355 -62.8101 -62.7960 -62.7916 -62.7804 -62.7718 -62.7573
   -62.7378 -62.7055 -62.6802 -62.6206 -37.1720 -37.1219 -37.0980 -37.0879
   -37.0775 -37.0629 -37.0561 -37.0340 -37.0210 -37.0074 -37.0062 -36.9944
   -36.9784 -36.9748 -36.9700 -36.9637 -36.9574 -36.9561 -36.9494 -36.9298
   -36.9232 -36.9057 -36.8749 -36.8644 -36.8558 -36.8482 -36.8456 -36.8337
   -36.8321 -36.8197 -36.7908 -36.7830 -36.7774 -36.7431 -36.6510 -36.6379
   -16.1478 -15.6048 -15.0811 -15.0527 -14.9077 -14.7899 -14.6466 -14.4322
   -14.4211 -14.3692 -14.3512 -14.3037 -14.2917 -14.2374 -14.1522 -14.0857
   -14.0654 -14.0573 -13.9690 -13.9119 -13.8034 -13.7734 -13.7368  -8.7740
    -7.6189  -7.4063  -7.2786  -7.2182  -7.1726  -7.1412  -7.0883  -7.0460
    -6.7793  -6.7525  -6.7152  -6.6743  -6.5239  -6.4744  -6.4472  -6.3852
    -6.3140  -6.2414  -6.1894  -5.9109  -5.8657  -5.8473  -5.7654  -5.7583
    -5.7196  -5.6741  -5.6336  -5.6093  -5.5779  -5.5510  -5.4699  -5.3952
    -5.3394  -5.3121  -5.1736  -5.1059  -5.0727  -4.9868  -4.9183  -4.9094
    -4.8845  -4.7903  -4.5855  -4.5015  -4.4154  -4.2817  -4.2539  -4.2028
    -4.1790  -4.1470  -4.0103  -3.8690  -3.7543  -3.7041  -3.6799  -3.6469
    -3.6256  -3.5264  -3.5254  -3.4614  -3.4476  -3.4226  -3.4139  -3.3241
    -3.3120  -3.2243  -3.1113  -2.8435  -2.8318  -2.7565  -2.7163  -2.7035
    -2.6489  -2.6277  -2.6055  -2.5652  -2.5298  -2.2161  -1.9745  -1.9516
    -1.9384  -0.7705  -0.7095  -0.6633  -0.1586  -0.1033  -0.0154  -0.0006
     0.1201   0.1533   0.2194   0.2833   0.3162   0.3603   0.4648   0.4742
     0.5406   0.5838   0.6234   0.6408   0.6569   0.6923   0.7239   0.7823
     0.8153   0.8329   0.9361   0.9470   1.0095   1.0446   1.0983   1.3376
     1.4304

     the Fermi energy is    -0.8172 ev

!    total energy              =   -2205.56079960 Ry
     estimated scf accuracy    <       0.00000001 Ry
     smearing contrib. (-TS)   =      -0.00959996 Ry
     internal energy E=F+TS    =   -2205.55119964 Ry

     The total energy is F=E-TS. E is the sum of the following terms:
     one-electron contribution =  -18042.54994327 Ry
     hartree contribution      =    9008.50251946 Ry
     xc contribution           =    -385.33270109 Ry
     ewald contribution        =    7213.82892525 Ry

     convergence has been achieved in   9 iterations

     negative rho (up, down):  1.374E-04 0.000E+00

     Forces acting on atoms (cartesian axes, Ry/au):

     atom    1 type  1   force =    -0.00539781   -0.00029064   -0.00619382
     atom    2 type  2   force =    -0.00412574    0.00771950   -0.00078590
     atom    3 type  2   force =    -0.00799613    0.00417073   -0.01121569
     atom    4 type  1   force =     0.00285822    0.00076056    0.00126536
     atom    5 type  2   force =     0.00118149   -0.00458360   -0.00437968
     atom    6 type  2   force =     0.00186124    0.00313988    0.00304250
     atom    7 type  1   force =     0.00524072   -0.00385209    0.00176062
     atom    8 type  2   force =     0.00078096   -0.00387297    0.00550084
     atom    9 type  2   force =     0.00825145   -0.00055546    0.00041340
     atom   10 type  1   force =     0.00182083    0.00572164    0.00780731
     atom   11 type  2   force =     0.00214557   -0.00117059   -0.00718483
     atom   12 type  2   force =    -0.00267179    0.00196570    0.00096476
     atom   13 type  1   force =     0.00249086    0.00122523   -0.00008405
     atom   14 type  2   force =     0.00277765    0.00045475    0.00455750
     atom   15 type  2   force =    -0.00449805    0.00063229   -0.00437252
     atom   16 type  1   force =     0.00067799    0.00218330    0.00145438
     atom   17 type  2   force =     0.00513720    0.00058011    0.00251446
     atom   18 type  2   force =    -0.00129348   -0.00092966    0.00632833
     atom   19 type  1   force =    -0.00043490   -0.00333876    0.00093902
     atom   20 type  2   force =     0.00284996   -0.00262166   -0.00254991
     atom   21 type  1   force =    -0.00162159    0.00140859    0.00081169
     atom   22 type  2   force =    -0.00005361   -0.00089080   -0.00399563
     atom   23 type  2   force =     0.00464631   -0.00146509   -0.00208189
     atom   24 type  1   force =    -0.00321806   -0.00065559   -0.00141985
     atom   25 type  2   force =     0.00651360    0.00781466   -0.00747455
     atom   26 type  2   force =    -0.00175623    0.00081083   -0.00649297
     atom   27 type  1   force =     0.00079354   -0.00033676    0.00392559
     atom   28 type  2   force =     0.00013822   -0.00474841   -0.00320078
     atom   29 type  2   force =     0.00190918    0.00165140   -0.00351471
     atom   30 type  1   force =     0.00149623   -0.00689244    0.00447243
     atom   31 type  2   force =     0.00146825   -0.00308010    0.00397110
     atom   32 type  2   force =    -0.00309397   -0.00047422    0.00148830
     atom   33 type  1   force =     0.00054124    0.00202955    0.00774948
     atom   34 type  2   force =     0.00023458   -0.00949117   -0.00549439
     atom   35 type  2   force =    -0.00458138    0.00477899    0.00491611
     atom   36 type  3   force =    -0.01507257    0.00220230    0.00655798
     The non-local contrib.  to forces
     atom    1 type  1   force =    -0.00023339    0.02985155   -0.01290769
     atom    2 type  2   force =     0.00235873   -0.00992437   -0.26550627
     atom    3 type  2   force =    -0.00899461   -0.01082147    0.26345182
     atom    4 type  1   force =     0.00016059    0.00846428    0.00327971
     atom    5 type  2   force =     0.00830327   -0.03403056   -0.25139564
     atom    6 type  2   force =    -0.00132672    0.00343817    0.26497020
     atom    7 type  1   force =    -0.02983083   -0.01082778   -0.01902298
     atom    8 type  2   force =    -0.00265483   -0.00941914   -0.25584487
     atom    9 type  2   force =     0.00618855   -0.01277921    0.27203663
     atom   10 type  1   force =     0.00572213    0.00010637   -0.01210928
     atom   11 type  2   force =     0.00848546    0.00524485   -0.25894828
     atom   12 type  2   force =    -0.01211975   -0.01231784    0.26276566
     atom   13 type  1   force =     0.00290975    0.02593792   -0.00949028
     atom   14 type  2   force =     0.00634860   -0.01073012   -0.26498957
     atom   15 type  2   force =    -0.00729461   -0.00661892    0.26216261
     atom   16 type  1   force =    -0.00063020    0.03804288   -0.02395053
     atom   17 type  2   force =     0.00153909   -0.02833066   -0.24947454
     atom   18 type  2   force =    -0.00124203   -0.00079158    0.26891551
     atom   19 type  1   force =     0.01990768   -0.00792918   -0.01341575
     atom   20 type  2   force =     0.00016210   -0.01659338    0.26342199
     atom   21 type  1   force =    -0.00003858    0.02731396    0.00391780
     atom   22 type  2   force =    -0.00321009    0.00653414   -0.24831453
     atom   23 type  2   force =     0.00992879   -0.01467473    0.26163552
     atom   24 type  1   force =     0.00304262    0.01712965   -0.00885789
     atom   25 type  2   force =     0.00177822   -0.00075293   -0.24363620
     atom   26 type  2   force =     0.00542621   -0.01332814    0.26442873
     atom   27 type  1   force =    -0.00245349    0.00812314    0.00607647
     atom   28 type  2   force =    -0.00489049   -0.02525737   -0.27254644
     atom   29 type  2   force =     0.00551078   -0.00251254    0.26475926
     atom   30 type  1   force =     0.00317779    0.01662307   -0.00818088
     atom   31 type  2   force =    -0.00482663   -0.00479698   -0.25661303
     atom   32 type  2   force =    -0.00259828   -0.01204950    0.27186646
     atom   33 type  1   force =     0.00582539    0.00522796    0.00761997
     atom   34 type  2   force =     0.16142671    0.19099901    0.03637124
     atom   35 type  2   force =     0.00147345   -0.01279767    0.27229004
     atom   36 type  3   force =    -0.02837609   -0.02500523   -0.04059356
     The ionic contribution  to forces
     atom    1 type  1   force =    -0.14153226    0.87864998    5.67251186
     atom    2 type  2   force =    -0.41116162    0.31427156   39.41348029
     atom    3 type  2   force =    -0.14415496    0.02687677  -36.46180695
     atom    4 type  1   force =    -0.21876453    0.55041280    0.88791833
     atom    5 type  2   force =    -0.97777483    1.51535178   38.60302831
     atom    6 type  2   force =     0.25661916   -0.53917302  -37.86586286
     atom    7 type  1   force =    -2.60472419   -2.56791715    2.44899914
     atom    8 type  2   force =    -1.00059991    0.12660153   37.60566552
     atom    9 type  2   force =     0.10745679   -0.07889189  -37.98806911
     atom   10 type  1   force =    -0.55777673   -0.95606211    5.35736170
     atom   11 type  2   force =    -0.46983354   -1.69712362   38.93193237
     atom   12 type  2   force =     0.34997908    0.54328035  -37.75300461
     atom   13 type  1   force =     0.42375870    1.01962477    2.61837653
     atom   14 type  2   force =    -0.04547096    0.07615705   38.72276676
     atom   15 type  2   force =     0.23031914    0.00637996  -36.97761202
     atom   16 type  1   force =     0.06576298    3.82543019    0.65064944
[...]
     atom   27 type  1   force =     0.00568979    0.00754233    0.00117911
     atom   28 type  2   force =     0.00038128   -0.01512412   -0.27083369
     atom   29 type  2   force =    -0.00125197   -0.01197526    0.26995047
     atom   30 type  1   force =    -0.00032278   -0.00484566   -0.00965156
     atom   31 type  2   force =    -0.02302883    0.00298114   -0.25906570
     atom   32 type  2   force =     0.00194161   -0.01213264    0.26584029
     atom   33 type  1   force =     0.01974842    0.01167192   -0.00898492
     atom   34 type  2   force =    -0.00180418    0.00948557    0.27348137
     atom   35 type  2   force =    -0.00022325   -0.01348800    0.28376587
     atom   36 type  3   force =     0.00036553   -0.00358317   -0.06330386
     The ionic contribution  to forces
     atom    1 type  1   force =    -0.20634045    0.71640125    2.72025481
     atom    2 type  2   force =    -0.12754680    0.04795251   38.97228227
     atom    3 type  2   force =     0.19877594   -0.04827270  -37.62552216
     atom    4 type  1   force =    -0.39251061    0.24649276    0.85254174
     atom    5 type  2   force =    -0.86450236    1.28065023   38.55780131
     atom    6 type  2   force =     0.08872325   -0.25947562  -38.02469910
     atom    7 type  1   force =    -3.54242475   -1.65380417    1.03780788
     atom    8 type  2   force =    -1.38699856    0.26674351   38.46806732
     atom    9 type  2   force =     0.18701606    0.09289077  -38.30517508
     atom   10 type  1   force =     0.11827691   -0.81553414    2.19951229
     atom   11 type  2   force =    -0.64813794   -1.71427092   38.41977268
     atom   12 type  2   force =     0.16794945    0.11513997  -38.14741813
     atom   13 type  1   force =     0.19395634    0.72560160    3.24034341
     atom   14 type  2   force =     0.01832776   -0.18422356   38.72487229
     atom   15 type  2   force =    -0.01050633   -0.08611634  -37.38749977
     atom   16 type  1   force =     0.02260838    4.16097919    2.51688441
     atom   17 type  2   force =     0.88280774    1.29003855   38.62412259
     atom   18 type  2   force =    -0.10314260   -0.26672361  -37.90753839
     atom   19 type  1   force =     3.55970575   -1.62825193    1.04276572
     atom   20 type  2   force =    -0.00173758    0.06134065  -38.17727169
     atom   21 type  1   force =    -0.00367967   -0.87037339    1.39285660
     atom   22 type  2   force =     0.67472096   -1.71412924   38.40975135
     atom   23 type  2   force =    -0.16012560    0.11401696  -38.11548788
     atom   24 type  1   force =     0.00655698    0.13243339    2.57912386
     atom   25 type  2   force =     0.10617591    0.03873577   39.06295501
     atom   26 type  2   force =    -0.18102138   -0.04694872  -37.57629425
     atom   27 type  1   force =     0.40180649    0.23708416    1.23658223
     atom   28 type  2   force =    -0.02535700    0.50879625   38.32033790
     atom   29 type  2   force =     0.00727591   -0.18974726  -37.52157927
     atom   30 type  1   force =    -0.00659020    0.30301453    2.14006855
     atom   31 type  2   force =     1.35778999    0.28277661   38.53084384
     atom   32 type  2   force =    -0.18969667    0.08763391  -38.30199146
     atom   33 type  1   force =    -0.13478224   -0.79286935    2.44307014
     atom   34 type  2   force =    -0.00557064   -0.58676052   35.51351869
     atom   35 type  2   force =     0.00683459    0.15621517  -36.62197078
     atom   36 type  3   force =    -0.00863703   -0.00743625    8.70631107
     The local contribution  to forces
     atom    1 type  1   force =     0.21482733   -0.74486126   -2.71533760
     atom    2 type  2   force =     0.12576260   -0.03179258  -38.73709034
     atom    3 type  2   force =    -0.19492624    0.05809989   37.37939404
     atom    4 type  1   force =     0.39802341   -0.25286842   -0.85418087
     atom    5 type  2   force =     0.86074188   -1.25794132  -38.32229861
     atom    6 type  2   force =    -0.09306705    0.26376103   37.78307210
     atom    7 type  1   force =     3.58293751    1.65494727   -1.03483408
     atom    8 type  2   force =     1.36593454   -0.27091552  -38.22920392
     atom    9 type  2   force =    -0.18595312   -0.08128143   38.05997199
     atom   10 type  1   force =    -0.09863153    0.80271648   -2.19039766
     atom   11 type  2   force =     0.63739026    1.70604829  -38.19002172
     atom   12 type  2   force =    -0.16302925   -0.10264268   37.90710472
     atom   13 type  1   force =    -0.20241017   -0.75515985   -3.23558703
     atom   14 type  2   force =    -0.01799445    0.19392741  -38.47988550
     atom   15 type  2   force =     0.01022856    0.09523646   37.14537039
     atom   16 type  1   force =    -0.02300486   -4.21701627   -2.48853164
     atom   17 type  2   force =    -0.87886988   -1.26710991  -38.38849710
     atom   18 type  2   force =     0.10700465    0.27094497   37.66527937
     atom   19 type  1   force =    -3.60039305    1.63056736   -1.03929581
     atom   20 type  2   force =     0.00161811   -0.05332737   37.93189239
     atom   21 type  1   force =     0.00428685    0.84920999   -1.39379525
     atom   22 type  2   force =    -0.66384362    1.70613484  -38.17925538
     atom   23 type  2   force =     0.15526913   -0.10099225   37.87474762
     atom   24 type  1   force =    -0.00679959   -0.15225438   -2.57918780
     atom   25 type  2   force =    -0.10479722   -0.02272152  -38.82833303
     atom   26 type  2   force =     0.17741572    0.05734115   37.33073406
     atom   27 type  1   force =    -0.40791709   -0.24465279   -1.23832507
     atom   28 type  2   force =     0.02471258   -0.49407612  -38.07144358
     atom   29 type  2   force =    -0.00686097    0.20143378   37.27294335
     atom   30 type  1   force =     0.00750596   -0.29752633   -2.12966737
     atom   31 type  2   force =    -1.33664958   -0.28705733  -38.29246599
     atom   32 type  2   force =     0.18899896   -0.07659281   38.05741503
     atom   33 type  1   force =     0.11387985    0.78146648   -2.43373057
     atom   34 type  2   force =     0.00690994    0.57876216  -35.77565727
     atom   35 type  2   force =    -0.00679889   -0.14238044   36.35963122
     atom   36 type  3   force =     0.00842994    0.01000725   -8.64404332
     The core correction contribution to forces
     atom    1 type  1   force =     0.00000000    0.00000000    0.00000000
     atom    2 type  2   force =    -0.00022043    0.00108459    0.02018324
     atom    3 type  2   force =     0.00022986    0.00069630   -0.02099161
     atom    4 type  1   force =     0.00000000    0.00000000    0.00000000
     atom    5 type  2   force =    -0.00042872    0.00121085    0.02038453
     atom    6 type  2   force =    -0.00023762   -0.00015847   -0.02072020
     atom    7 type  1   force =     0.00000000    0.00000000    0.00000000
     atom    8 type  2   force =    -0.00151222   -0.00014865    0.02044699
     atom    9 type  2   force =     0.00027244    0.00054907   -0.02095341
     atom   10 type  1   force =     0.00000000    0.00000000    0.00000000
     atom   11 type  2   force =    -0.00073819   -0.00086183    0.02002302
     atom   12 type  2   force =     0.00033752    0.00065036   -0.02076675
     atom   13 type  1   force =     0.00000000    0.00000000    0.00000000
     atom   14 type  2   force =     0.00008522    0.00011272    0.02072429
     atom   15 type  2   force =    -0.00006900    0.00044500   -0.02069950
     atom   16 type  1   force =     0.00000000    0.00000000    0.00000000
     atom   17 type  2   force =     0.00047395    0.00126225    0.02037402
     atom   18 type  2   force =     0.00016726   -0.00022158   -0.02067443
     atom   19 type  1   force =     0.00000000    0.00000000    0.00000000
     atom   20 type  2   force =    -0.00000026    0.00032348   -0.02115093
     atom   21 type  1   force =     0.00000000    0.00000000    0.00000000
     atom   22 type  2   force =     0.00075549   -0.00093107    0.02001787
     atom   23 type  2   force =    -0.00036996    0.00066187   -0.02076248
     atom   24 type  1   force =     0.00000000    0.00000000    0.00000000
     atom   25 type  2   force =     0.00017433    0.00104999    0.02019100
     atom   26 type  2   force =    -0.00017073    0.00068872   -0.02100650
     atom   27 type  1   force =     0.00000000    0.00000000    0.00000000
     atom   28 type  2   force =    -0.00003585    0.00103952    0.02088504
     atom   29 type  2   force =     0.00009337    0.00044677   -0.02088967
     atom   30 type  1   force =     0.00000000    0.00000000    0.00000000
     atom   31 type  2   force =     0.00149185   -0.00007451    0.02045028
     atom   32 type  2   force =    -0.00030385    0.00051874   -0.02095757
     atom   33 type  1   force =     0.00000000    0.00000000    0.00000000
     atom   34 type  2   force =     0.00012536   -0.00083772   -0.01132283
     atom   35 type  2   force =     0.00003449    0.00067546   -0.02143309
     atom   36 type  3   force =     0.00000000    0.00000000    0.00000000
     The Hubbard contrib.    to forces
     atom    1 type  1   force =     0.00000000    0.00000000    0.00000000
     atom    2 type  2   force =     0.00000000    0.00000000    0.00000000
     atom    3 type  2   force =     0.00000000    0.00000000    0.00000000
     atom    4 type  1   force =     0.00000000    0.00000000    0.00000000
     atom    5 type  2   force =     0.00000000    0.00000000    0.00000000
     atom    6 type  2   force =     0.00000000    0.00000000    0.00000000
     atom    7 type  1   force =     0.00000000    0.00000000    0.00000000
     atom    8 type  2   force =     0.00000000    0.00000000    0.00000000
     atom    9 type  2   force =     0.00000000    0.00000000    0.00000000
     atom   10 type  1   force =     0.00000000    0.00000000    0.00000000
     atom   11 type  2   force =     0.00000000    0.00000000    0.00000000
     atom   12 type  2   force =     0.00000000    0.00000000    0.00000000
     atom   13 type  1   force =     0.00000000    0.00000000    0.00000000
     atom   14 type  2   force =     0.00000000    0.00000000    0.00000000
     atom   15 type  2   force =     0.00000000    0.00000000    0.00000000
     atom   16 type  1   force =     0.00000000    0.00000000    0.00000000
     atom   17 type  2   force =     0.00000000    0.00000000    0.00000000
     atom   18 type  2   force =     0.00000000    0.00000000    0.00000000
     atom   19 type  1   force =     0.00000000    0.00000000    0.00000000
     atom   20 type  2   force =     0.00000000    0.00000000    0.00000000
     atom   21 type  1   force =     0.00000000    0.00000000    0.00000000
     atom   22 type  2   force =     0.00000000    0.00000000    0.00000000
     atom   23 type  2   force =     0.00000000    0.00000000    0.00000000
     atom   24 type  1   force =     0.00000000    0.00000000    0.00000000
     atom   25 type  2   force =     0.00000000    0.00000000    0.00000000
     atom   26 type  2   force =     0.00000000    0.00000000    0.00000000
     atom   27 type  1   force =     0.00000000    0.00000000    0.00000000
     atom   28 type  2   force =     0.00000000    0.00000000    0.00000000
     atom   29 type  2   force =     0.00000000    0.00000000    0.00000000
     atom   30 type  1   force =     0.00000000    0.00000000    0.00000000
     atom   31 type  2   force =     0.00000000    0.00000000    0.00000000
     atom   32 type  2   force =     0.00000000    0.00000000    0.00000000
     atom   33 type  1   force =     0.00000000    0.00000000    0.00000000
     atom   34 type  2   force =     0.00000000    0.00000000    0.00000000
     atom   35 type  2   force =     0.00000000    0.00000000    0.00000000
     atom   36 type  3   force =     0.00000000    0.00000000    0.00000000
     The SCF correction term to forces
     atom    1 type  1   force =     0.00000321   -0.00003793   -0.00004382
     atom    2 type  2   force =    -0.00000349    0.00000414   -0.00003427
     atom    3 type  2   force =     0.00000049   -0.00000068   -0.00000734
     atom    4 type  1   force =     0.00002483   -0.00004187   -0.00000682
     atom    5 type  2   force =     0.00001153   -0.00001522    0.00000739
     atom    6 type  2   force =     0.00002268   -0.00003350   -0.00001813
     atom    7 type  1   force =    -0.00004942    0.00005943    0.00000469
     atom    8 type  2   force =     0.00000053   -0.00000339    0.00000008
     atom    9 type  2   force =    -0.00000250   -0.00000614   -0.00000036
     atom   10 type  1   force =    -0.00001987    0.00003103   -0.00005173
     atom   11 type  2   force =    -0.00002148    0.00000152   -0.00002381
     atom   12 type  2   force =    -0.00001106    0.00002121    0.00000409
     atom   13 type  1   force =    -0.00001554   -0.00004135   -0.00002397
     atom   14 type  2   force =    -0.00000699   -0.00000673   -0.00001646
     atom   15 type  2   force =     0.00000061   -0.00001052   -0.00000304
     atom   16 type  1   force =    -0.00001785   -0.00000323    0.00000402
     atom   17 type  2   force =    -0.00001815   -0.00001012    0.00001220
     atom   18 type  2   force =    -0.00002256   -0.00002690   -0.00001453
     atom   19 type  1   force =     0.00000824    0.00007043    0.00002128
     atom   20 type  2   force =    -0.00001840    0.00003936    0.00000172
     atom   21 type  1   force =    -0.00002413   -0.00000952   -0.00002487
     atom   22 type  2   force =     0.00000835   -0.00001951   -0.00002547
     atom   23 type  2   force =     0.00000839   -0.00000652    0.00002064
     atom   24 type  1   force =     0.00000313   -0.00000743   -0.00005606
     atom   25 type  2   force =     0.00001542    0.00000360   -0.00002182
     atom   26 type  2   force =    -0.00000118   -0.00000024   -0.00000378
     atom   27 type  1   force =    -0.00001487   -0.00000800    0.00000392
     atom   28 type  2   force =     0.00000832    0.00000143   -0.00001273
     atom   29 type  2   force =     0.00000424   -0.00002396    0.00000139
     atom   30 type  1   force =     0.00004880    0.00000815    0.00000001
     atom   31 type  2   force =     0.00002198    0.00000910   -0.00000927
     atom   32 type  2   force =     0.00002108    0.00000723    0.00001706
     atom   33 type  1   force =     0.00004520    0.00001022   -0.00003302
     atom   34 type  2   force =     0.00000738    0.00000516   -0.00001103
     atom   35 type  2   force =     0.00000178    0.00002255   -0.00000202
     atom   36 type  3   force =     0.00000157   -0.00000045    0.00000001

     Total force =     0.005692     Total SCF correction =     0.000223
     Energy error            =      8.4E-05 Ry
     Gradient error          =      1.4E-03 Ry/Bohr

     bfgs converged in  32 scf cycles and  31 bfgs steps
     (criteria: energy <  1.0E-04 Ry, force <  1.0E-02 Ry/Bohr)

     End of BFGS Geometry Optimization

     Final energy             =   -2205.5899821462 Ry

     File ./MoS2-V-O.bfgs deleted, as requested
Begin final coordinates

ATOMIC_POSITIONS (angstrom)
Mo            6.5822530973        1.7881661587        2.7691460870
S             8.1442542506        0.8808490474        4.3788742250
S             8.1570670686        0.8763924434        1.1764398778
Mo            8.1459021061        4.5038098182        2.7226741753
S             6.5454187839        3.6844168167        4.3266983355
S             6.5765216919        3.5863590782        1.1178748583
Mo            6.5832692894        7.2063684496        2.6469098063
S             8.0835005743        6.3043903904        4.3165902367
S             8.1832547599        6.3161935548        1.0971638227
Mo            8.1178996100        9.9853327130        2.7662971994
S             6.5419210989        8.9602372000        4.3211362723
S             6.6013873996        9.0747550855        1.1121957133
Mo            3.4532558066        1.7884133384        2.7783135770
S             5.0215352146        0.8394382301        4.3561497250
S             5.0126585281        0.8700168466        1.1828391293
Mo            5.0187975111        4.5589875119        2.6742870940
S             3.4952689386        3.6894128935        4.3325674636
S             3.4566777446        3.5838661711        1.1278468703
Mo            3.4486371376        7.2005348887        2.6476484004
S             5.0165861925        6.3379850334        1.0573501512
Mo            5.0168038610        9.9271982918        2.7366823408
S             3.4956005234        8.9525650301        4.3196368238
S             3.4292994218        9.0694074984        1.1146217326
Mo            0.2918215214        1.7533627171        2.7785505532
S             1.8920451147        0.8768392969        4.3871823649
S             1.8837704417        0.8720994054        1.1797541828
Mo            1.8905067326        4.5070555894        2.7296441211
S             0.2895926706        3.6147067200        4.3289041024
S             0.2949212265        3.5673075209        1.1609290282
Mo            0.2859034252        7.1763678019        2.7457148289
S             1.9440219905        6.3098048449        4.3217138118
S             1.8457719593        6.3142554803        1.0980789217
Mo            1.9188458286        9.9821621314        2.7706297307
S             0.2875426117        9.0488397335        4.2463202319
S             0.2905108167        9.0643643775        1.2151474024
H             0.2800731729        9.1232620795        5.6122483393
End final coordinates



     Writing all to output data dir ./MoS2-V-O.save/
 
     init_run     :      2.40s CPU      2.57s WALL (       1 calls)
     electrons    :   3214.62s CPU   3527.97s WALL (      32 calls)
     update_pot   :     43.29s CPU     45.11s WALL (      31 calls)
     forces       :     43.50s CPU     46.62s WALL (      32 calls)

     Called by init_run:
     wfcinit      :      0.38s CPU      0.42s WALL (       1 calls)
     potinit      :      1.34s CPU      1.41s WALL (       1 calls)
     hinit0       :      0.17s CPU      0.18s WALL (       1 calls)

     Called by electrons:
     c_bands      :    344.28s CPU    348.00s WALL (     292 calls)
     sum_band     :     92.50s CPU    101.08s WALL (     292 calls)
     v_of_rho     :    121.32s CPU    140.14s WALL (     313 calls)
     newd         :     50.22s CPU     56.17s WALL (     313 calls)
     mix_rho      :   2619.92s CPU   2894.66s WALL (     292 calls)

     Called by c_bands:
     init_us_2    :      6.43s CPU      6.68s WALL (     585 calls)
     init_us_2:cp :      6.43s CPU      6.68s WALL (     585 calls)
     regterg      :    323.18s CPU    326.63s WALL (     292 calls)

     Called by *egterg:
     rdiaghg      :     26.78s CPU     27.00s WALL (    1572 calls)
     h_psi        :    186.48s CPU    188.14s WALL (    1615 calls)
     s_psi        :     23.92s CPU     24.00s WALL (    1615 calls)
     g_psi        :      1.26s CPU      1.27s WALL (    1322 calls)

     Called by h_psi:
     h_psi:calbec :     25.92s CPU     26.03s WALL (    1615 calls)
     vloc_psi     :    133.99s CPU    135.41s WALL (    1615 calls)
     add_vuspsi   :     23.45s CPU     23.57s WALL (    1615 calls)

     General routines
     calbec       :     37.09s CPU     37.24s WALL (    2035 calls)
     fft          :     80.39s CPU     93.97s WALL (   20959 calls)
     ffts         :   1176.85s CPU   1442.20s WALL (  636094 calls)
     fftw         :    115.08s CPU    116.13s WALL (  174662 calls)
     interpolate  :      2.23s CPU      2.56s WALL (     313 calls)
 
     Parallel routines
 
     PWSCF        :  55m10.29s CPU      1h 0m WALL

 
   This run was terminated on:   9:51:28   4Nov2023            

=------------------------------------------------------------------------------=
   JOB DONE.
=------------------------------------------------------------------------------=
