
     Program PWSCF v.7.2 starts on  4Nov2023 at  0:33:44 

     This program is part of the open-source Quantum ESPRESSO suite
     for quantum simulation of materials; please cite
         "P. Giannozzi et al., J. Phys.:Condens. Matter 21 395502 (2009);
         "P. Giannozzi et al., J. Phys.:Condens. Matter 29 465901 (2017);
         "P. Giannozzi et al., J. Chem. Phys. 152 154105 (2020);
          URL http://www.quantum-espresso.org", 
     in publications or presentations arising from this work. More details at
     http://www.quantum-espresso.org/quote

     Parallel version (MPI & OpenMP), running on      48 processor cores
     Number of MPI processes:                48
     Threads/MPI process:                     1

     MPI processes distributed on     1 nodes
     148209 MiB available memory on the printing compute node when the environment starts
 
     Waiting for input...
     Reading input from standard input
Warning: card &CELL ignored
Warning: card CELL_DYNAMICS = 'BFGS', ignored
Warning: card CELL_DOFREE = '2DXY' ignored
Warning: card / ignored

     Current dimensions of program PWSCF are:
     Max number of different atomic species (ntypx) = 10
     Max number of k-points (npk) =  40000
     Max angular momentum in pseudopotentials (lmaxx) =  4

     IMPORTANT: XC functional enforced from input :
     Exchange-correlation= RVV10
                           (   1   4  13   4  26   0   0)
     Any further DFT definition will be discarded
     Please, verify this is what you really want


     gamma-point specific algorithms are used
     signal trapping enabled: kill the code with -SIGUSR1 to stop cleanly the simulation 
 
     R & G space division:  proc/nbgrp/npool/nimage =      48
     Subspace diagonalization in iterative solution of the eigenvalue problem:
     one sub-group per band group will be used
     scalapack distributed-memory algorithm (size of sub-group:  2*  2 procs)

 
     Parallelization info
     --------------------
     sticks:   dense  smooth     PW     G-vecs:    dense   smooth      PW
     Min         243     194     47                49060    35090    4376
     Max         246     196     50                49086    35128    4410
     Sum       11735    9389   2349              2355467  1685513  210763
 
     Using Slab Decomposition
 


     bravais-lattice index     =            0
     lattice parameter (alat)  =      17.8707  a.u.
     unit-cell volume          =   17436.2743 (a.u.)^3
     number of atoms/cell      =           36
     number of atomic types    =            3
     number of electrons       =       307.00
     number of Kohn-Sham states=          185
     kinetic-energy cutoff     =      80.0000  Ry
     charge density cutoff     =     400.0000  Ry
     scf convergence threshold =      1.0E-06
     mixing beta               =       0.7000
     number of iterations used =            8  local-TF  mixing
     energy convergence thresh.=      1.0E-04
     force convergence thresh. =      1.0E-02
     Exchange-correlation= RVV10
                           (   1   4  13   4  26   0   0)
     nstep                     =          200


     celldm(1)=  17.870686  celldm(2)=   0.000000  celldm(3)=   0.000000
     celldm(4)=   0.000000  celldm(5)=   0.000000  celldm(6)=   0.000000

     crystal axes: (cart. coord. in units of alat)
               a(1) = (   1.000000   0.000000   0.000000 )  
               a(2) = (   0.000000   1.155671   0.000000 )  
               a(3) = (   0.000000   0.000000   2.643601 )  

     reciprocal axes: (cart. coord. in units 2 pi/alat)
               b(1) = (  1.000000  0.000000  0.000000 )  
               b(2) = (  0.000000  0.865298  0.000000 )  
               b(3) = (  0.000000  0.000000  0.378272 )  


     PseudoPot. # 1 for Mo read from file:
     ../pseudo/Mo_ONCV_PBE-1.0.oncvpsp.upf
     MD5 check sum: 1b5d28e075c9ccadda658a603575cd1f
     Pseudo is Norm-conserving, Zval = 14.0
     Generated using ONCVPSP code by D. R. Hamann
     Using radial grid of 1526 points,  6 beta functions with: 
                l(1) =   0
                l(2) =   0
                l(3) =   1
                l(4) =   1
                l(5) =   2
                l(6) =   2

     PseudoPot. # 2 for S  read from file:
     ../pseudo/s_pbe_v1.4.uspp.F.UPF
     MD5 check sum: 88d86576ff6df21479756cfb9bdac1df
     Pseudo is Ultrasoft + core correction, Zval =  6.0
     Generated by new atomic code, or converted to UPF format
     Using radial grid of  907 points,  6 beta functions with: 
                l(1) =   0
                l(2) =   0
                l(3) =   1
                l(4) =   1
                l(5) =   2
                l(6) =   2
     Q(r) pseudized with  8 coefficients,  rinner =    1.300   1.300   1.300
                                                       1.300   1.300

     PseudoPot. # 3 for H  read from file:
     ../pseudo/H_ONCV_PBE-1.0.oncvpsp.upf
     MD5 check sum: 1790becc920ee074925cf490c71280fe
     Pseudo is Norm-conserving, Zval =  1.0
     Generated using ONCVPSP code by D. R. Hamann
     Using radial grid of 1166 points,  2 beta functions with: 
                l(1) =   0
                l(2) =   0

     atomic species   valence    mass     pseudopotential
        Mo            14.00    95.94000     Mo( 1.00)
        S              6.00    32.06500     S ( 1.00)
        H              1.00     1.00794     H ( 1.00)

     No symmetry found



   Cartesian axes

     site n.     atom                  positions (alat units)
         1           Mo  tau(   1) = (   0.6952221   0.1890506   0.2985846  )
         2           S   tau(   2) = (   0.8646417   0.0856217   0.4689279  )
         3           S   tau(   3) = (   0.8663890   0.0857843   0.1351291  )
         4           Mo  tau(   4) = (   0.8560186   0.4753274   0.2873942  )
         5           S   tau(   5) = (   0.6873294   0.3936244   0.4596353  )
         6           S   tau(   6) = (   0.6929804   0.3713468   0.1185692  )
         7           Mo  tau(   7) = (   0.6862796   0.7633098   0.2825370  )
         8           S   tau(   8) = (   0.8545980   0.6708292   0.4486168  )
         9           S   tau(   9) = (   0.8545123   0.6666874   0.1146125  )
        10           Mo  tau(  10) = (   0.8629403   1.0471007   0.3006803  )
        11           S   tau(  11) = (   0.6868280   0.9456650   0.4634891  )
        12           S   tau(  12) = (   0.6998113   0.9568511   0.1205389  )
        13           Mo  tau(  13) = (   0.3618216   0.1847309   0.2935964  )
        14           S   tau(  14) = (   0.5260962   0.0863870   0.4600448  )
        15           S   tau(  15) = (   0.5348379   0.0894875   0.1297123  )
        16           Mo  tau(  16) = (   0.5265817   0.4772436   0.2784130  )
        17           S   tau(  17) = (   0.3624753   0.3882513   0.4525556  )
        18           S   tau(  18) = (   0.3635411   0.3752055   0.1119148  )
        19           Mo  tau(  19) = (   0.3652268   0.7630864   0.2781795  )
        20           S   tau(  20) = (   0.5269494   0.6690381   0.1096838  )
        21           Mo  tau(  21) = (   0.5300192   1.0470394   0.2900995  )
        22           S   tau(  22) = (   0.3670346   0.9457522   0.4574073  )
        23           S   tau(  23) = (   0.3604225   0.9585725   0.1159032  )
        24           Mo  tau(  24) = (   0.0313099   0.1847895   0.3013130  )
        25           S   tau(  25) = (   0.1956761   0.0838230   0.4650863  )
        26           S   tau(  26) = (   0.1967693   0.0903508   0.1278874  )
        27           Mo  tau(  27) = (   0.1967578   0.4753919   0.2813011  )
        28           S   tau(  28) = (   0.0287851   0.3864324   0.4586755  )
        29           S   tau(  29) = (   0.0244514   0.3729871   0.1239344  )
        30           Mo  tau(  30) = (   0.0286728   0.7631204   0.2856894  )
        31           S   tau(  31) = (   0.2011512   0.6675435   0.4465001  )
        32           S   tau(  32) = (   0.1969214   0.6672839   0.1104564  )
        33           Mo  tau(  33) = (   0.1950294   1.0511147   0.2932237  )
        34           S   tau(  34) = (   0.0312912   0.9612169   0.4667423  )
        35           S   tau(  35) = (   0.0292670   0.9563028   0.1216485  )
        36           H   tau(  36) = (   0.4444444   0.3852236   0.5650415  )

     number of k points=     1  Gaussian smearing, width (Ry)=  0.0100
                       cart. coord. in units 2pi/alat
        k(    1) = (   0.0000000   0.0000000   0.0000000), wk =   2.0000000

     Dense  grid:  1177734 G-vectors     FFT dimensions: ( 120, 135, 320)

     Smooth grid:   842757 G-vectors     FFT dimensions: ( 108, 120, 270)

     Estimated max dynamical RAM per process >     146.59 MB

     Estimated total dynamical RAM >       6.87 GB

     Initial potential from superposition of free atoms

     starting charge     306.9873, renormalised to     307.0000

     negative rho (up, down):  1.407E-04 0.000E+00


---------------------------------------------------------------------------------
Carrying out rVV10 run using the following parameters:
Nqs =      20    Nr_points =    1024   r_max =   100.000
b_value =  6.30000    beta =  0.00901
     q_mesh =  0.00010000  0.00030000  0.00058939  0.00100810
               0.00161396  0.00249058  0.00375900  0.00559430
               0.00824984  0.01209221  0.01765183  0.02569619
               0.03733578  0.05417739  0.07854596  0.11380545
               0.16482331  0.23864234  0.34545298  0.50000000

Gradients computed in Reciprocal space

---------------------------------------------------------------------------------


     Starting wfcs are  213 randomized atomic wfcs

     total cpu time spent up to now is        2.8 secs

     Self-consistent Calculation

     iteration #  1     ecut=    80.00 Ry     beta= 0.70
     Davidson diagonalization with overlap
     ethr =  1.00E-02,  avg # of iterations =  2.0

     Threshold (ethr) on eigenvalues was too large:
     Diagonalizing with lowered threshold

     Davidson diagonalization with overlap
     ethr =  3.89E-04,  avg # of iterations =  4.0

     negative rho (up, down):  2.541E-08 0.000E+00

     total cpu time spent up to now is       16.9 secs

     total energy              =   -2205.61899447 Ry
     estimated scf accuracy    <       1.47472354 Ry

     iteration #  2     ecut=    80.00 Ry     beta= 0.70
     Davidson diagonalization with overlap
     ethr =  4.80E-04,  avg # of iterations =  1.0

     total cpu time spent up to now is       19.2 secs

     total energy              =   -2205.45107522 Ry
     estimated scf accuracy    <       0.61471080 Ry

     iteration #  3     ecut=    80.00 Ry     beta= 0.70
     Davidson diagonalization with overlap
     ethr =  2.00E-04,  avg # of iterations =  4.0

     total cpu time spent up to now is       21.7 secs

     total energy              =   -2205.53978095 Ry
     estimated scf accuracy    <       0.07615938 Ry

     iteration #  4     ecut=    80.00 Ry     beta= 0.70
     Davidson diagonalization with overlap
     ethr =  2.48E-05,  avg # of iterations = 17.0

     total cpu time spent up to now is       24.9 secs

     total energy              =   -2205.54578017 Ry
     estimated scf accuracy    <       0.03182063 Ry

     iteration #  5     ecut=    80.00 Ry     beta= 0.70
     Davidson diagonalization with overlap
     ethr =  1.04E-05,  avg # of iterations =  2.0

     total cpu time spent up to now is       27.1 secs

     total energy              =   -2205.54418065 Ry
     estimated scf accuracy    <       0.01927531 Ry

     iteration #  6     ecut=    80.00 Ry     beta= 0.70
     Davidson diagonalization with overlap
     ethr =  6.28E-06,  avg # of iterations =  2.0

     total cpu time spent up to now is       29.2 secs

     total energy              =   -2205.54376545 Ry
     estimated scf accuracy    <       0.01193903 Ry

     iteration #  7     ecut=    80.00 Ry     beta= 0.70
     Davidson diagonalization with overlap
     ethr =  3.89E-06,  avg # of iterations =  2.0

     total cpu time spent up to now is       32.5 secs

     total energy              =   -2205.54196958 Ry
     estimated scf accuracy    <       0.00845662 Ry

     iteration #  8     ecut=    80.00 Ry     beta= 0.70
     Davidson diagonalization with overlap
     c_bands:  1 eigenvalues not converged
     ethr =  2.75E-06,  avg # of iterations = 20.0

     negative rho (up, down):  3.682E-03 0.000E+00

     total cpu time spent up to now is       37.3 secs

     total energy              =   -2205.54129317 Ry
     estimated scf accuracy    <       0.00458404 Ry

     iteration #  9     ecut=    80.00 Ry     beta= 0.70
     Davidson diagonalization with overlap
     c_bands:  1 eigenvalues not converged
     ethr =  1.49E-06,  avg # of iterations = 20.0

     negative rho (up, down):  2.215E-02 0.000E+00

     total cpu time spent up to now is       41.9 secs

     total energy              =   -2205.54102411 Ry
     estimated scf accuracy    <       0.00273347 Ry

     iteration # 10     ecut=    80.00 Ry     beta= 0.70
     Davidson diagonalization with overlap
     ethr =  8.90E-07,  avg # of iterations =  2.0

     negative rho (up, down):  3.500E-02 0.000E+00

     total cpu time spent up to now is       46.7 secs

     total energy              =   -2205.54105245 Ry
     estimated scf accuracy    <       0.00148929 Ry

     iteration # 11     ecut=    80.00 Ry     beta= 0.70
     Davidson diagonalization with overlap
     ethr =  4.85E-07,  avg # of iterations =  6.0

     negative rho (up, down):  2.188E-02 0.000E+00

     total cpu time spent up to now is       51.6 secs

     total energy              =   -2205.54104590 Ry
     estimated scf accuracy    <       0.00052601 Ry

     iteration # 12     ecut=    80.00 Ry     beta= 0.70
     Davidson diagonalization with overlap
     ethr =  1.71E-07,  avg # of iterations =  2.0

     negative rho (up, down):  1.020E-02 0.000E+00

     total cpu time spent up to now is       56.5 secs

     total energy              =   -2205.54111666 Ry
     estimated scf accuracy    <       0.00009698 Ry

     iteration # 13     ecut=    80.00 Ry     beta= 0.70
     Davidson diagonalization with overlap
     ethr =  3.16E-08,  avg # of iterations =  5.0

     negative rho (up, down):  2.950E-03 0.000E+00

     total cpu time spent up to now is       63.2 secs

     total energy              =   -2205.54116216 Ry
     estimated scf accuracy    <       0.00002182 Ry

     iteration # 14     ecut=    80.00 Ry     beta= 0.70
     Davidson diagonalization with overlap
     ethr =  7.11E-09,  avg # of iterations =  5.0

     negative rho (up, down):  7.769E-04 0.000E+00

     total cpu time spent up to now is       72.5 secs

     total energy              =   -2205.54116093 Ry
     estimated scf accuracy    <       0.00000728 Ry

     iteration # 15     ecut=    80.00 Ry     beta= 0.70
     Davidson diagonalization with overlap
     ethr =  2.37E-09,  avg # of iterations =  3.0

     negative rho (up, down):  4.030E-04 0.000E+00

     total cpu time spent up to now is       81.9 secs

     total energy              =   -2205.54116239 Ry
     estimated scf accuracy    <       0.00000196 Ry

     iteration # 16     ecut=    80.00 Ry     beta= 0.70
     Davidson diagonalization with overlap
     ethr =  6.39E-10,  avg # of iterations =  2.0

     negative rho (up, down):  1.367E-04 0.000E+00

     total cpu time spent up to now is       83.8 secs

     End of self-consistent calculation

          k = 0.0000 0.0000 0.0000 (105382 PWs)   bands (ev):

   -62.9112 -62.8252 -62.8187 -62.8104 -62.8066 -62.7651 -62.7549 -62.7414
   -62.7255 -62.6190 -62.5977 -62.4417 -37.2046 -37.1565 -37.1126 -37.0875
   -37.0788 -37.0699 -37.0416 -37.0338 -37.0137 -37.0085 -37.0028 -36.9935
   -36.9886 -36.9755 -36.9708 -36.9527 -36.9466 -36.9426 -36.9313 -36.9262
   -36.8957 -36.8764 -36.8734 -36.8359 -36.8154 -36.8075 -36.8031 -36.7854
   -36.7739 -36.7646 -36.7562 -36.7519 -36.6594 -36.6062 -36.5488 -36.4892
   -16.4818 -15.7519 -15.0600 -15.0164 -14.8692 -14.7876 -14.6777 -14.4169
   -14.3781 -14.3425 -14.3201 -14.2819 -14.2418 -14.2373 -14.1373 -14.0746
   -14.0467 -14.0191 -13.9561 -13.8341 -13.7665 -13.7467 -13.7182  -9.3141
    -7.5861  -7.4138  -7.2919  -7.2004  -7.1770  -7.1385  -7.1029  -7.0766
    -6.8068  -6.7605  -6.6814  -6.6663  -6.5359  -6.4628  -6.3747  -6.3734
    -6.3159  -6.1787  -6.1577  -5.9391  -5.8951  -5.8524  -5.7989  -5.7234
    -5.6853  -5.6541  -5.6317  -5.5902  -5.5678  -5.5157  -5.4627  -5.4245
    -5.3589  -5.3116  -5.1212  -5.0625  -5.0014  -4.9643  -4.9209  -4.9013
    -4.8541  -4.7993  -4.6126  -4.5599  -4.3876  -4.2911  -4.2428  -4.1715
    -4.1295  -3.9603  -3.9489  -3.8160  -3.7858  -3.7375  -3.6884  -3.6317
    -3.5701  -3.5490  -3.4790  -3.4657  -3.4189  -3.3943  -3.3673  -3.3190
    -3.2868  -3.1297  -3.1103  -2.8544  -2.8139  -2.7673  -2.7062  -2.6730
    -2.6429  -2.5937  -2.5821  -2.5391  -2.4875  -2.2209  -1.9562  -1.9195
    -1.8023  -0.7518  -0.6195  -0.5270  -0.1384  -0.0983  -0.0074   0.0511
     0.1165   0.1530   0.2534   0.2845   0.3024   0.3405   0.4030   0.5045
     0.5336   0.6020   0.6325   0.6594   0.7048   0.7443   0.7635   0.8145
     0.8273   0.8742   0.9409   0.9650   1.0265   1.0379   1.1080   1.3005
     1.4764

     the Fermi energy is    -0.7681 ev

!    total energy              =   -2205.54116321 Ry
     estimated scf accuracy    <       0.00000088 Ry
     smearing contrib. (-TS)   =      -0.00751739 Ry
     internal energy E=F+TS    =   -2205.53364582 Ry

     The total energy is F=E-TS. E is the sum of the following terms:
     one-electron contribution =  -18048.42975221 Ry
     hartree contribution      =    9011.62126073 Ry
     xc contribution           =    -385.39184085 Ry
     ewald contribution        =    7216.66668652 Ry

     convergence has been achieved in  16 iterations

     negative rho (up, down):  1.367E-04 0.000E+00

     Forces acting on atoms (cartesian axes, Ry/au):

     atom    1 type  1   force =     0.01163799   -0.02490827    0.00327165
     atom    2 type  2   force =    -0.01472204    0.01728514    0.00066128
     atom    3 type  2   force =    -0.01128026    0.00909726   -0.00346925
     atom    4 type  1   force =     0.01307244   -0.00037576    0.00358881
     atom    5 type  2   force =    -0.00327220   -0.00270950   -0.00835300
     atom    6 type  2   force =     0.00298316    0.01155013    0.00149424
     atom    7 type  1   force =     0.00039286   -0.00219341   -0.00501097
     atom    8 type  2   force =     0.00071389   -0.00432394    0.01821694
     atom    9 type  2   force =     0.01266829    0.00341049    0.01119288
     atom   10 type  1   force =    -0.01061464    0.00950156   -0.02704498
     atom   11 type  2   force =     0.00428112   -0.00300559   -0.00694531
     atom   12 type  2   force =    -0.00086335    0.00160805    0.00518039
     atom   13 type  1   force =     0.01149479   -0.00263371   -0.00242722
     atom   14 type  2   force =     0.00892628   -0.00107033    0.01300334
     atom   15 type  2   force =    -0.01306217    0.00354959   -0.00903422
     atom   16 type  1   force =     0.00877423    0.00256766   -0.01428601
     atom   17 type  2   force =     0.00532687   -0.01712334   -0.03915958
     atom   18 type  2   force =    -0.00796787   -0.00526032    0.01516932
     atom   19 type  1   force =     0.00362895   -0.00447382   -0.00801762
     atom   20 type  2   force =     0.00288506   -0.00613884   -0.00011164
     atom   21 type  1   force =    -0.00572594    0.00530392   -0.00008478
     atom   22 type  2   force =    -0.00227056   -0.00307093   -0.00158406
     atom   23 type  2   force =     0.00016993    0.00245140    0.00881453
     atom   24 type  1   force =    -0.00766544   -0.00272389   -0.02002118
     atom   25 type  2   force =     0.01449259    0.01554799    0.00667534
     atom   26 type  2   force =    -0.01241744   -0.00052314   -0.00449219
     atom   27 type  1   force =    -0.02641819    0.02586135   -0.01247247
     atom   28 type  2   force =    -0.00421926   -0.00092935   -0.00995608
     atom   29 type  2   force =     0.00560650    0.00093716   -0.00246729
     atom   30 type  1   force =    -0.00488145    0.01025151   -0.00517237
     atom   31 type  2   force =    -0.00229250    0.00834333    0.02175213
     atom   32 type  2   force =    -0.01003527    0.00006069    0.01000605
     atom   33 type  1   force =     0.01350837   -0.00346394   -0.00752855
     atom   34 type  2   force =     0.00334421   -0.04342429   -0.01062381
     atom   35 type  2   force =    -0.00778761    0.00614295    0.01620317
     atom   36 type  3   force =     0.02158866   -0.00511782    0.06303252
     The non-local contrib.  to forces
     atom    1 type  1   force =    -0.00070886    0.03177917   -0.01154548
     atom    2 type  2   force =    -0.00935480    0.00560376   -0.26856128
     atom    3 type  2   force =    -0.01295892   -0.00212592    0.27176430
     atom    4 type  1   force =    -0.00295522    0.01240745    0.00480458
     atom    5 type  2   force =     0.00810462   -0.03268527   -0.23147767
     atom    6 type  2   force =    -0.00178535    0.01159508    0.26135226
     atom    7 type  1   force =    -0.02432622   -0.00935148   -0.01525196
     atom    8 type  2   force =     0.00427603   -0.00224906   -0.25333987
     atom    9 type  2   force =     0.01085397   -0.01307581    0.27716597
     atom   10 type  1   force =     0.00406262   -0.00165300   -0.00098118
     atom   11 type  2   force =     0.01263887    0.00518642   -0.26014235
     atom   12 type  2   force =    -0.01153771   -0.01435658    0.26078379
     atom   13 type  1   force =     0.00028243    0.01666496   -0.01123400
     atom   14 type  2   force =     0.00852803   -0.00591416   -0.25554812
     atom   15 type  2   force =    -0.01720936   -0.00382514    0.26321592
     atom   16 type  1   force =    -0.00158247    0.05162388   -0.00393382
     atom   17 type  2   force =     0.15191229   -0.04094488    0.09967474
     atom   18 type  2   force =    -0.00171772   -0.00664189    0.28004862
     atom   19 type  1   force =     0.02343303   -0.00564804   -0.00988301
     atom   20 type  2   force =     0.00067799   -0.02090593    0.26361342
     atom   21 type  1   force =     0.00539102    0.01954554    0.00472824
     atom   22 type  2   force =    -0.00771226    0.00384604   -0.25828276
     atom   23 type  2   force =     0.00661594   -0.01448802    0.26753813
     atom   24 type  1   force =     0.00156085    0.00947345   -0.01095284
     atom   25 type  2   force =     0.01323782    0.00863209   -0.25570308
     atom   26 type  2   force =    -0.00283977   -0.01599596    0.26485797
     atom   27 type  1   force =    -0.00022967    0.00454876   -0.00670516
     atom   28 type  2   force =    -0.00822777   -0.02294130   -0.26942811
     atom   29 type  2   force =     0.01059936    0.00600936    0.26523287
     atom   30 type  1   force =    -0.00118113    0.02170163    0.01159932
     atom   31 type  2   force =    -0.00881395    0.00987163   -0.24490155
     atom   32 type  2   force =    -0.00572104   -0.02014738    0.27455633
     atom   33 type  1   force =    -0.00647273    0.00211321    0.00634793
     atom   34 type  2   force =     0.00043320   -0.03730238   -0.27310492
     atom   35 type  2   force =    -0.00125532   -0.01130279    0.27021671
     atom   36 type  3   force =    -0.04241857    0.00087168   -0.05500386
     The ionic contribution  to forces
     atom    1 type  1   force =     0.61117603    0.01624059    5.48399716
     atom    2 type  2   force =    -0.62445945    0.33279598   39.27618530
     atom    3 type  2   force =    -0.15306427   -0.01126833  -36.09056554
     atom    4 type  1   force =     0.20336743    0.64373033    0.55894969
     atom    5 type  2   force =    -0.52247298    1.51280290   38.56198726
     atom    6 type  2   force =     0.38670963   -0.50385155  -38.08917169
     atom    7 type  1   force =    -2.52916167   -2.62953896    2.50911689
     atom    8 type  2   force =    -0.94012122    0.10286706   37.37840668
     atom    9 type  2   force =     0.35324923   -0.00987863  -38.01055872
     atom   10 type  1   force =    -1.07306788   -0.35845815    5.68064552
     atom   11 type  2   force =    -0.53248766   -1.59576219   39.14246862
     atom   12 type  2   force =     0.45360126    0.69466215  -37.84712893
     atom   13 type  1   force =     0.33347009    0.60649910    2.41135192
     atom   14 type  2   force =     0.13685326   -0.29451153   38.43372672
     atom   15 type  2   force =     0.17189860   -0.11398466  -36.84853199
     atom   16 type  1   force =     0.18745734    4.19726977   -0.21300193
     atom   17 type  2   force =    -0.31552656    1.54163065   36.39759573
     atom   18 type  2   force =    -0.18313677   -0.64915563  -38.67174158
     atom   19 type  1   force =     2.67352391   -2.23633730    0.54103409
     atom   20 type  2   force =     0.24125694   -0.15096529  -38.52115995
     atom   21 type  1   force =     0.06978712   -0.03537593    1.13142102
     atom   22 type  2   force =     0.44304571   -1.70188906   38.42777940
     atom   23 type  2   force =    -0.09206111    0.66755905  -38.29000151
     atom   24 type  1   force =    -0.63945212    1.02360300    5.76529659
     atom   25 type  2   force =     0.54963400    0.13514233   39.23759587
     atom   26 type  2   force =    -0.31281565    0.02719690  -37.35651211
     atom   27 type  1   force =    -0.26111447    0.53014898   -2.56447266
     atom   28 type  2   force =    -0.04750617    1.00691570   38.17403437
     atom   29 type  2   force =    -0.28347679   -0.42978917  -37.29362084
     atom   30 type  1   force =    -0.38120334   -0.80545995   -0.04570591
     atom   31 type  2   force =     1.10853023    0.09992312   37.28101560
     atom   32 type  2   force =    -0.50350723    0.02932465  -38.65884524
     atom   33 type  1   force =     0.73673110   -0.92044221    2.05707683
     atom   34 type  2   force =     0.22371042   -1.43952846   39.36225854
     atom   35 type  2   force =    -0.30617544    0.47964494  -37.80215485
     atom   36 type  3   force =     0.81680847    0.23823978    8.49122965
     The local contribution  to forces
     atom    1 type  1   force =    -0.59880729   -0.07291733   -5.46803080
     atom    2 type  2   force =     0.61891583   -0.32081922  -39.02702736
     atom    3 type  2   force =     0.15419980    0.02250039   35.83662318
     atom    4 type  1   force =    -0.18718009   -0.65658765   -0.55908781
     atom    5 type  2   force =     0.51132139   -1.48475618  -38.35729826
     atom    6 type  2   force =    -0.38207767    0.50484579   37.85037672
     atom    7 type  1   force =     2.55405348    2.63670331   -2.49773403
     atom    8 type  2   force =     0.93676218   -0.10541687  -37.12655705
     atom    9 type  2   force =    -0.35102487    0.02552936   37.76585270
     atom   10 type  1   force =     1.05846770    0.36969229   -5.70551618
     atom   11 type  2   force =     0.52479871    1.58821283  -38.90928257
     atom   12 type  2   force =    -0.44398649   -0.67985732   37.61251925
     atom   13 type  1   force =    -0.32233059   -0.62575593   -2.40136984
     atom   14 type  2   force =    -0.13610172    0.29976330  -38.18477079
     atom   15 type  2   force =    -0.16869804    0.12108188   36.59726749
     atom   16 type  1   force =    -0.17713876   -4.24650175    0.20382304
     atom   17 type  2   force =     0.17960330   -1.52007931  -36.53407828
     atom   18 type  2   force =     0.17673139    0.65075020   38.42850283
     atom   19 type  1   force =    -2.69347734    2.23747918   -0.53806212
     atom   20 type  2   force =    -0.23910506    0.16487868   38.27871615
     atom   21 type  1   force =    -0.08087804    0.02136473   -1.13515597
     atom   22 type  2   force =    -0.43789703    1.69562664  -38.19089097
     atom   23 type  2   force =     0.08611088   -0.65168586   38.05239438
     atom   24 type  1   force =     0.63027150   -1.03577913   -5.77321324
     atom   25 type  2   force =    -0.54804598   -0.12754437  -38.99503311
     atom   26 type  2   force =     0.30338395   -0.01258174   37.10844078
     atom   27 type  1   force =     0.23480273   -0.50900538    2.55980433
     atom   28 type  2   force =     0.05129315   -0.98661675  -37.93469344
     atom   29 type  2   force =     0.27932155    0.42550799   37.04695912
     atom   30 type  1   force =     0.37748979    0.79398672    0.03005774
     atom   31 type  2   force =    -1.10250398   -0.10135980  -37.03369789
     atom   32 type  2   force =     0.49904868   -0.01040623   38.41559783
     atom   33 type  1   force =    -0.71684705    0.91500815   -2.06980155
     atom   34 type  2   force =    -0.22110538    1.43233487  -39.12027350
     atom   35 type  2   force =     0.29979624   -0.46315250   37.56951737
     atom   36 type  3   force =    -0.75282374   -0.24423933   -8.37313197
     The core correction contribution to forces
     atom    1 type  1   force =     0.00000000    0.00000000    0.00000000
     atom    2 type  2   force =     0.00020065   -0.00034621    0.02062707
     atom    3 type  2   force =     0.00055769   -0.00003177   -0.02095921
     atom    4 type  1   force =     0.00000000    0.00000000    0.00000000
     atom    5 type  2   force =    -0.00025410    0.00187410    0.01899637
     atom    6 type  2   force =     0.00015355   -0.00108055   -0.02077706
     atom    7 type  1   force =     0.00000000    0.00000000    0.00000000
     atom    8 type  2   force =    -0.00015598    0.00046222    0.02029696
     atom    9 type  2   force =    -0.00036707    0.00078593   -0.02099863
     atom   10 type  1   force =     0.00000000    0.00000000    0.00000000
     atom   11 type  2   force =    -0.00059169   -0.00057289    0.02060785
     atom   12 type  2   force =     0.00109075    0.00122503   -0.02069850
     atom   13 type  1   force =     0.00000000    0.00000000    0.00000000
     atom   14 type  2   force =    -0.00036298   -0.00040829    0.02016364
     atom   15 type  2   force =     0.00094688    0.00026603   -0.02068326
     atom   16 type  1   force =     0.00000000    0.00000000    0.00000000
     atom   17 type  2   force =    -0.01073171    0.00225250   -0.00173608
     atom   18 type  2   force =     0.00009864   -0.00023530   -0.02134941
     atom   19 type  1   force =     0.00000000    0.00000000    0.00000000
     atom   20 type  2   force =     0.00009355    0.00078578   -0.02109745
     atom   21 type  1   force =     0.00000000    0.00000000    0.00000000
     atom   22 type  2   force =     0.00021749   -0.00053714    0.02044535
     atom   23 type  2   force =    -0.00053075    0.00118523   -0.02085877
     atom   24 type  1   force =     0.00000000    0.00000000    0.00000000
     atom   25 type  2   force =    -0.00034196   -0.00071691    0.02037775
     atom   26 type  2   force =    -0.00015781    0.00082618   -0.02094873
     atom   27 type  1   force =     0.00000000    0.00000000    0.00000000
     atom   28 type  2   force =     0.00028859    0.00171973    0.02063966
     atom   29 type  2   force =    -0.00079030   -0.00077039   -0.02069035
     atom   30 type  1   force =     0.00000000    0.00000000    0.00000000
     atom   31 type  2   force =     0.00042330   -0.00019625    0.01996017
     atom   32 type  2   force =     0.00006021    0.00117210   -0.02105530
     atom   33 type  1   force =     0.00000000    0.00000000    0.00000000
     atom   34 type  2   force =     0.00031167    0.00112448    0.02109739
     atom   35 type  2   force =    -0.00014587    0.00101226   -0.02105463
     atom   36 type  3   force =     0.00000000    0.00000000    0.00000000
     The Hubbard contrib.    to forces
     atom    1 type  1   force =     0.00000000    0.00000000    0.00000000
     atom    2 type  2   force =     0.00000000    0.00000000    0.00000000
     atom    3 type  2   force =     0.00000000    0.00000000    0.00000000
     atom    4 type  1   force =     0.00000000    0.00000000    0.00000000
     atom    5 type  2   force =     0.00000000    0.00000000    0.00000000
     atom    6 type  2   force =     0.00000000    0.00000000    0.00000000
     atom    7 type  1   force =     0.00000000    0.00000000    0.00000000
     atom    8 type  2   force =     0.00000000    0.00000000    0.00000000
     atom    9 type  2   force =     0.00000000    0.00000000    0.00000000
     atom   10 type  1   force =     0.00000000    0.00000000    0.00000000
     atom   11 type  2   force =     0.00000000    0.00000000    0.00000000
     atom   12 type  2   force =     0.00000000    0.00000000    0.00000000
     atom   13 type  1   force =     0.00000000    0.00000000    0.00000000
     atom   14 type  2   force =     0.00000000    0.00000000    0.00000000
     atom   15 type  2   force =     0.00000000    0.00000000    0.00000000
     atom   16 type  1   force =     0.00000000    0.00000000    0.00000000
     atom   17 type  2   force =     0.00000000    0.00000000    0.00000000
     atom   18 type  2   force =     0.00000000    0.00000000    0.00000000
     atom   19 type  1   force =     0.00000000    0.00000000    0.00000000
     atom   20 type  2   force =     0.00000000    0.00000000    0.00000000
     atom   21 type  1   force =     0.00000000    0.00000000    0.00000000
     atom   22 type  2   force =     0.00000000    0.00000000    0.00000000
     atom   23 type  2   force =     0.00000000    0.00000000    0.00000000
     atom   24 type  1   force =     0.00000000    0.00000000    0.00000000
     atom   25 type  2   force =     0.00000000    0.00000000    0.00000000
     atom   26 type  2   force =     0.00000000    0.00000000    0.00000000
     atom   27 type  1   force =     0.00000000    0.00000000    0.00000000
     atom   28 type  2   force =     0.00000000    0.00000000    0.00000000
     atom   29 type  2   force =     0.00000000    0.00000000    0.00000000
     atom   30 type  1   force =     0.00000000    0.00000000    0.00000000
     atom   31 type  2   force =     0.00000000    0.00000000    0.00000000
     atom   32 type  2   force =     0.00000000    0.00000000    0.00000000
     atom   33 type  1   force =     0.00000000    0.00000000    0.00000000
     atom   34 type  2   force =     0.00000000    0.00000000    0.00000000
     atom   35 type  2   force =     0.00000000    0.00000000    0.00000000
     atom   36 type  3   force =     0.00000000    0.00000000    0.00000000
     The SCF correction term to forces
     atom    1 type  1   force =    -0.00002152   -0.00001441   -0.00111980
     atom    2 type  2   force =    -0.00002391    0.00004710   -0.00053301
     atom    3 type  2   force =    -0.00001419    0.00001918   -0.00030254
     atom    4 type  1   force =    -0.00015932    0.00007040   -0.00104821
     atom    5 type  2   force =     0.00002923    0.00005122   -0.00053126
     atom    6 type  2   force =    -0.00001664    0.00003764   -0.00025654
     atom    7 type  1   force =    -0.00017235   -0.00001000   -0.00111242
     atom    8 type  2   force =    -0.00004676    0.00000899   -0.00056035
     atom    9 type  2   force =    -0.00004261    0.00004592   -0.00023900
     atom   10 type  1   force =    -0.00007672   -0.00008330   -0.00116370
     atom   11 type  2   force =    -0.00007675   -0.00007349   -0.00056743
     atom   12 type  2   force =    -0.00003080   -0.00006894   -0.00026578
     atom   13 type  1   force =     0.00007321   -0.00004556   -0.00114587
     atom   14 type  2   force =     0.00001006   -0.00000337   -0.00053867
     atom   15 type  2   force =     0.00000011    0.00000778   -0.00027292
     atom   16 type  1   force =     0.00003849    0.00017205   -0.00114386
     atom   17 type  2   force =     0.00006991    0.00001399   -0.00058625
     atom   18 type  2   force =     0.00005695    0.00001858   -0.00026171
     atom   19 type  1   force =     0.00014971    0.00002862   -0.00107714
     atom   20 type  2   force =    -0.00003799    0.00006420   -0.00015438
     atom   21 type  1   force =    -0.00002568   -0.00023413   -0.00104863
     atom   22 type  2   force =     0.00007589   -0.00012112   -0.00060564
     atom   23 type  2   force =     0.00003533   -0.00012271   -0.00022826
     atom   24 type  1   force =    -0.00004530   -0.00002491   -0.00112226
     atom   25 type  2   force =     0.00000908    0.00003114   -0.00053265
     atom   26 type  2   force =     0.00001220    0.00002776   -0.00030067
     atom   27 type  1   force =     0.00012358    0.00016528   -0.00106954
     atom   28 type  2   force =    -0.00006670   -0.00001044   -0.00047911
     atom   29 type  2   force =    -0.00004695   -0.00002435   -0.00031866
     atom   30 type  1   force =     0.00001359    0.00001939   -0.00109408
     atom   31 type  2   force =     0.00007226    0.00010092   -0.00059476
     atom   32 type  2   force =     0.00008446    0.00011384   -0.00021812
     atom   33 type  1   force =     0.00009742   -0.00014681   -0.00112233
     atom   34 type  2   force =    -0.00000533   -0.00005652   -0.00057189
     atom   35 type  2   force =    -0.00000686   -0.00006267   -0.00029200
     atom   36 type  3   force =     0.00002287    0.00000634   -0.00003186

     Total force =     0.133704     Total SCF correction =     0.004395

     BFGS Geometry Optimization
     Energy error            =      0.0E+00 Ry
     Gradient error          =      6.3E-02 Ry/Bohr

     number of scf cycles    =   1
     number of bfgs steps    =   0

     energy             new  =   -2205.5411632090 Ry

     new trust radius        =       0.0668233589 bohr
     new conv_thr            =       0.0000010000 Ry


ATOMIC_POSITIONS (angstrom)
Mo            6.5807069652        1.7746253422        2.8253743130
S             8.1689187696        0.8188509273        4.4348882859
S             8.1872638319        0.8160558057        1.2760475767
Mo            8.1020802000        4.4948581024        2.7197175100
S             6.4981776812        3.7209776806        4.3422404324
S             6.5549284200        3.5178496212        1.1220709479
Mo            6.4901895912        7.2172765817        2.6692327937
S             8.0821055009        6.3415828612        4.2521015503
S             8.0876214178        6.3065070705        1.0897860180
Mo            8.1550020204        9.9072084201        2.8291501763
S             6.4974330686        8.9413363229        4.3794302363
S             6.6174903335        9.0495621560        1.1426486463
Mo            3.4277424418        1.7455621488        2.7751867321
S             4.9798890763        0.8163748136        4.3574141638
S             5.0509215532        0.8481404727        1.2218777598
Mo            4.9843998050        4.5145367521        2.6253247186
S             3.4306605202        3.6625384070        4.2589872230
S             3.4337041638        3.5454450571        1.0663789401
Mo            3.4557820955        7.2139570960        2.6264341225
S             4.9847608995        6.3236837498        1.0371946536
Mo            5.0092338834        9.9044067670        2.7433560947
S             3.4697565899        8.9421262014        4.3247530662
S             3.4085190912        9.0662872101        1.1007327487
Mo            0.2920341120        1.7460681115        2.8388499560
S             1.8581313635        0.8009216495        4.4017418744
S             1.8542290063        0.8541490861        1.2070236875
Mo            1.8467114049        4.5093519998        2.6535972321
S             0.2699811108        3.6539070353        4.3323155698
S             0.2341980416        3.5277451501        1.1707122513
Mo            0.2685689976        7.2220709583        2.6989593261
S             1.9010251106        6.3172139367        4.2339548505
S             1.8569277776        6.3103759273        1.0498542544
Mo            1.8514949863        9.9383061168        2.7689623124
S             0.2976825784        9.0670186818        4.4082475855
S             0.2726503728        9.0467764246        1.1589751270
H             4.2144286736        3.6402584320        5.3768171349



     Writing config-only to output data dir ./MoS2-V-O.save/
     NEW-OLD atomic charge density approx. for the potential

     negative rho (up, down):  1.428E-04 0.000E+00

     total cpu time spent up to now is       87.3 secs

     Self-consistent Calculation

     iteration #  1     ecut=    80.00 Ry     beta= 0.70
     Davidson diagonalization with overlap
     ethr =  1.00E-06,  avg # of iterations =  8.0

     negative rho (up, down):  1.705E-04 0.000E+00

     total cpu time spent up to now is      108.5 secs

     total energy              =   -2205.55459547 Ry
     estimated scf accuracy    <       0.00128969 Ry

     iteration #  2     ecut=    80.00 Ry     beta= 0.70
     Davidson diagonalization with overlap
     ethr =  4.20E-07,  avg # of iterations =  2.0

     negative rho (up, down):  2.096E-04 0.000E+00

     total cpu time spent up to now is      123.3 secs

     total energy              =   -2205.55460681 Ry
     estimated scf accuracy    <       0.00028267 Ry

     iteration #  3     ecut=    80.00 Ry     beta= 0.70
     Davidson diagonalization with overlap
     ethr =  9.21E-08,  avg # of iterations =  6.0

     negative rho (up, down):  2.276E-04 0.000E+00

     total cpu time spent up to now is      137.9 secs

     total energy              =   -2205.55464851 Ry
     estimated scf accuracy    <       0.00004581 Ry

     iteration #  4     ecut=    80.00 Ry     beta= 0.70
     Davidson diagonalization with overlap
     ethr =  1.49E-08,  avg # of iterations =  5.0

     negative rho (up, down):  2.298E-04 0.000E+00

     total cpu time spent up to now is      165.6 secs

     total energy              =   -2205.55465892 Ry
     estimated scf accuracy    <       0.00000623 Ry

     iteration #  5     ecut=    80.00 Ry     beta= 0.70
     Davidson diagonalization with overlap
     ethr =  2.03E-09,  avg # of iterations =  5.0

     negative rho (up, down):  2.249E-04 0.000E+00

     total cpu time spent up to now is      179.3 secs

     total energy              =   -2205.55465999 Ry
     estimated scf accuracy    <       0.00000124 Ry

     iteration #  6     ecut=    80.00 Ry     beta= 0.70
     Davidson diagonalization with overlap
     ethr =  4.04E-10,  avg # of iterations =  5.0

     negative rho (up, down):  1.370E-04 0.000E+00

     total cpu time spent up to now is      181.5 secs

     End of self-consistent calculation

          k = 0.0000 0.0000 0.0000 (105382 PWs)   bands (ev):

   -62.9008 -62.8279 -62.8224 -62.8125 -62.8090 -62.7682 -62.7564 -62.7425
   -62.7258 -62.6318 -62.6040 -62.4458 -37.1979 -37.1496 -37.1136 -37.0858
   -37.0810 -37.0697 -37.0471 -37.0369 -37.0178 -37.0089 -37.0063 -36.9952
   -36.9911 -36.9763 -36.9737 -36.9540 -36.9485 -36.9451 -36.9350 -36.9264
   -36.8990 -36.8807 -36.8749 -36.8370 -36.8221 -36.8109 -36.8075 -36.7926
   -36.7804 -36.7728 -36.7597 -36.7593 -36.6651 -36.6142 -36.5568 -36.4968
   -16.3584 -15.7282 -15.0618 -15.0218 -14.8652 -14.7858 -14.6829 -14.4129
   -14.3707 -14.3503 -14.3293 -14.2849 -14.2537 -14.2402 -14.1435 -14.0789
   -14.0483 -14.0315 -13.9657 -13.8275 -13.7778 -13.7482 -13.7362  -9.1486
    -7.5875  -7.4133  -7.2939  -7.2092  -7.1847  -7.1351  -7.1140  -7.0841
    -6.8097  -6.7686  -6.6795  -6.6696  -6.5365  -6.4643  -6.3794  -6.3727
    -6.3244  -6.1798  -6.1581  -5.9316  -5.9009  -5.8502  -5.7995  -5.7243
    -5.6971  -5.6630  -5.6329  -5.6036  -5.5786  -5.5253  -5.4759  -5.4296
    -5.3568  -5.3071  -5.1065  -5.0556  -5.0048  -4.9663  -4.9333  -4.9066
    -4.8650  -4.8120  -4.6129  -4.5700  -4.3937  -4.2992  -4.2378  -4.1767
    -4.1415  -3.9805  -3.9619  -3.8229  -3.7836  -3.7391  -3.6884  -3.6266
    -3.5840  -3.5450  -3.4920  -3.4764  -3.4255  -3.4004  -3.3720  -3.3303
    -3.2924  -3.1425  -3.1127  -2.8590  -2.8154  -2.7485  -2.7052  -2.6880
    -2.6395  -2.6044  -2.6025  -2.5407  -2.4881  -2.2157  -1.9583  -1.9241
    -1.8250  -0.7722  -0.6224  -0.5309  -0.1302  -0.1057   0.0010   0.0735
     0.1213   0.1575   0.2560   0.2873   0.3186   0.3401   0.4116   0.4965
     0.5350   0.6062   0.6280   0.6730   0.7021   0.7278   0.7736   0.7917
     0.8331   0.8801   0.9321   0.9580   1.0320   1.0366   1.1179   1.3044
     1.4813

     the Fermi energy is    -0.7844 ev

!    total energy              =   -2205.55466052 Ry
     estimated scf accuracy    <       0.00000039 Ry
     smearing contrib. (-TS)   =      -0.00714017 Ry
     internal energy E=F+TS    =   -2205.54752035 Ry

     The total energy is F=E-TS. E is the sum of the following terms:
     one-electron contribution =  -18052.44380834 Ry
     hartree contribution      =    9013.58634615 Ry
     xc contribution           =    -385.38537495 Ry
     ewald contribution        =    7218.69531679 Ry

     convergence has been achieved in   6 iterations

     negative rho (up, down):  1.370E-04 0.000E+00

     Forces acting on atoms (cartesian axes, Ry/au):

     atom    1 type  1   force =     0.00284758   -0.01225805   -0.00080593
     atom    2 type  2   force =    -0.00917009    0.01084654   -0.00163629
     atom    3 type  2   force =    -0.00989118    0.00756463   -0.00906365
     atom    4 type  1   force =     0.00827355    0.00107507    0.00270254
     atom    5 type  2   force =    -0.00293791   -0.00316895   -0.00838336
     atom    6 type  2   force =     0.00506188    0.00670019    0.00135939
     atom    7 type  1   force =     0.00105630   -0.00364471   -0.00024832
     atom    8 type  2   force =     0.00039557   -0.00325732    0.01292085
     atom    9 type  2   force =     0.01042197    0.00291391    0.00798380
     atom   10 type  1   force =    -0.00407540    0.00774730   -0.00962217
     atom   11 type  2   force =     0.00359678   -0.00172258   -0.00834523
     atom   12 type  2   force =    -0.00303180    0.00124506    0.00069262
     atom   13 type  1   force =     0.00620228   -0.00584931   -0.00288239
     atom   14 type  2   force =     0.00734493   -0.00158078    0.01042182
     atom   15 type  2   force =    -0.00890968    0.00219478   -0.00797119
     atom   16 type  1   force =     0.00698470    0.00113291   -0.00914383
     atom   17 type  2   force =     0.02731207   -0.00949582   -0.00134089
     atom   18 type  2   force =    -0.00825383   -0.00299435    0.01087327
     atom   19 type  1   force =     0.00175070   -0.00344061   -0.00108428
     atom   20 type  2   force =     0.00315583   -0.00423633   -0.00424651
     atom   21 type  1   force =    -0.00378748    0.00360064    0.00208978
     atom   22 type  2   force =    -0.00092616   -0.00299279   -0.00240218
     atom   23 type  2   force =     0.00094357    0.00106678    0.00414818
     atom   24 type  1   force =    -0.00443982   -0.00163291   -0.00898625
     atom   25 type  2   force =     0.01015909    0.01168052    0.00082217
     atom   26 type  2   force =    -0.00774143   -0.00069974   -0.00464078
     atom   27 type  1   force =    -0.01548747    0.01543955   -0.00296008
     atom   28 type  2   force =    -0.00236589   -0.00146406   -0.00867571
     atom   29 type  2   force =     0.00225079    0.00102447   -0.00607544
     atom   30 type  1   force =    -0.00275136    0.00338273    0.00332005
     atom   31 type  2   force =    -0.00216630    0.00762607    0.01496658
     atom   32 type  2   force =    -0.00934842    0.00431684    0.00401254
     atom   33 type  1   force =     0.00575630   -0.00121894    0.00087215
     atom   34 type  2   force =     0.00035712   -0.03136464   -0.01471478
     atom   35 type  2   force =    -0.00562938    0.00705567    0.00893502
     atom   36 type  3   force =    -0.00295740   -0.00559177    0.02710852
     The non-local contrib.  to forces
     atom    1 type  1   force =     0.00077186    0.02852145   -0.01218093
     atom    2 type  2   force =    -0.00575310    0.00124828   -0.26851719
     atom    3 type  2   force =    -0.01056717   -0.00426368    0.26691182
     atom    4 type  1   force =    -0.00126323    0.01210109    0.00359087
     atom    5 type  2   force =     0.00980963   -0.03514946   -0.23057462
     atom    6 type  2   force =    -0.00039987    0.00682570    0.26242777
     atom    7 type  1   force =    -0.02365258   -0.00963722   -0.01726534
     atom    8 type  2   force =     0.00389751   -0.00139209   -0.25706132
     atom    9 type  2   force =     0.00834844   -0.01335630    0.27519492
     atom   10 type  1   force =     0.00285125   -0.00140508   -0.00138040
     atom   11 type  2   force =     0.01095401    0.00575504   -0.26124270
     atom   12 type  2   force =    -0.01292213   -0.01426536    0.25886751
     atom   13 type  1   force =     0.00155613    0.01767250   -0.01184503
     atom   14 type  2   force =     0.00739342   -0.00616617   -0.25660815
     atom   15 type  2   force =    -0.01345128   -0.00512770    0.26290747
     atom   16 type  1   force =    -0.00142938    0.05167960   -0.00376334
     atom   17 type  2   force =     0.17009324   -0.03897398    0.13495852
     atom   18 type  2   force =    -0.00254642   -0.00433754    0.27939745
     atom   19 type  1   force =     0.02283342   -0.00674209   -0.01179998
     atom   20 type  2   force =     0.00057498   -0.01926175    0.26164849
     atom   21 type  1   force =     0.00432966    0.02041578    0.00381306
     atom   22 type  2   force =    -0.00605943    0.00326053   -0.25916935
     atom   23 type  2   force =     0.00721490   -0.01570874    0.26501308
     atom   24 type  1   force =    -0.00007684    0.01009256   -0.01069900
     atom   25 type  2   force =     0.01046014    0.00559089   -0.25991753
     atom   26 type  2   force =     0.00031233   -0.01548820    0.26505850
     atom   27 type  1   force =    -0.00309155    0.00534144   -0.00558290
     atom   28 type  2   force =    -0.00712376   -0.02228561   -0.26903548
     atom   29 type  2   force =     0.00813896    0.00426439    0.26305212
     atom   30 type  1   force =    -0.00132445    0.02210709    0.00990435
     atom   31 type  2   force =    -0.00894707    0.01057964   -0.24840979
     atom   32 type  2   force =    -0.00427508   -0.01587630    0.27041704
     atom   33 type  1   force =    -0.00468166    0.00096216    0.00487429
     atom   34 type  2   force =    -0.00179822   -0.02739258   -0.27679624
     atom   35 type  2   force =    -0.00011300   -0.01024605    0.26631061
     atom   36 type  3   force =    -0.03630548    0.00021001   -0.04902811
     The ionic contribution  to forces
     atom    1 type  1   force =     0.38478859    0.34752095    5.58040366
     atom    2 type  2   force =    -0.43357795    0.21527076   39.36834878
     atom    3 type  2   force =    -0.12652596    0.01614997  -36.20720340
     atom    4 type  1   force =    -0.03703014    0.62053110    0.76674302
     atom    5 type  2   force =    -0.57727050    1.51625326   38.48206522
     atom    6 type  2   force =     0.39066524   -0.56167065  -38.01074022
     atom    7 type  1   force =    -2.54475869   -2.65304713    2.52697516
     atom    8 type  2   force =    -0.98774427    0.11924564   37.49925828
     atom    9 type  2   force =     0.29208066   -0.03457948  -37.96413912
     atom   10 type  1   force =    -0.82346174   -0.37363328    5.37183950
     atom   11 type  2   force =    -0.49651648   -1.59453221   39.12386676
     atom   12 type  2   force =     0.37595627    0.63949333  -37.84780028
     atom   13 type  1   force =     0.15885345    0.67462487    2.45286689
     atom   14 type  2   force =     0.08033806   -0.26468033   38.56383676
     atom   15 type  2   force =     0.18340202   -0.06831819  -36.91889441
     atom   16 type  1   force =     0.08765177    4.08420736   -0.41537087
     atom   17 type  2   force =    -0.28477273    1.61172907   36.21928920
     atom   18 type  2   force =    -0.20296629   -0.63863432  -38.51272776
     atom   19 type  1   force =     2.68204809   -2.30290509    0.48192819
     atom   20 type  2   force =     0.23203607   -0.13196839  -38.54988143
     atom   21 type  1   force =     0.06843572   -0.11272362    1.27186084
     atom   22 type  2   force =     0.44552862   -1.72055549   38.46454621
     atom   23 type  2   force =    -0.07541607    0.63454726  -38.28405661
     atom   24 type  1   force =    -0.35315929    0.90270794    5.53928768
     atom   25 type  2   force =     0.42501146    0.12116779   39.22447465
     atom   26 type  2   force =    -0.25903476    0.04815649  -37.31805416
     atom   27 type  1   force =     0.08332836    0.30792096   -2.59461145
     atom   28 type  2   force =     0.05948879    0.89961656   38.19065325
     atom   29 type  2   force =    -0.29182069   -0.46616985  -37.35533895
     atom   30 type  1   force =    -0.36863354   -0.80541644   -0.02893614
     atom   31 type  2   force =     1.18540074    0.05508672   37.43093723
     atom   32 type  2   force =    -0.44043147    0.09329359  -38.66749854
     atom   33 type  1   force =     0.53779016   -0.71284013    2.16993794
     atom   34 type  2   force =     0.16689455   -1.21732398   39.28330468
     atom   35 type  2   force =    -0.24474353    0.49912965  -37.73226383
     atom   36 type  3   force =     0.70816549    0.25234531    8.39509327
     The local contribution  to forces
     atom    1 type  1   force =    -0.38267007   -0.38842427   -5.56961095
     atom    2 type  2   force =     0.42988118   -0.20530698  -39.12230795
     atom    3 type  2   force =     0.12668961   -0.00440367   35.95181815
     atom    4 type  1   force =     0.04678960   -0.63151202   -0.76826057
     atom    5 type  2   force =     0.56486145   -1.48623483  -38.27879817
     atom    6 type  2   force =    -0.38533303    0.56247318   37.77011386
     atom    7 type  1   force =     2.56962334    2.65899311   -2.51070751
     atom    8 type  2   force =     0.98449116   -0.12158524  -37.24980391
     atom    9 type  2   force =    -0.28962924    0.05011403   37.71762600
     atom   10 type  1   force =     0.81639999    0.38267874   -5.38110967
     atom   11 type  2   force =     0.48960442    1.58765231  -38.89174631
     atom   12 type  2   force =    -0.36711245   -0.62511007   37.60995384
     atom   13 type  1   force =    -0.15413222   -0.69794774   -2.44441433
     atom   14 type  2   force =    -0.08007014    0.26971797  -38.31715824
     atom   15 type  2   force =    -0.17968187    0.07526195   36.66844342
     atom   16 type  1   force =    -0.07930312   -4.13488252    0.40939617
     atom   17 type  2   force =     0.15341713   -1.58449129  -36.35238574
     atom   18 type  2   force =     0.19715476    0.64030719   38.26525877
     atom   19 type  1   force =    -2.70328195    2.30614469   -0.47198578
     atom   20 type  2   force =    -0.22951035    0.14618647   38.30464622
     atom   21 type  1   force =    -0.07650202    0.09610801   -1.27435410
     atom   22 type  2   force =    -0.44052165    1.71492277  -38.22834645
     atom   23 type  2   force =     0.06969044   -0.61892490   38.04364153
     atom   24 type  1   force =     0.34872314   -0.91417572   -5.53837118
     atom   25 type  2   force =    -0.42488651   -0.11436024  -38.98426910
     atom   26 type  2   force =     0.25125259   -0.03415347   37.06897137
     atom   27 type  1   force =    -0.09582515   -0.29785675    2.59658655
     atom   28 type  2   force =    -0.05500294   -0.88026671  -37.95111108
     atom   29 type  2   force =     0.28666234    0.46370959   37.10663136
     atom   30 type  1   force =     0.36720994    0.78651638    0.02161205
     atom   31 type  2   force =    -1.17921376   -0.05792924  -37.18771315
     atom   32 type  2   force =     0.43520183   -0.07422173   38.42179824
     atom   33 type  1   force =    -0.52729893    0.71055385   -2.17480996
     atom   34 type  2   force =    -0.16506128    1.21231989  -39.04256891
     atom   35 type  2   force =     0.23932577   -0.48289765   37.49553688
     atom   36 type  3   force =    -0.67479294   -0.25815727   -8.31891484
     The core correction contribution to forces
     atom    1 type  1   force =     0.00000000    0.00000000    0.00000000
     atom    2 type  2   force =     0.00014789   -0.00024398    0.02067160
     atom    3 type  2   force =     0.00045093    0.00009229   -0.02086514
     atom    4 type  1   force =     0.00000000    0.00000000    0.00000000
     atom    5 type  2   force =    -0.00038621    0.00196564    0.01891162
     atom    6 type  2   force =     0.00013777   -0.00090905   -0.02077032
     atom    7 type  1   force =     0.00000000    0.00000000    0.00000000
     atom    8 type  2   force =    -0.00013897    0.00042936    0.02040664
     atom    9 type  2   force =    -0.00025826    0.00075371   -0.02095782
     atom   10 type  1   force =     0.00000000    0.00000000    0.00000000
     atom   11 type  2   force =    -0.00046171   -0.00058939    0.02064326
     atom   12 type  2   force =     0.00107925    0.00119271   -0.02064963
     atom   13 type  1   force =     0.00000000    0.00000000    0.00000000
     atom   14 type  2   force =    -0.00033787   -0.00037293    0.02023653
     atom   15 type  2   force =     0.00080642    0.00035283   -0.02068944
     atom   16 type  1   force =     0.00000000    0.00000000    0.00000000
     atom   17 type  2   force =    -0.01151151    0.00217546   -0.00343056
     atom   18 type  2   force =     0.00008204   -0.00033704   -0.02129210
     atom   19 type  1   force =     0.00000000    0.00000000    0.00000000
     atom   20 type  2   force =     0.00010059    0.00074225   -0.02105826
     atom   21 type  1   force =     0.00000000    0.00000000    0.00000000
     atom   22 type  2   force =     0.00013813   -0.00055271    0.02050041
     atom   23 type  2   force =    -0.00052693    0.00122641   -0.02081384
     atom   24 type  1   force =     0.00000000    0.00000000    0.00000000
     atom   25 type  2   force =    -0.00027866   -0.00058620    0.02048490
     atom   26 type  2   force =    -0.00025912    0.00081062   -0.02093977
     atom   27 type  1   force =     0.00000000    0.00000000    0.00000000
     atom   28 type  2   force =     0.00031236    0.00159535    0.02067056
     atom   29 type  2   force =    -0.00069206   -0.00070679   -0.02065106
     atom   30 type  1   force =     0.00000000    0.00000000    0.00000000
     atom   31 type  2   force =     0.00044802   -0.00022303    0.02004966
     atom   32 type  2   force =     0.00000284    0.00103866   -0.02095657
     atom   33 type  1   force =     0.00000000    0.00000000    0.00000000
     atom   34 type  2   force =     0.00035489    0.00078842    0.02121099
     atom   35 type  2   force =    -0.00015643    0.00097450   -0.02094214
     atom   36 type  3   force =     0.00000000    0.00000000    0.00000000
     The Hubbard contrib.    to forces
     atom    1 type  1   force =     0.00000000    0.00000000    0.00000000
     atom    2 type  2   force =     0.00000000    0.00000000    0.00000000
     atom    3 type  2   force =     0.00000000    0.00000000    0.00000000
     atom    4 type  1   force =     0.00000000    0.00000000    0.00000000
     atom    5 type  2   force =     0.00000000    0.00000000    0.00000000
     atom    6 type  2   force =     0.00000000    0.00000000    0.00000000
     atom    7 type  1   force =     0.00000000    0.00000000    0.00000000
     atom    8 type  2   force =     0.00000000    0.00000000    0.00000000
     atom    9 type  2   force =     0.00000000    0.00000000    0.00000000
     atom   10 type  1   force =     0.00000000    0.00000000    0.00000000
     atom   11 type  2   force =     0.00000000    0.00000000    0.00000000
     atom   12 type  2   force =     0.00000000    0.00000000    0.00000000
     atom   13 type  1   force =     0.00000000    0.00000000    0.00000000
     atom   14 type  2   force =     0.00000000    0.00000000    0.00000000
     atom   15 type  2   force =     0.00000000    0.00000000    0.00000000
     atom   16 type  1   force =     0.00000000    0.00000000    0.00000000
     atom   17 type  2   force =     0.00000000    0.00000000    0.00000000
     atom   18 type  2   force =     0.00000000    0.00000000    0.00000000
     atom   19 type  1   force =     0.00000000    0.00000000    0.00000000
     atom   20 type  2   force =     0.00000000    0.00000000    0.00000000
     atom   21 type  1   force =     0.00000000    0.00000000    0.00000000
     atom   22 type  2   force =     0.00000000    0.00000000    0.00000000
     atom   23 type  2   force =     0.00000000    0.00000000    0.00000000
     atom   24 type  1   force =     0.00000000    0.00000000    0.00000000
     atom   25 type  2   force =     0.00000000    0.00000000    0.00000000
     atom   26 type  2   force =     0.00000000    0.00000000    0.00000000
     atom   27 type  1   force =     0.00000000    0.00000000    0.00000000
     atom   28 type  2   force =     0.00000000    0.00000000    0.00000000
     atom   29 type  2   force =     0.00000000    0.00000000    0.00000000
     atom   30 type  1   force =     0.00000000    0.00000000    0.00000000
     atom   31 type  2   force =     0.00000000    0.00000000    0.00000000
     atom   32 type  2   force =     0.00000000    0.00000000    0.00000000
     atom   33 type  1   force =     0.00000000    0.00000000    0.00000000
     atom   34 type  2   force =     0.00000000    0.00000000    0.00000000
     atom   35 type  2   force =     0.00000000    0.00000000    0.00000000
     atom   36 type  3   force =     0.00000000    0.00000000    0.00000000
     The SCF correction term to forces
     atom    1 type  1   force =    -0.00004197    0.00012179    0.00056922
     atom    2 type  2   force =     0.00013273   -0.00012357    0.00015540
     atom    3 type  2   force =     0.00006225   -0.00001232    0.00026186
     atom    4 type  1   force =    -0.00022185   -0.00004713    0.00061615
     atom    5 type  2   force =     0.00004855   -0.00000561   -0.00000047
     atom    6 type  2   force =    -0.00000740   -0.00002102    0.00031522
     atom    7 type  1   force =    -0.00015493    0.00004451    0.00073631
     atom    8 type  2   force =    -0.00010903    0.00004298    0.00010810
     atom    9 type  2   force =    -0.00011879   -0.00002007    0.00024675
     atom   10 type  1   force =     0.00013593    0.00010488    0.00101534
     atom   11 type  2   force =     0.00001737   -0.00001036    0.00012069
     atom   12 type  2   force =    -0.00003192   -0.00006758    0.00030811
     atom   13 type  1   force =    -0.00007425   -0.00020097    0.00049700
     atom   14 type  2   force =     0.00002229   -0.00008136    0.00010184
     atom   15 type  2   force =     0.00001587    0.00002386    0.00024870
     atom   16 type  1   force =     0.00006627    0.00012643    0.00058114
     atom   17 type  2   force =     0.00008678    0.00006290    0.00021462
     atom   18 type  2   force =     0.00002291    0.00000534    0.00022384
     atom   19 type  1   force =     0.00015196    0.00005984    0.00076022
     atom   20 type  2   force =    -0.00004463    0.00006306    0.00038540
     atom   21 type  1   force =    -0.00005002   -0.00020155    0.00075692
     atom   22 type  2   force =    -0.00001099   -0.00006992    0.00005394
     atom   23 type  2   force =    -0.00001794   -0.00007529    0.00035094
     atom   24 type  1   force =     0.00007400   -0.00025972    0.00078319
     atom   25 type  2   force =    -0.00014652   -0.00013376    0.00003617
     atom   26 type  2   force =    -0.00001165   -0.00002720    0.00031021
     atom   27 type  1   force =     0.00010170    0.00003186    0.00063464
     atom   28 type  2   force =    -0.00003951   -0.00012568    0.00013398
     atom   29 type  2   force =    -0.00003693   -0.00007491    0.00021802
     atom   30 type  1   force =    -0.00000248    0.00017366    0.00072672
     atom   31 type  2   force =     0.00014661    0.00010995    0.00008957
     atom   32 type  2   force =     0.00015429    0.00008058    0.00023931
     atom   33 type  1   force =    -0.00005244    0.00010315    0.00085680
     atom   34 type  2   force =    -0.00003199    0.00024159    0.00012163
     atom   35 type  2   force =     0.00005863    0.00009319    0.00028043
     atom   36 type  3   force =    -0.00002364    0.00000816   -0.00005487

     Total force =     0.082562     Total SCF correction =     0.002852
     Energy error            =      1.3E-02 Ry
     Gradient error          =      3.1E-02 Ry/Bohr

     number of scf cycles    =   2
     number of bfgs steps    =   1

     energy             old  =   -2205.5411632090 Ry
     energy             new  =   -2205.5546605167 Ry

     CASE: energy            _new < energy            _old

     new trust radius        =       0.0735056947 bohr
     new conv_thr            =       0.0000000314 Ry


ATOMIC_POSITIONS (angstrom)
Mo            6.5855183078        1.7589876193        2.8253350113
S             8.1580082497        0.8317302306        4.4336037556
S             8.1764217869        0.8244423645        1.2674958171
Mo            8.1118816715        4.4957138833        2.7227819223
S             6.4949731086        3.7176862688        4.3332944111
S             6.5599150312        3.5259812712        1.1235497310
Mo            6.4911839280        7.2136769146        2.6680083328
S             8.0825920256        6.3378897022        4.2669657733
S             8.0992029305        6.3097187037        1.0989578609
Mo            8.1493329857        9.9158346857        2.8153658706
S             6.5014117163        8.9392384512        4.3708007877
S             6.6146896071        9.0509648045        1.1442921838
Mo            3.4354315432        1.7399636704        2.7722004616
S             4.9880508494        0.8147895964        4.3690630305
S             5.0405709938        0.8507570461        1.2131516427
Mo            4.9922188398        4.5160355139        2.6145247716
S             3.4553973395        3.6508619983        4.2499378974
S             3.4249479448        3.5417911424        1.0788552286
Mo            3.4580298924        7.2100749413        2.6238797608
S             4.9880762968        6.3187768001        1.0334928800
Mo            5.0047989908        9.9085947761        2.7451496568
S             3.4684968025        8.9389146267        4.3223526987
S             3.4093708506        9.0677052575        1.1061022624
Mo            0.2866433626        1.7441046724        2.8270313642
S             1.8698525604        0.8141736344        4.4037987687
S             1.8450205016        0.8534374446        1.2020979754
Mo            1.8279714989        4.5279382234        2.6485203300
S             0.2670813966        3.6524513486        4.3227933516
S             0.2372774456        3.5288215370        1.1649513719
Mo            0.2652019255        7.2270667016        2.7007940775
S             1.8986864202        6.3255018744        4.2513036060
S             1.8468067616        6.3141283722        1.0553462477
Mo            1.8592032510        9.9365522840        2.7682015580
S             0.2986655892        9.0310970110        4.3933584700
S             0.2662043485        9.0541269581        1.1699803082
H             4.2162147019        3.6343827468        5.4130006940



     Writing config-only to output data dir ./MoS2-V-O.save/
     NEW-OLD atomic charge density approx. for the potential

     negative rho (up, down):  1.503E-04 0.000E+00

     total cpu time spent up to now is      184.9 secs

     Self-consistent Calculation

     iteration #  1     ecut=    80.00 Ry     beta= 0.70
     Davidson diagonalization with overlap
     c_bands:  1 eigenvalues not converged
     ethr =  1.00E-06,  avg # of iterations = 20.0

     negative rho (up, down):  1.313E-04 0.000E+00

     total cpu time spent up to now is      199.1 secs

     total energy              =   -2205.56496414 Ry
     estimated scf accuracy    <       0.00146539 Ry

     iteration #  2     ecut=    80.00 Ry     beta= 0.70
     Davidson diagonalization with overlap
     ethr =  4.77E-07,  avg # of iterations =  2.0

     negative rho (up, down):  1.297E-04 0.000E+00

     total cpu time spent up to now is      216.3 secs

     total energy              =   -2205.56499992 Ry
     estimated scf accuracy    <       0.00029052 Ry

     iteration #  3     ecut=    80.00 Ry     beta= 0.70
     Davidson diagonalization with overlap
     ethr =  9.46E-08,  avg # of iterations =  6.0

     negative rho (up, down):  1.293E-04 0.000E+00

     total cpu time spent up to now is      229.9 secs

     total energy              =   -2205.56503017 Ry
     estimated scf accuracy    <       0.00006109 Ry

     iteration #  4     ecut=    80.00 Ry     beta= 0.70
     Davidson diagonalization with overlap
     ethr =  1.99E-08,  avg # of iterations =  4.0

     negative rho (up, down):  1.296E-04 0.000E+00

     total cpu time spent up to now is      240.5 secs

     total energy              =   -2205.56504076 Ry
     estimated scf accuracy    <       0.00000375 Ry

     iteration #  5     ecut=    80.00 Ry     beta= 0.70
     Davidson diagonalization with overlap
     ethr =  1.22E-09,  avg # of iterations = 16.0

     negative rho (up, down):  1.303E-04 0.000E+00

     total cpu time spent up to now is      259.6 secs

     total energy              =   -2205.56504282 Ry
     estimated scf accuracy    <       0.00000202 Ry

     iteration #  6     ecut=    80.00 Ry     beta= 0.70
     Davidson diagonalization with overlap
     ethr =  6.57E-10,  avg # of iterations =  2.0

     negative rho (up, down):  1.316E-04 0.000E+00

     total cpu time spent up to now is      274.1 secs

     total energy              =   -2205.56504298 Ry
     estimated scf accuracy    <       0.00000029 Ry

     iteration #  7     ecut=    80.00 Ry     beta= 0.70
     Davidson diagonalization with overlap
     ethr =  9.36E-11,  avg # of iterations =  4.0

     negative rho (up, down):  1.324E-04 0.000E+00

     total cpu time spent up to now is      291.9 secs

     total energy              =   -2205.56504302 Ry
     estimated scf accuracy    <       0.00000005 Ry

     iteration #  8     ecut=    80.00 Ry     beta= 0.70
     Davidson diagonalization with overlap
     ethr =  1.75E-11,  avg # of iterations =  6.0

     negative rho (up, down):  1.375E-04 0.000E+00

     total cpu time spent up to now is      294.0 secs

     End of self-consistent calculation

          k = 0.0000 0.0000 0.0000 (105382 PWs)   bands (ev):

   -62.8909 -62.8330 -62.8258 -62.8138 -62.8121 -62.7706 -62.7565 -62.7417
   -62.7211 -62.6457 -62.6063 -62.4505 -37.1923 -37.1384 -37.1145 -37.0853
   -37.0849 -37.0671 -37.0526 -37.0415 -37.0218 -37.0093 -37.0078 -36.9970
   -36.9923 -36.9788 -36.9727 -36.9550 -36.9502 -36.9447 -36.9377 -36.9243
   -36.9007 -36.8830 -36.8744 -36.8355 -36.8290 -36.8140 -36.8127 -36.8007
   -36.7855 -36.7779 -36.7614 -36.7609 -36.6751 -36.6219 -36.5628 -36.5013
   -16.2898 -15.7113 -15.0638 -15.0307 -14.8610 -14.7815 -14.6865 -14.4077
   -14.3648 -14.3610 -14.3444 -14.2832 -14.2647 -14.2426 -14.1468 -14.0824
   -14.0527 -14.0389 -13.9761 -13.8294 -13.7855 -13.7606 -13.7398  -9.0366
    -7.5862  -7.4051  -7.2916  -7.2209  -7.1903  -7.1304  -7.1256  -7.0903
    -6.8012  -6.7745  -6.6787  -6.6707  -6.5374  -6.4676  -6.3830  -6.3695
    -6.3353  -6.1889  -6.1601  -5.9177  -5.9121  -5.8507  -5.8028  -5.7223
    -5.7108  -5.6723  -5.6347  -5.6113  -5.5855  -5.5339  -5.4848  -5.4340
    -5.3488  -5.3014  -5.0956  -5.0501  -5.0072  -4.9692  -4.9463  -4.9054
    -4.8837  -4.8198  -4.6082  -4.5835  -4.4018  -4.3068  -4.2306  -4.1854
    -4.1546  -4.0021  -3.9767  -3.8379  -3.7787  -3.7409  -3.6842  -3.6260
    -3.5998  -3.5476  -3.5053  -3.4774  -3.4272  -3.4104  -3.3756  -3.3403
    -3.2952  -3.1533  -3.1203  -2.8663  -2.8189  -2.7327  -2.6970  -2.6931
    -2.6435  -2.6217  -2.6099  -2.5345  -2.4880  -2.2051  -1.9582  -1.9239
    -1.8452  -0.7994  -0.6252  -0.5196  -0.1472  -0.1023   0.0093   0.1014
     0.1284   0.1588   0.2568   0.2814   0.3326   0.3492   0.4194   0.4871
     0.5343   0.6148   0.6221   0.6833   0.7018   0.7124   0.7685   0.7893
     0.8401   0.8971   0.9219   0.9527   1.0285   1.0384   1.1348   1.2999
     1.4653

     the Fermi energy is    -0.8069 ev

!    total energy              =   -2205.56504302 Ry
     estimated scf accuracy    <       0.00000001 Ry
     smearing contrib. (-TS)   =      -0.00663964 Ry
     internal energy E=F+TS    =   -2205.55840338 Ry

     The total energy is F=E-TS. E is the sum of the following terms:
     one-electron contribution =  -18055.23901234 Ry
     hartree contribution      =    9014.98570156 Ry
     xc contribution           =    -385.38958219 Ry
     ewald contribution        =    7220.08448959 Ry

     convergence has been achieved in   8 iterations

     negative rho (up, down):  1.375E-04 0.000E+00

     Forces acting on atoms (cartesian axes, Ry/au):

     atom    1 type  1   force =    -0.00687063    0.00231408   -0.00620281
     atom    2 type  2   force =    -0.00206924    0.00322512   -0.00256895
     atom    3 type  2   force =    -0.00672390    0.00460850   -0.01215954
     atom    4 type  1   force =     0.00172201    0.00094675    0.00082685
     atom    5 type  2   force =     0.00016885   -0.00287419   -0.00791012
     atom    6 type  2   force =     0.00681380    0.00105270   -0.00004522
     atom    7 type  1   force =     0.00103108   -0.00422636    0.00233980
     atom    8 type  2   force =    -0.00044412   -0.00257299    0.00728408
     atom    9 type  2   force =     0.00650254    0.00242639    0.00407995
     atom   10 type  1   force =     0.00082123    0.00496901    0.00440964
     atom   11 type  2   force =     0.00255754   -0.00012914   -0.00745940
     atom   12 type  2   force =    -0.00460958    0.00050746   -0.00188147
     atom   13 type  1   force =     0.00116402   -0.00664336   -0.00059877
     atom   14 type  2   force =     0.00451025   -0.00257764    0.00569480
     atom   15 type  2   force =    -0.00372703   -0.00049510   -0.00588242
     atom   16 type  1   force =     0.00479032    0.00004833   -0.00227122
     atom   17 type  2   force =     0.02364337    0.00260549    0.01036441
     atom   18 type  2   force =    -0.00826395    0.00014638    0.00666018
     atom   19 type  1   force =    -0.00021021   -0.00177913    0.00326352
     atom   20 type  2   force =     0.00276775   -0.00135876   -0.00667238
     atom   21 type  1   force =    -0.00074721    0.00176446    0.00191143
     atom   22 type  2   force =     0.00081111   -0.00256151   -0.00132074
     atom   23 type  2   force =     0.00119139   -0.00073476    0.00044647
     atom   24 type  1   force =    -0.00124571    0.00061871   -0.00005828
     atom   25 type  2   force =     0.00396698    0.00594287   -0.00403114
     atom   26 type  2   force =    -0.00187227   -0.00145658   -0.00327419
     atom   27 type  1   force =     0.00226909    0.00031295    0.00955625
     atom   28 type  2   force =     0.00060362   -0.00165834   -0.00518967
     atom   29 type  2   force =    -0.00067612    0.00166574   -0.00770921
     atom   30 type  1   force =    -0.00040761   -0.00368844    0.00734458
     atom   31 type  2   force =    -0.00111499    0.00447172    0.00722867
     atom   32 type  2   force =    -0.00728039    0.00831224   -0.00092347
     atom   33 type  1   force =    -0.00254609    0.00111095    0.00549038
     atom   34 type  2   force =    -0.00257510   -0.01318048   -0.01275939
     atom   35 type  2   force =    -0.00232336    0.00634693    0.00182155
     atom   36 type  3   force =    -0.01162742   -0.00746001    0.01019587
     The non-local contrib.  to forces
     atom    1 type  1   force =     0.00189431    0.02476719   -0.01286245
     atom    2 type  2   force =    -0.00084620   -0.00435697   -0.26708888
     atom    3 type  2   force =    -0.00661661   -0.00712053    0.26290840
     atom    4 type  1   force =     0.00063867    0.01209034    0.00276571
     atom    5 type  2   force =     0.01388720   -0.03649352   -0.23097479
     atom    6 type  2   force =     0.00082911    0.00142984    0.26268479
     atom    7 type  1   force =    -0.02316482   -0.01006665   -0.01932971
     atom    8 type  2   force =     0.00331569   -0.00055364   -0.26057689
     atom    9 type  2   force =     0.00395802   -0.01414453    0.27229011
     atom   10 type  1   force =     0.00198593   -0.00082162   -0.00067419
     atom   11 type  2   force =     0.00875760    0.00636340   -0.26125485
     atom   12 type  2   force =    -0.01380741   -0.01433016    0.25844569
     atom   13 type  1   force =     0.00306768    0.01748107   -0.01302085
     atom   14 type  2   force =     0.00491675   -0.00682111   -0.25855290
     atom   15 type  2   force =    -0.00888704   -0.00750806    0.26259041
     atom   16 type  1   force =    -0.00111519    0.05212668   -0.00464394
     atom   17 type  2   force =     0.16914689   -0.03957446    0.15199139
     atom   18 type  2   force =    -0.00314861   -0.00158370    0.27966463
     atom   19 type  1   force =     0.02210578   -0.00811713   -0.01360051
     atom   20 type  2   force =    -0.00010542   -0.01648879    0.26051827
     atom   21 type  1   force =     0.00304498    0.02098808    0.00303536
     atom   22 type  2   force =    -0.00420212    0.00283681   -0.25905784
     atom   23 type  2   force =     0.00733453   -0.01732816    0.26310812
     atom   24 type  1   force =    -0.00184149    0.01090495   -0.00949870
     atom   25 type  2   force =     0.00627521    0.00046983   -0.26294388
     atom   26 type  2   force =     0.00414375   -0.01503305    0.26595565
     atom   27 type  1   force =    -0.00763821    0.00752750   -0.00429949
     atom   28 type  2   force =    -0.00527060   -0.02112938   -0.26713999
     atom   29 type  2   force =     0.00582973    0.00212758    0.26238076
     atom   30 type  1   force =    -0.00148858    0.02277575    0.00842829
     atom   31 type  2   force =    -0.00865165    0.01022820   -0.25156033
     atom   32 type  2   force =    -0.00151259   -0.01163965    0.26639406
     atom   33 type  1   force =    -0.00307609   -0.00062503    0.00383371
     atom   34 type  2   force =    -0.00375428   -0.01272556   -0.27696934
     atom   35 type  2   force =     0.00183053   -0.01069254    0.26308711
     atom   36 type  3   force =    -0.03242493   -0.00031795   -0.04726471
     The ionic contribution  to forces
     atom    1 type  1   force =     0.14263545    0.70822181    5.55286218
     atom    2 type  2   force =    -0.19774338    0.09316668   39.46882488
     atom    3 type  2   force =    -0.07204337    0.02697930  -36.40522791
     atom    4 type  1   force =    -0.32024511    0.55052898    1.02177876
     atom    5 type  2   force =    -0.61369596    1.51442085   38.34807203
     atom    6 type  2   force =     0.39131969   -0.62250892  -37.93149791
     atom    7 type  1   force =    -2.61172108   -2.61721931    2.55377153
     atom    8 type  2   force =    -1.07055983    0.12750229   37.69437827
     atom    9 type  2   force =     0.20895656   -0.03615440  -37.90376307
     atom   10 type  1   force =    -0.57508181   -0.38716682    5.05715209
     atom   11 type  2   force =    -0.46097623   -1.59047267   39.05024872
     atom   12 type  2   force =     0.29740498    0.55776224  -37.83112823
     atom   13 type  1   force =    -0.11725245    0.90845653    2.41747830
     atom   14 type  2   force =     0.00875685   -0.22746591   38.75072907
     atom   15 type  2   force =     0.19917330   -0.03094693  -37.05439182
[...]
     atom   27 type  1   force =    -0.00573179    0.01690602   -0.00332599
     atom   28 type  2   force =     0.00533060   -0.00968183   -0.26159604
     atom   29 type  2   force =     0.00194952   -0.00816307    0.26607275
     atom   30 type  1   force =    -0.00400481    0.02433673    0.00626477
     atom   31 type  2   force =    -0.00642808   -0.00561774   -0.25813628
     atom   32 type  2   force =     0.00492510   -0.02523771    0.26886120
     atom   33 type  1   force =    -0.00472790   -0.00534660    0.00047830
     atom   34 type  2   force =     0.00074429   -0.00948361   -0.27182725
     atom   35 type  2   force =    -0.00004351   -0.01322699    0.26526673
     atom   36 type  3   force =     0.01266190    0.00247694   -0.05946356
     The ionic contribution  to forces
     atom    1 type  1   force =    -0.07910819    0.94838481    1.71582811
     atom    2 type  2   force =    -0.23685335    0.14714186   38.82219132
     atom    3 type  2   force =     0.07496843   -0.05427313  -37.54542197
     atom    4 type  1   force =    -0.98247475    0.78318627    0.83754700
     atom    5 type  2   force =    -0.83575756    1.31798221   37.88446255
     atom    6 type  2   force =     0.16936584   -0.15226871  -37.90064443
     atom    7 type  1   force =    -2.52045287   -2.99234631    2.22724460
     atom    8 type  2   force =    -1.42760540    0.02144241   38.17113571
     atom    9 type  2   force =     0.18268618   -0.04362166  -37.66818553
     atom   10 type  1   force =    -0.17651668   -0.38861891    3.26305445
     atom   11 type  2   force =    -0.43265203   -1.46114618   38.92283862
     atom   12 type  2   force =     0.19150574    0.30621799  -38.17478068
     atom   13 type  1   force =     0.37729628    0.60000288    2.35779578
     atom   14 type  2   force =     0.13548179    0.00072088   38.61580199
     atom   15 type  2   force =    -0.02398367   -0.05192531  -37.68902268
     atom   16 type  1   force =     0.81331049    3.67248010    0.96380677
     atom   17 type  2   force =     1.35539225    1.27501698   36.04096783
     atom   18 type  2   force =    -0.13004548   -0.29870343  -37.98741125
     atom   19 type  1   force =     2.44601243   -1.82460496    3.32854132
     atom   20 type  2   force =     0.09903072   -0.05202084  -38.48611407
     atom   21 type  1   force =    -0.30015550   -0.44225485    1.27463982
     atom   22 type  2   force =     0.43735673   -1.43966180   38.55222644
     atom   23 type  2   force =    -0.27548157    0.15150028  -37.66843411
     atom   24 type  1   force =    -0.16706607    0.24118142    2.02319151
     atom   25 type  2   force =     0.03100908   -0.07595951   38.95504127
     atom   26 type  2   force =    -0.11485581   -0.13409921  -37.61678137
     atom   27 type  1   force =     0.26867678    0.83319464   -0.29136729
     atom   28 type  2   force =    -0.27906890    0.45696890   38.25708554
     atom   29 type  2   force =    -0.09688900   -0.12836714  -37.92136542
     atom   30 type  1   force =     0.08970556   -0.61108327    2.69385431
     atom   31 type  2   force =     1.16332213    0.29007332   38.22746968
     atom   32 type  2   force =    -0.16511473    0.18769140  -37.77639396
     atom   33 type  1   force =     0.54395425   -0.78803322    3.27900953
     atom   34 type  2   force =    -0.03734298   -0.48584095   38.99757221
     atom   35 type  2   force =     0.04087976    0.09019918  -37.31265628
     atom   36 type  3   force =    -0.13852993    0.10144385    8.62727270
     The local contribution  to forces
     atom    1 type  1   force =     0.07789976   -0.97128961   -1.70853797
     atom    2 type  2   force =     0.23799112   -0.13984753  -38.57834703
     atom    3 type  2   force =    -0.07224708    0.06068549   37.29836290
     atom    4 type  1   force =     0.98043170   -0.79696346   -0.84265741
     atom    5 type  2   force =     0.83130235   -1.30313203  -37.66117890
     atom    6 type  2   force =    -0.16634464    0.15400066   37.65447524
     atom    7 type  1   force =     2.54106707    3.00193460   -2.22089257
     atom    8 type  2   force =     1.41828565   -0.01903937  -37.92792214
     atom    9 type  2   force =    -0.17758143    0.05659669   37.41870416
     atom   10 type  1   force =     0.17630986    0.38636621   -3.26655916
     atom   11 type  2   force =     0.42575157    1.45565963  -38.68597425
     atom   12 type  2   force =    -0.18542708   -0.29647406   37.93635998
     atom   13 type  1   force =    -0.38144725   -0.60673204   -2.34462616
     atom   14 type  2   force =    -0.12919631    0.00288727  -38.37604789
     atom   15 type  2   force =     0.02527323    0.05941536   37.44697262
     atom   16 type  1   force =    -0.81692849   -3.72507398   -0.94760638
     atom   17 type  2   force =    -1.27180995   -1.24651287  -36.28186523
     atom   18 type  2   force =     0.13178278    0.30436763   37.73291308
     atom   19 type  1   force =    -2.48270846    1.83123171   -3.30394817
     atom   20 type  2   force =    -0.09796339    0.06656364   38.24518372
     atom   21 type  1   force =     0.29491104    0.42831466   -1.27470401
     atom   22 type  2   force =    -0.43304626    1.44309857  -38.31254238
     atom   23 type  2   force =     0.26463457   -0.13829577   37.42365787
     atom   24 type  1   force =     0.16977311   -0.25631287   -2.02181778
     atom   25 type  2   force =    -0.03675960    0.07831773  -38.71865451
     atom   26 type  2   force =     0.11094207    0.14391742   37.36837512
     atom   27 type  1   force =    -0.26298946   -0.85054436    0.29481277
     atom   28 type  2   force =     0.27289668   -0.44728829  -38.01590758
     atom   29 type  2   force =     0.09539820    0.13675489   37.67576709
     atom   30 type  1   force =    -0.08610478    0.58666958   -2.70106771
     atom   31 type  2   force =    -1.15812959   -0.28498467  -37.99024362
     atom   32 type  2   force =     0.16149642   -0.16468124   37.52937215
     atom   33 type  1   force =    -0.53933704    0.79333539   -3.27917368
     atom   34 type  2   force =     0.03541496    0.49417622  -38.74791292
     atom   35 type  2   force =    -0.04130750   -0.07726445   37.06755559
     atom   36 type  3   force =     0.12505946   -0.10308515   -8.56629137
     The core correction contribution to forces
     atom    1 type  1   force =     0.00000000    0.00000000    0.00000000
     atom    2 type  2   force =    -0.00008297    0.00038226    0.02069201
     atom    3 type  2   force =     0.00015491    0.00018586   -0.02097388
     atom    4 type  1   force =     0.00000000    0.00000000    0.00000000
     atom    5 type  2   force =    -0.00027538    0.00072167    0.01967039
     atom    6 type  2   force =     0.00015501   -0.00021518   -0.02075494
     atom    7 type  1   force =     0.00000000    0.00000000    0.00000000
     atom    8 type  2   force =    -0.00073272    0.00037493    0.02061118
     atom    9 type  2   force =     0.00040847    0.00081567   -0.02090131
     atom   10 type  1   force =     0.00000000    0.00000000    0.00000000
     atom   11 type  2   force =    -0.00017718   -0.00053509    0.02052114
     atom   12 type  2   force =     0.00054668    0.00087162   -0.02068436
     atom   13 type  1   force =     0.00000000    0.00000000    0.00000000
     atom   14 type  2   force =     0.00049748   -0.00025441    0.02042060
     atom   15 type  2   force =     0.00001507    0.00033102   -0.02076583
     atom   16 type  1   force =     0.00000000    0.00000000    0.00000000
     atom   17 type  2   force =     0.00559828    0.00159712   -0.00966967
     atom   18 type  2   force =    -0.00007843   -0.00020596   -0.02126911
     atom   19 type  1   force =     0.00000000    0.00000000    0.00000000
     atom   20 type  2   force =     0.00026353    0.00077343   -0.02110290
     atom   21 type  1   force =     0.00000000    0.00000000    0.00000000
     atom   22 type  2   force =     0.00005827   -0.00014320    0.02045629
     atom   23 type  2   force =    -0.00079410    0.00084092   -0.02079103
     atom   24 type  1   force =     0.00000000    0.00000000    0.00000000
     atom   25 type  2   force =    -0.00047832   -0.00017143    0.02024768
     atom   26 type  2   force =    -0.00024921    0.00032820   -0.02106832
     atom   27 type  1   force =     0.00000000    0.00000000    0.00000000
     atom   28 type  2   force =    -0.00051148    0.00063062    0.02052569
     atom   29 type  2   force =    -0.00021555    0.00013598   -0.02085172
     atom   30 type  1   force =     0.00000000    0.00000000    0.00000000
     atom   31 type  2   force =     0.00028560    0.00077302    0.02017979
     atom   32 type  2   force =    -0.00038669    0.00143274   -0.02087727
     atom   33 type  1   force =     0.00000000    0.00000000    0.00000000
     atom   34 type  2   force =    -0.00011916    0.00039507    0.02109373
     atom   35 type  2   force =    -0.00005102    0.00078015   -0.02091056
     atom   36 type  3   force =     0.00000000    0.00000000    0.00000000
     The Hubbard contrib.    to forces
     atom    1 type  1   force =     0.00000000    0.00000000    0.00000000
     atom    2 type  2   force =     0.00000000    0.00000000    0.00000000
     atom    3 type  2   force =     0.00000000    0.00000000    0.00000000
     atom    4 type  1   force =     0.00000000    0.00000000    0.00000000
     atom    5 type  2   force =     0.00000000    0.00000000    0.00000000
     atom    6 type  2   force =     0.00000000    0.00000000    0.00000000
     atom    7 type  1   force =     0.00000000    0.00000000    0.00000000
     atom    8 type  2   force =     0.00000000    0.00000000    0.00000000
     atom    9 type  2   force =     0.00000000    0.00000000    0.00000000
     atom   10 type  1   force =     0.00000000    0.00000000    0.00000000
     atom   11 type  2   force =     0.00000000    0.00000000    0.00000000
     atom   12 type  2   force =     0.00000000    0.00000000    0.00000000
     atom   13 type  1   force =     0.00000000    0.00000000    0.00000000
     atom   14 type  2   force =     0.00000000    0.00000000    0.00000000
     atom   15 type  2   force =     0.00000000    0.00000000    0.00000000
     atom   16 type  1   force =     0.00000000    0.00000000    0.00000000
     atom   17 type  2   force =     0.00000000    0.00000000    0.00000000
     atom   18 type  2   force =     0.00000000    0.00000000    0.00000000
     atom   19 type  1   force =     0.00000000    0.00000000    0.00000000
     atom   20 type  2   force =     0.00000000    0.00000000    0.00000000
     atom   21 type  1   force =     0.00000000    0.00000000    0.00000000
     atom   22 type  2   force =     0.00000000    0.00000000    0.00000000
     atom   23 type  2   force =     0.00000000    0.00000000    0.00000000
     atom   24 type  1   force =     0.00000000    0.00000000    0.00000000
     atom   25 type  2   force =     0.00000000    0.00000000    0.00000000
     atom   26 type  2   force =     0.00000000    0.00000000    0.00000000
     atom   27 type  1   force =     0.00000000    0.00000000    0.00000000
     atom   28 type  2   force =     0.00000000    0.00000000    0.00000000
     atom   29 type  2   force =     0.00000000    0.00000000    0.00000000
     atom   30 type  1   force =     0.00000000    0.00000000    0.00000000
     atom   31 type  2   force =     0.00000000    0.00000000    0.00000000
     atom   32 type  2   force =     0.00000000    0.00000000    0.00000000
     atom   33 type  1   force =     0.00000000    0.00000000    0.00000000
     atom   34 type  2   force =     0.00000000    0.00000000    0.00000000
     atom   35 type  2   force =     0.00000000    0.00000000    0.00000000
     atom   36 type  3   force =     0.00000000    0.00000000    0.00000000
     The SCF correction term to forces
     atom    1 type  1   force =    -0.00001559   -0.00000201    0.00006547
     atom    2 type  2   force =     0.00000137    0.00000031    0.00002475
     atom    3 type  2   force =     0.00000082   -0.00000297    0.00001476
     atom    4 type  1   force =     0.00000617    0.00000161    0.00008276
     atom    5 type  2   force =    -0.00000051    0.00001655    0.00004206
     atom    6 type  2   force =    -0.00000387   -0.00000696    0.00001305
     atom    7 type  1   force =    -0.00003071   -0.00001765    0.00011391
     atom    8 type  2   force =     0.00000137   -0.00001226    0.00006088
     atom    9 type  2   force =     0.00001025   -0.00001528    0.00001858
     atom   10 type  1   force =     0.00000072    0.00001430    0.00007608
     atom   11 type  2   force =    -0.00000923    0.00000008    0.00004390
     atom   12 type  2   force =    -0.00000356    0.00002155    0.00001222
     atom   13 type  1   force =    -0.00000801    0.00000458    0.00005483
     atom   14 type  2   force =     0.00000663   -0.00000608    0.00003049
     atom   15 type  2   force =    -0.00000247   -0.00000638    0.00001045
     atom   16 type  1   force =    -0.00001002    0.00002501    0.00009399
     atom   17 type  2   force =    -0.00002075    0.00002025    0.00002687
     atom   18 type  2   force =    -0.00000742    0.00000289    0.00001579
     atom   19 type  1   force =    -0.00001040   -0.00000880    0.00011091
     atom   20 type  2   force =    -0.00002160   -0.00000853    0.00002117
     atom   21 type  1   force =    -0.00002066    0.00000380    0.00007411
     atom   22 type  2   force =     0.00000881   -0.00001198    0.00002908
     atom   23 type  2   force =     0.00000600    0.00000491    0.00001939
     atom   24 type  1   force =    -0.00000931   -0.00000044    0.00006297
     atom   25 type  2   force =    -0.00000173   -0.00000100    0.00002588
     atom   26 type  2   force =     0.00000678   -0.00000071    0.00001045
     atom   27 type  1   force =     0.00002172    0.00000167    0.00008680
     atom   28 type  2   force =     0.00000260    0.00002218    0.00003161
     atom   29 type  2   force =     0.00001487    0.00000038    0.00002214
     atom   30 type  1   force =     0.00002326   -0.00001339    0.00010540
     atom   31 type  2   force =     0.00001068   -0.00001086    0.00004822
     atom   32 type  2   force =     0.00001193   -0.00002001    0.00001933
     atom   33 type  1   force =    -0.00001008    0.00001051    0.00007338
     atom   34 type  2   force =     0.00000168   -0.00000831    0.00003658
     atom   35 type  2   force =     0.00000658    0.00001441    0.00001748
     atom   36 type  3   force =    -0.00000135    0.00000324    0.00000615

     Total force =     0.006955     Total SCF correction =     0.000341
     Energy error            =      8.5E-05 Ry
     Gradient error          =      1.7E-03 Ry/Bohr

     bfgs converged in  33 scf cycles and  32 bfgs steps
     (criteria: energy <  1.0E-04 Ry, force <  1.0E-02 Ry/Bohr)

     End of BFGS Geometry Optimization

     Final energy             =   -2205.5944908761 Ry

     File ./MoS2-V-O.bfgs deleted, as requested
Begin final coordinates

ATOMIC_POSITIONS (angstrom)
Mo            6.5855935978        1.7621417017        2.7441058070
S             8.1562472633        0.8663572772        4.3645381877
S             8.1727322705        0.8457508193        1.1712445832
Mo            8.1620731901        4.4992060029        2.7177661115
S             6.5461926071        3.6714144186        4.2800832413
S             6.5860716340        3.5771236499        1.1098234066
Mo            6.5593454912        7.2419760421        2.6635866143
S             8.1086678727        6.3210274670        4.3070724616
S             8.1849470572        6.3350941127        1.1229851223
Mo            8.1730702584        9.9481222935        2.7744415294
S             6.5586533662        8.9735958858        4.3446485309
S             6.6324760340        9.0610401513        1.1197393133
Mo            3.4468969589        1.7302593539        2.7634897317
S             5.0334510157        0.8170943760        4.3437243796
S             5.0179699015        0.8400124547        1.1574621030
Mo            4.9968733929        4.5371772022        2.6446143627
S             3.4610939536        3.6447114176        4.2474420116
S             3.4376831393        3.5476547533        1.1148239566
Mo            3.5325828069        7.1696627628        2.6851896943
S             5.0509952006        6.3194430164        1.0515435701
Mo            5.0368323746        9.9163587180        2.7346148656
S             3.5106481795        8.9418796675        4.3336433107
S             3.4391583418        9.0249086375        1.1378994356
Mo            0.2978722702        1.7464603976        2.7627277487
S             1.8778924649        0.8375104354        4.3768460863
S             1.8779501394        0.8274669678        1.1704676061
Mo            1.8599485927        4.4948853643        2.7072047452
S             0.2842058443        3.6073302535        4.3163768996
S             0.2833082462        3.5603245794        1.1344009149
Mo            0.3043707675        7.2199667912        2.7519514414
S             1.9481006041        6.3051306425        4.3154094642
S             1.8822058993        6.3321639781        1.1188314442
Mo            1.8867596288        9.9318344004        2.7782150837
S             0.3017042360        9.0307568163        4.3722559600
S             0.3041544890        9.0487019801        1.1873386367
H             3.1766223662        3.5893682888        5.5938315101
End final coordinates



     Writing all to output data dir ./MoS2-V-O.save/
 
     init_run     :      2.46s CPU      2.65s WALL (       1 calls)
     electrons    :   3111.97s CPU   3421.80s WALL (      33 calls)
     update_pot   :     44.83s CPU     46.62s WALL (      32 calls)
     forces       :     44.75s CPU     47.85s WALL (      33 calls)

     Called by init_run:
     wfcinit      :      0.39s CPU      0.43s WALL (       1 calls)
     potinit      :      1.34s CPU      1.44s WALL (       1 calls)
     hinit0       :      0.17s CPU      0.18s WALL (       1 calls)

     Called by electrons:
     c_bands      :    349.81s CPU    353.48s WALL (     287 calls)
     sum_band     :     92.31s CPU    101.06s WALL (     287 calls)
     v_of_rho     :    119.67s CPU    137.67s WALL (     305 calls)
     newd         :     49.42s CPU     55.45s WALL (     305 calls)
     mix_rho      :   2515.22s CPU   2786.56s WALL (     287 calls)

     Called by c_bands:
     init_us_2    :      6.27s CPU      6.50s WALL (     575 calls)
     init_us_2:cp :      6.27s CPU      6.50s WALL (     575 calls)
     regterg      :    328.87s CPU    332.22s WALL (     287 calls)

     Called by *egterg:
     rdiaghg      :     26.88s CPU     27.05s WALL (    1579 calls)
     h_psi        :    189.02s CPU    190.59s WALL (    1627 calls)
     s_psi        :     24.13s CPU     24.21s WALL (    1627 calls)
     g_psi        :      1.28s CPU      1.29s WALL (    1339 calls)

     Called by h_psi:
     h_psi:calbec :     26.29s CPU     26.41s WALL (    1627 calls)
     vloc_psi     :    135.96s CPU    137.27s WALL (    1627 calls)
     add_vuspsi   :     23.67s CPU     23.80s WALL (    1627 calls)

     General routines
     calbec       :     37.53s CPU     37.69s WALL (    2046 calls)
     fft          :     80.82s CPU     93.76s WALL (   20533 calls)
     ffts         :   1113.04s CPU   1375.23s WALL (  614167 calls)
     fftw         :    115.91s CPU    116.90s WALL (  175595 calls)
     interpolate  :      2.16s CPU      2.50s WALL (     305 calls)
 
     Parallel routines
 
     PWSCF        :  53m30.76s CPU  58m47.99s WALL

 
   This run was terminated on:   1:32:32   4Nov2023            

=------------------------------------------------------------------------------=
   JOB DONE.
=------------------------------------------------------------------------------=
