
     Program PWSCF v.7.2 starts on  4Nov2023 at  2:28: 6 

     This program is part of the open-source Quantum ESPRESSO suite
     for quantum simulation of materials; please cite
         "P. Giannozzi et al., J. Phys.:Condens. Matter 21 395502 (2009);
         "P. Giannozzi et al., J. Phys.:Condens. Matter 29 465901 (2017);
         "P. Giannozzi et al., J. Chem. Phys. 152 154105 (2020);
          URL http://www.quantum-espresso.org", 
     in publications or presentations arising from this work. More details at
     http://www.quantum-espresso.org/quote

     Parallel version (MPI & OpenMP), running on      48 processor cores
     Number of MPI processes:                48
     Threads/MPI process:                     1

     MPI processes distributed on     1 nodes
     64767 MiB available memory on the printing compute node when the environment starts
 
     Waiting for input...
     Reading input from standard input
Warning: card &CELL ignored
Warning: card CELL_DYNAMICS = 'BFGS', ignored
Warning: card CELL_DOFREE = '2DXY' ignored
Warning: card / ignored

     Current dimensions of program PWSCF are:
     Max number of different atomic species (ntypx) = 10
     Max number of k-points (npk) =  40000
     Max angular momentum in pseudopotentials (lmaxx) =  4

     IMPORTANT: XC functional enforced from input :
     Exchange-correlation= RVV10
                           (   1   4  13   4  26   0   0)
     Any further DFT definition will be discarded
     Please, verify this is what you really want


     gamma-point specific algorithms are used
     signal trapping enabled: kill the code with -SIGUSR1 to stop cleanly the simulation 
 
     R & G space division:  proc/nbgrp/npool/nimage =      48
     Subspace diagonalization in iterative solution of the eigenvalue problem:
     one sub-group per band group will be used
     scalapack distributed-memory algorithm (size of sub-group:  2*  2 procs)

 
     Parallelization info
     --------------------
     sticks:   dense  smooth     PW     G-vecs:    dense   smooth      PW
     Min         243     194     47                49060    35090    4376
     Max         246     196     50                49086    35128    4410
     Sum       11735    9389   2349              2355467  1685513  210763
 
     Using Slab Decomposition
 


     bravais-lattice index     =            0
     lattice parameter (alat)  =      17.8707  a.u.
     unit-cell volume          =   17436.2743 (a.u.)^3
     number of atoms/cell      =           36
     number of atomic types    =            3
     number of electrons       =       307.00
     number of Kohn-Sham states=          185
     kinetic-energy cutoff     =      80.0000  Ry
     charge density cutoff     =     400.0000  Ry
     scf convergence threshold =      1.0E-06
     mixing beta               =       0.7000
     number of iterations used =            8  local-TF  mixing
     energy convergence thresh.=      1.0E-04
     force convergence thresh. =      1.0E-02
     Exchange-correlation= RVV10
                           (   1   4  13   4  26   0   0)
     nstep                     =          200


     celldm(1)=  17.870686  celldm(2)=   0.000000  celldm(3)=   0.000000
     celldm(4)=   0.000000  celldm(5)=   0.000000  celldm(6)=   0.000000

     crystal axes: (cart. coord. in units of alat)
               a(1) = (   1.000000   0.000000   0.000000 )  
               a(2) = (   0.000000   1.155671   0.000000 )  
               a(3) = (   0.000000   0.000000   2.643601 )  

     reciprocal axes: (cart. coord. in units 2 pi/alat)
               b(1) = (  1.000000  0.000000  0.000000 )  
               b(2) = (  0.000000  0.865298  0.000000 )  
               b(3) = (  0.000000  0.000000  0.378272 )  


     PseudoPot. # 1 for Mo read from file:
     ../pseudo/Mo_ONCV_PBE-1.0.oncvpsp.upf
     MD5 check sum: 1b5d28e075c9ccadda658a603575cd1f
     Pseudo is Norm-conserving, Zval = 14.0
     Generated using ONCVPSP code by D. R. Hamann
     Using radial grid of 1526 points,  6 beta functions with: 
                l(1) =   0
                l(2) =   0
                l(3) =   1
                l(4) =   1
                l(5) =   2
                l(6) =   2

     PseudoPot. # 2 for S  read from file:
     ../pseudo/s_pbe_v1.4.uspp.F.UPF
     MD5 check sum: 88d86576ff6df21479756cfb9bdac1df
     Pseudo is Ultrasoft + core correction, Zval =  6.0
     Generated by new atomic code, or converted to UPF format
     Using radial grid of  907 points,  6 beta functions with: 
                l(1) =   0
                l(2) =   0
                l(3) =   1
                l(4) =   1
                l(5) =   2
                l(6) =   2
     Q(r) pseudized with  8 coefficients,  rinner =    1.300   1.300   1.300
                                                       1.300   1.300

     PseudoPot. # 3 for H  read from file:
     ../pseudo/H_ONCV_PBE-1.0.oncvpsp.upf
     MD5 check sum: 1790becc920ee074925cf490c71280fe
     Pseudo is Norm-conserving, Zval =  1.0
     Generated using ONCVPSP code by D. R. Hamann
     Using radial grid of 1166 points,  2 beta functions with: 
                l(1) =   0
                l(2) =   0

     atomic species   valence    mass     pseudopotential
        Mo            14.00    95.94000     Mo( 1.00)
        S              6.00    32.06500     S ( 1.00)
        H              1.00     1.00794     H ( 1.00)

     No symmetry found



   Cartesian axes

     site n.     atom                  positions (alat units)
         1           Mo  tau(   1) = (   0.6952221   0.1890506   0.2985846  )
         2           S   tau(   2) = (   0.8646417   0.0856217   0.4689279  )
         3           S   tau(   3) = (   0.8663890   0.0857843   0.1351291  )
         4           Mo  tau(   4) = (   0.8560186   0.4753274   0.2873942  )
         5           S   tau(   5) = (   0.6873294   0.3936244   0.4596353  )
         6           S   tau(   6) = (   0.6929804   0.3713468   0.1185692  )
         7           Mo  tau(   7) = (   0.6862796   0.7633098   0.2825370  )
         8           S   tau(   8) = (   0.8545980   0.6708292   0.4486168  )
         9           S   tau(   9) = (   0.8545123   0.6666874   0.1146125  )
        10           Mo  tau(  10) = (   0.8629403   1.0471007   0.3006803  )
        11           S   tau(  11) = (   0.6868280   0.9456650   0.4634891  )
        12           S   tau(  12) = (   0.6998113   0.9568511   0.1205389  )
        13           Mo  tau(  13) = (   0.3618216   0.1847309   0.2935964  )
        14           S   tau(  14) = (   0.5260962   0.0863870   0.4600448  )
        15           S   tau(  15) = (   0.5348379   0.0894875   0.1297123  )
        16           Mo  tau(  16) = (   0.5265817   0.4772436   0.2784130  )
        17           S   tau(  17) = (   0.3624753   0.3882513   0.4525556  )
        18           S   tau(  18) = (   0.3635411   0.3752055   0.1119148  )
        19           Mo  tau(  19) = (   0.3652268   0.7630864   0.2781795  )
        20           S   tau(  20) = (   0.5269494   0.6690381   0.1096838  )
        21           Mo  tau(  21) = (   0.5300192   1.0470394   0.2900995  )
        22           S   tau(  22) = (   0.3670346   0.9457522   0.4574073  )
        23           S   tau(  23) = (   0.3604225   0.9585725   0.1159032  )
        24           Mo  tau(  24) = (   0.0313099   0.1847895   0.3013130  )
        25           S   tau(  25) = (   0.1956761   0.0838230   0.4650863  )
        26           S   tau(  26) = (   0.1967693   0.0903508   0.1278874  )
        27           Mo  tau(  27) = (   0.1967578   0.4753919   0.2813011  )
        28           S   tau(  28) = (   0.0287851   0.3864324   0.4586755  )
        29           S   tau(  29) = (   0.0244514   0.3729871   0.1239344  )
        30           Mo  tau(  30) = (   0.0286728   0.7631204   0.2856894  )
        31           S   tau(  31) = (   0.2011512   0.6675435   0.4465001  )
        32           S   tau(  32) = (   0.1969214   0.6672839   0.1104564  )
        33           Mo  tau(  33) = (   0.1950294   1.0511147   0.2932237  )
        34           S   tau(  34) = (   0.0312912   0.9612169   0.4667423  )
        35           S   tau(  35) = (   0.0292670   0.9563028   0.1216485  )
        36           H   tau(  36) = (   0.4444444   0.5136314   0.5650415  )

     number of k points=     1  Gaussian smearing, width (Ry)=  0.0100
                       cart. coord. in units 2pi/alat
        k(    1) = (   0.0000000   0.0000000   0.0000000), wk =   2.0000000

     Dense  grid:  1177734 G-vectors     FFT dimensions: ( 120, 135, 320)

     Smooth grid:   842757 G-vectors     FFT dimensions: ( 108, 120, 270)

     Estimated max dynamical RAM per process >     146.59 MB

     Estimated total dynamical RAM >       6.87 GB

     Initial potential from superposition of free atoms

     starting charge     306.9873, renormalised to     307.0000

     negative rho (up, down):  1.405E-04 0.000E+00


---------------------------------------------------------------------------------
Carrying out rVV10 run using the following parameters:
Nqs =      20    Nr_points =    1024   r_max =   100.000
b_value =  6.30000    beta =  0.00901
     q_mesh =  0.00010000  0.00030000  0.00058939  0.00100810
               0.00161396  0.00249058  0.00375900  0.00559430
               0.00824984  0.01209221  0.01765183  0.02569619
               0.03733578  0.05417739  0.07854596  0.11380545
               0.16482331  0.23864234  0.34545298  0.50000000

Gradients computed in Reciprocal space

---------------------------------------------------------------------------------


     Starting wfcs are  213 randomized atomic wfcs

     total cpu time spent up to now is        2.8 secs

     Self-consistent Calculation

     iteration #  1     ecut=    80.00 Ry     beta= 0.70
     Davidson diagonalization with overlap
     ethr =  1.00E-02,  avg # of iterations =  2.0

     Threshold (ethr) on eigenvalues was too large:
     Diagonalizing with lowered threshold

     Davidson diagonalization with overlap
     ethr =  3.78E-04,  avg # of iterations =  4.0

     negative rho (up, down):  1.722E-08 0.000E+00

     total cpu time spent up to now is       16.9 secs

     total energy              =   -2205.57397284 Ry
     estimated scf accuracy    <       1.45322752 Ry

     iteration #  2     ecut=    80.00 Ry     beta= 0.70
     Davidson diagonalization with overlap
     ethr =  4.73E-04,  avg # of iterations =  2.0

     total cpu time spent up to now is       19.4 secs

     total energy              =   -2205.44249887 Ry
     estimated scf accuracy    <       0.56816080 Ry

     iteration #  3     ecut=    80.00 Ry     beta= 0.70
     Davidson diagonalization with overlap
     ethr =  1.85E-04,  avg # of iterations =  5.0

     total cpu time spent up to now is       22.1 secs

     total energy              =   -2205.50494898 Ry
     estimated scf accuracy    <       0.10135711 Ry

     iteration #  4     ecut=    80.00 Ry     beta= 0.70
     Davidson diagonalization with overlap
     ethr =  3.30E-05,  avg # of iterations =  9.0

     total cpu time spent up to now is       24.9 secs

     total energy              =   -2205.51445678 Ry
     estimated scf accuracy    <       0.02725751 Ry

     iteration #  5     ecut=    80.00 Ry     beta= 0.70
     Davidson diagonalization with overlap
     ethr =  8.88E-06,  avg # of iterations =  2.0

     total cpu time spent up to now is       27.2 secs

     total energy              =   -2205.51376783 Ry
     estimated scf accuracy    <       0.01769275 Ry

     iteration #  6     ecut=    80.00 Ry     beta= 0.70
     Davidson diagonalization with overlap
     ethr =  5.76E-06,  avg # of iterations =  2.0

     total cpu time spent up to now is       29.5 secs

     total energy              =   -2205.51281598 Ry
     estimated scf accuracy    <       0.00996122 Ry

     iteration #  7     ecut=    80.00 Ry     beta= 0.70
     Davidson diagonalization with overlap
     ethr =  3.24E-06,  avg # of iterations =  2.0

     total cpu time spent up to now is       33.2 secs

     total energy              =   -2205.51170784 Ry
     estimated scf accuracy    <       0.00598280 Ry

     iteration #  8     ecut=    80.00 Ry     beta= 0.70
     Davidson diagonalization with overlap
     c_bands:  1 eigenvalues not converged
     ethr =  1.95E-06,  avg # of iterations = 20.0

     negative rho (up, down):  7.724E-03 0.000E+00

     total cpu time spent up to now is       38.1 secs

     total energy              =   -2205.51117701 Ry
     estimated scf accuracy    <       0.00345746 Ry

     iteration #  9     ecut=    80.00 Ry     beta= 0.70
     Davidson diagonalization with overlap
     ethr =  1.13E-06,  avg # of iterations =  2.0

     negative rho (up, down):  3.000E-02 0.000E+00

     total cpu time spent up to now is       43.2 secs

     total energy              =   -2205.51110962 Ry
     estimated scf accuracy    <       0.00206654 Ry

     iteration # 10     ecut=    80.00 Ry     beta= 0.70
     Davidson diagonalization with overlap
     ethr =  6.73E-07,  avg # of iterations =  2.0

     negative rho (up, down):  2.672E-02 0.000E+00

     total cpu time spent up to now is       48.2 secs

     total energy              =   -2205.51118636 Ry
     estimated scf accuracy    <       0.00070922 Ry

     iteration # 11     ecut=    80.00 Ry     beta= 0.70
     Davidson diagonalization with overlap
     ethr =  2.31E-07,  avg # of iterations =  2.0

     negative rho (up, down):  1.273E-02 0.000E+00

     total cpu time spent up to now is       53.8 secs

     total energy              =   -2205.51124948 Ry
     estimated scf accuracy    <       0.00013763 Ry

     iteration # 12     ecut=    80.00 Ry     beta= 0.70
     Davidson diagonalization with overlap
     c_bands:  1 eigenvalues not converged
     ethr =  4.48E-08,  avg # of iterations = 20.0

     negative rho (up, down):  4.718E-03 0.000E+00

     total cpu time spent up to now is       60.0 secs

     total energy              =   -2205.51130349 Ry
     estimated scf accuracy    <       0.00002245 Ry

     iteration # 13     ecut=    80.00 Ry     beta= 0.70
     Davidson diagonalization with overlap
     ethr =  7.31E-09,  avg # of iterations = 20.0

     negative rho (up, down):  5.688E-04 0.000E+00

     total cpu time spent up to now is       69.3 secs

     total energy              =   -2205.51130627 Ry
     estimated scf accuracy    <       0.00000564 Ry

     iteration # 14     ecut=    80.00 Ry     beta= 0.70
     Davidson diagonalization with overlap
     ethr =  1.84E-09,  avg # of iterations =  4.0

     negative rho (up, down):  1.369E-04 0.000E+00

     total cpu time spent up to now is       71.7 secs

     End of self-consistent calculation

          k = 0.0000 0.0000 0.0000 (105382 PWs)   bands (ev):

   -62.8986 -62.8884 -62.8648 -62.8534 -62.8294 -62.8209 -62.8065 -62.7944
   -62.7831 -62.7756 -62.7721 -62.7668 -37.2295 -37.1710 -37.1568 -37.1469
   -37.1291 -37.1069 -37.1027 -37.0769 -37.0753 -37.0664 -37.0620 -37.0596
   -37.0369 -37.0283 -37.0096 -37.0077 -37.0032 -37.0019 -36.9919 -36.9825
   -36.9732 -36.9570 -36.9475 -36.9410 -36.9344 -36.9155 -36.9139 -36.9030
   -36.9000 -36.8869 -36.8698 -36.8461 -36.8432 -36.7998 -36.7571 -36.7131
   -16.0048 -15.3274 -15.1204 -15.0295 -14.9126 -14.8371 -14.6739 -14.4806
   -14.4491 -14.4127 -14.3838 -14.3286 -14.3246 -14.3005 -14.1954 -14.1349
   -14.1103 -14.0905 -14.0224 -13.8762 -13.8516 -13.8223 -13.7995  -7.7668
    -7.6587  -7.4376  -7.3066  -7.2722  -7.2099  -7.1975  -7.1652  -6.9852
    -6.8444  -6.8295  -6.7412  -6.7070  -6.5512  -6.5075  -6.4557  -6.4202
    -6.3807  -6.2350  -6.1351  -5.9857  -5.9145  -5.8586  -5.8399  -5.7700
    -5.7510  -5.7214  -5.7014  -5.6574  -5.6231  -5.5791  -5.5249  -5.4688
    -5.4221  -5.3772  -5.1576  -5.1230  -5.0651  -5.0346  -4.9862  -4.9531
    -4.9167  -4.8715  -4.6609  -4.6145  -4.3666  -4.3325  -4.3193  -4.2530
    -4.1874  -4.0317  -3.9889  -3.9019  -3.8200  -3.7706  -3.7442  -3.6898
    -3.6285  -3.5698  -3.5362  -3.5080  -3.4812  -3.4611  -3.4390  -3.3843
    -3.3638  -3.1852  -3.1776  -2.9060  -2.8998  -2.8133  -2.7938  -2.7271
    -2.7149  -2.6645  -2.6438  -2.6326  -2.5837  -2.3428  -2.0360  -1.9979
    -1.9273  -1.0431  -0.7642  -0.7307  -0.1748  -0.1495  -0.0912  -0.0315
     0.0896   0.1155   0.1535   0.2272   0.2320   0.2769   0.3759   0.4286
     0.4743   0.5061   0.5395   0.5609   0.6084   0.6734   0.7128   0.7525
     0.7879   0.8138   0.8414   0.9005   0.9271   0.9588   1.0468   1.1561
     1.3941

     the Fermi energy is    -1.0437 ev

!    total energy              =   -2205.51131181 Ry
     estimated scf accuracy    <       0.00000043 Ry
     smearing contrib. (-TS)   =      -0.00575292 Ry
     internal energy E=F+TS    =   -2205.50555889 Ry

     The total energy is F=E-TS. E is the sum of the following terms:
     one-electron contribution =  -18044.29608071 Ry
     hartree contribution      =    9008.89484662 Ry
     xc contribution           =    -385.20065638 Ry
     ewald contribution        =    7215.09633158 Ry

     convergence has been achieved in  14 iterations

     negative rho (up, down):  1.369E-04 0.000E+00

     Forces acting on atoms (cartesian axes, Ry/au):

     atom    1 type  1   force =     0.01108906   -0.02726734    0.00300494
     atom    2 type  2   force =    -0.01360358    0.01727895    0.00078798
     atom    3 type  2   force =    -0.01165735    0.00922580   -0.00314030
     atom    4 type  1   force =     0.00398970   -0.00181900    0.00095824
     atom    5 type  2   force =     0.00152934   -0.00725699   -0.00873327
     atom    6 type  2   force =     0.00018602    0.01174944    0.00210850
     atom    7 type  1   force =     0.00284695   -0.00797855   -0.00994776
     atom    8 type  2   force =     0.00214281   -0.00212127    0.01576119
     atom    9 type  2   force =     0.01471502    0.00633989    0.01125537
     atom   10 type  1   force =    -0.01067723    0.00912387   -0.02693816
     atom   11 type  2   force =     0.00420239   -0.00227974   -0.00785876
     atom   12 type  2   force =    -0.00148475    0.00063330    0.00882979
     atom   13 type  1   force =     0.00461261   -0.01172993   -0.02883925
     atom   14 type  2   force =     0.00886175   -0.00076243    0.01259958
     atom   15 type  2   force =    -0.01224031    0.00277924   -0.00868865
     atom   16 type  1   force =     0.01127916    0.01310621    0.00900979
     atom   17 type  2   force =     0.01268691    0.03921774    0.04972889
     atom   18 type  2   force =    -0.00386150   -0.00731517    0.01488420
     atom   19 type  1   force =     0.00804907   -0.00023005   -0.00779208
     atom   20 type  2   force =     0.00310593   -0.00370337    0.00181272
     atom   21 type  1   force =    -0.00518518    0.00391607   -0.00102869
     atom   22 type  2   force =    -0.00152192   -0.00280666   -0.00294536
     atom   23 type  2   force =    -0.00117675    0.00083646    0.00997840
     atom   24 type  1   force =    -0.00573457   -0.00251385   -0.02177831
     atom   25 type  2   force =     0.01374066    0.01780865    0.01035264
     atom   26 type  2   force =    -0.00998099    0.00023896   -0.00240213
     atom   27 type  1   force =     0.00463964   -0.00339149    0.01905165
     atom   28 type  2   force =    -0.00375346   -0.00089536   -0.00553830
     atom   29 type  2   force =     0.00177564   -0.00015035   -0.00387357
     atom   30 type  1   force =    -0.00464629    0.01150608   -0.00591686
     atom   31 type  2   force =     0.00190451   -0.00006644    0.01626855
     atom   32 type  2   force =    -0.00955798    0.00583363    0.00522832
     atom   33 type  1   force =     0.01324144   -0.00573216   -0.00983806
     atom   34 type  2   force =     0.00282875   -0.04186975   -0.00971323
     atom   35 type  2   force =    -0.00784929    0.00708461    0.01483224
     atom   36 type  3   force =    -0.02449620   -0.02678899   -0.04148023
     The non-local contrib.  to forces
     atom    1 type  1   force =    -0.00027171    0.03154247   -0.01347966
     atom    2 type  2   force =    -0.00772211    0.00068131   -0.26895027
     atom    3 type  2   force =    -0.01464122   -0.00287398    0.27075204
     atom    4 type  1   force =    -0.00197801    0.00791333    0.00404815
     atom    5 type  2   force =     0.01246285   -0.02821105   -0.25071200
     atom    6 type  2   force =    -0.00384026    0.01367122    0.26366243
     atom    7 type  1   force =    -0.02099283   -0.00045351   -0.01321109
     atom    8 type  2   force =     0.00382803   -0.00317303   -0.25393765
     atom    9 type  2   force =     0.00855644   -0.01045509    0.27732762
     atom   10 type  1   force =     0.00605095    0.00143842   -0.00025048
     atom   11 type  2   force =     0.01449140    0.00242802   -0.26125950
     atom   12 type  2   force =    -0.01196151   -0.01726302    0.26293359
     atom   13 type  1   force =    -0.00168997    0.03303669   -0.00882158
     atom   14 type  2   force =     0.01214040   -0.01425256   -0.26124568
     atom   15 type  2   force =    -0.01486404   -0.00292067    0.25909898
     atom   16 type  1   force =    -0.00092466    0.02593612   -0.03756271
     atom   17 type  2   force =     0.12425164    0.18705831   -0.08132046
     atom   18 type  2   force =    -0.00493188   -0.00230115    0.27487806
     atom   19 type  1   force =     0.01298184   -0.00101388   -0.01392040
     atom   20 type  2   force =    -0.00014579   -0.02244038    0.26501620
     atom   21 type  1   force =     0.00081398    0.02158433    0.00684371
     atom   22 type  2   force =    -0.00781945    0.00314954   -0.25911570
     atom   23 type  2   force =     0.00575429   -0.01466016    0.26871165
     atom   24 type  1   force =     0.00612244    0.01102315   -0.01136594
     atom   25 type  2   force =     0.00613705    0.00239870   -0.25896887
     atom   26 type  2   force =    -0.00212955   -0.01301241    0.26502731
     atom   27 type  1   force =     0.00633739    0.00997736    0.00303921
     atom   28 type  2   force =    -0.00752041   -0.02649035   -0.27294815
     atom   29 type  2   force =     0.00535121    0.00306748    0.26219029
     atom   30 type  1   force =    -0.00107719    0.01798648    0.00739454
     atom   31 type  2   force =    -0.00013329    0.00254161   -0.24794992
     atom   32 type  2   force =    -0.00386639   -0.01131369    0.27543089
     atom   33 type  1   force =    -0.00669402    0.00841743    0.00635920
     atom   34 type  2   force =    -0.00161667   -0.03789917   -0.27156921
     atom   35 type  2   force =    -0.00179752   -0.01245295    0.27136110
     atom   36 type  3   force =    -0.00773924   -0.01151551   -0.01285022
     The ionic contribution  to forces
     atom    1 type  1   force =     0.50807794    0.04428737    5.60613239
     atom    2 type  2   force =    -0.64292060    0.35857843   39.28543984
     atom    3 type  2   force =    -0.15671439   -0.00305345  -36.07857967
     atom    4 type  1   force =     0.21044674    0.55484749    0.55013312
     atom    5 type  2   force =    -0.63970167    1.32085976   38.61375960
     atom    6 type  2   force =     0.38085721   -0.52851888  -38.07647592
     atom    7 type  1   force =    -2.45250746   -2.57298845    2.40735068
     atom    8 type  2   force =    -0.90737823    0.09480911   37.36249145
     atom    9 type  2   force =     0.35779936   -0.01527689  -38.02374429
     atom   10 type  1   force =    -1.07517023   -0.29050594    5.68432663
     atom   11 type  2   force =    -0.51529587   -1.52821396   39.13419745
     atom   12 type  2   force =     0.45632008    0.71456571  -37.85371793
     atom   13 type  1   force =     0.41268250    0.71019027    2.67997345
     atom   14 type  2   force =     0.08719594   -0.12835248   38.49920929
     atom   15 type  2   force =     0.16635055   -0.09621599  -36.81839058
     atom   16 type  1   force =     0.21558512    3.83935074   -0.31249695
     atom   17 type  2   force =     0.35676947    0.79526624   37.32083580
     atom   18 type  2   force =    -0.17978670   -0.68299907  -38.65152047
     atom   19 type  1   force =     2.62290187   -2.12095004    0.34928425
     atom   20 type  2   force =     0.24733298   -0.15684921  -38.55809520
     atom   21 type  1   force =     0.06683181    0.09872516    1.14179489
     atom   22 type  2   force =     0.43269864   -1.59862999   38.41263729
     atom   23 type  2   force =    -0.09350514    0.69276313  -38.29902170
     atom   24 type  1   force =    -0.60406632    1.02572808    5.81300579
     atom   25 type  2   force =     0.60903069    0.20497274   39.26385304
     atom   26 type  2   force =    -0.30403588    0.03927088  -37.33633026
     atom   27 type  1   force =    -0.28566774    0.35036487   -2.59451057
     atom   28 type  2   force =    -0.03087809    0.95049545   38.18086837
     atom   29 type  2   force =    -0.28125784   -0.44677725  -37.28728557
     atom   30 type  1   force =    -0.40891687   -0.78485057   -0.08889038
     atom   31 type  2   force =     0.96590352    0.12767979   37.20857743
     atom   32 type  2   force =    -0.51354289    0.02331187  -38.68198882
     atom   33 type  1   force =     0.74268448   -0.82198039    2.06509098
     atom   34 type  2   force =     0.21824340   -1.39985603   39.35925103
     atom   35 type  2   force =    -0.30744312    0.49477827  -37.80656478
     atom   36 type  3   force =     0.34107673    0.73517320    7.52940032
     The local contribution  to forces
     atom    1 type  1   force =    -0.49684941   -0.10324690   -5.58969861
     atom    2 type  2   force =     0.63690303   -0.34200660  -39.03662140
     atom    3 type  2   force =     0.15902996    0.01508552   35.82583271
     atom    4 type  1   force =    -0.20444444   -0.56457031   -0.55331031
     atom    5 type  2   force =     0.62951987   -1.30157863  -38.39222906
     atom    6 type  2   force =    -0.37720517    0.52779466   37.83599551
     atom    7 type  1   force =     2.47657160    2.56593386   -2.40425623
     atom    8 type  2   force =     0.90583135   -0.09418203  -37.11348716
     atom    9 type  2   force =    -0.35142564    0.03149021   37.77890501
     atom   10 type  1   force =     1.05844510    0.29814967   -5.71100583
     atom   11 type  2   force =     0.50568078    1.52397086  -38.90177690
     atom   12 type  2   force =    -0.44699856   -0.69812651   37.62070420
     atom   13 type  1   force =    -0.40624480   -0.75527543   -2.70011705
     atom   14 type  2   force =    -0.08986150    0.14168867  -38.24619985
     atom   15 type  2   force =    -0.16451526    0.10166160   36.57132532
     atom   16 type  1   force =    -0.20334437   -3.85259659    0.35896532
     atom   17 type  2   force =    -0.46168077   -0.93308512  -37.20035625
     atom   18 type  2   force =     0.18075240    0.67848668   38.41274802
     atom   19 type  1   force =    -2.62824825    2.12218827   -0.34329598
     atom   20 type  2   force =    -0.24425396    0.17486940   38.31612923
     atom   21 type  1   force =    -0.07285821   -0.11650351   -1.14971260
     atom   22 type  2   force =    -0.42665096    1.59311666  -38.17729792
     atom   23 type  2   force =     0.08706521   -0.67857454   38.06148346
     atom   24 type  1   force =     0.59219628   -1.03950350   -5.82345486
     atom   25 type  2   force =    -0.60148186   -0.18930345  -39.01538006
     atom   26 type  2   force =     0.29640358   -0.02678352   37.09007994
     atom   27 type  1   force =     0.28391648   -0.36346727    2.61052487
     atom   28 type  2   force =     0.03426388   -0.92677835  -37.93458592
     atom   29 type  2   force =     0.27816590    0.44421638   37.04193379
     atom   30 type  1   force =     0.40556904    0.77850842    0.07552976
     atom   31 type  2   force =    -0.96389087   -0.13032204  -36.96493627
     atom   32 type  2   force =     0.50794439   -0.00675316   38.43314348
     atom   33 type  1   force =    -0.72274031    0.80763721   -2.08128483
     atom   34 type  2   force =    -0.21419992    1.39474462  -39.11871579
     atom   35 type  2   force =     0.30153602   -0.47632831   37.57141369
     atom   36 type  3   force =    -0.35784194   -0.75045001   -7.55802903
     The core correction contribution to forces
     atom    1 type  1   force =     0.00000000    0.00000000    0.00000000
     atom    2 type  2   force =     0.00013974   -0.00009130    0.02068477
     atom    3 type  2   force =     0.00066665    0.00001297   -0.02090157
     atom    4 type  1   force =     0.00000000    0.00000000    0.00000000
     atom    5 type  2   force =    -0.00075496    0.00159110    0.02020980
     atom    6 type  2   force =     0.00039714   -0.00124609   -0.02090817
     atom    7 type  1   force =     0.00000000    0.00000000    0.00000000
     atom    8 type  2   force =    -0.00009700    0.00048970    0.02038885
     atom    9 type  2   force =    -0.00020209    0.00063507   -0.02101403
     atom   10 type  1   force =     0.00000000    0.00000000    0.00000000
     atom   11 type  2   force =    -0.00067745   -0.00039012    0.02070920
     atom   12 type  2   force =     0.00112876    0.00143439   -0.02083339
     atom   13 type  1   force =     0.00000000    0.00000000    0.00000000
     atom   14 type  2   force =    -0.00060683    0.00013104    0.02055955
     atom   15 type  2   force =     0.00075945    0.00021834   -0.02044253
     atom   16 type  1   force =     0.00000000    0.00000000    0.00000000
     atom   17 type  2   force =    -0.00665763   -0.01007595    0.01061164
     atom   18 type  2   force =     0.00011219   -0.00054391   -0.02110657
     atom   19 type  1   force =     0.00000000    0.00000000    0.00000000
     atom   20 type  2   force =     0.00012107    0.00085539   -0.02118546
     atom   21 type  1   force =     0.00000000    0.00000000    0.00000000
     atom   22 type  2   force =     0.00021785   -0.00043821    0.02053539
     atom   23 type  2   force =    -0.00050267    0.00124601   -0.02092095
     atom   24 type  1   force =     0.00000000    0.00000000    0.00000000
     atom   25 type  2   force =     0.00004613   -0.00033866    0.02058585
     atom   26 type  2   force =    -0.00016821    0.00069147   -0.02091722
     atom   27 type  1   force =     0.00000000    0.00000000    0.00000000
     atom   28 type  2   force =     0.00040249    0.00183461    0.02086959
     atom   29 type  2   force =    -0.00050332   -0.00064724   -0.02052672
     atom   30 type  1   force =     0.00000000    0.00000000    0.00000000
     atom   31 type  2   force =     0.00004519    0.00011194    0.02026273
     atom   32 type  2   force =    -0.00007447    0.00069636   -0.02110689
     atom   33 type  1   force =     0.00000000    0.00000000    0.00000000
     atom   34 type  2   force =     0.00041936    0.00120208    0.02103193
     atom   35 type  2   force =    -0.00010335    0.00106134   -0.02109230
     atom   36 type  3   force =     0.00000000    0.00000000    0.00000000
     The Hubbard contrib.    to forces
     atom    1 type  1   force =     0.00000000    0.00000000    0.00000000
     atom    2 type  2   force =     0.00000000    0.00000000    0.00000000
     atom    3 type  2   force =     0.00000000    0.00000000    0.00000000
     atom    4 type  1   force =     0.00000000    0.00000000    0.00000000
     atom    5 type  2   force =     0.00000000    0.00000000    0.00000000
     atom    6 type  2   force =     0.00000000    0.00000000    0.00000000
     atom    7 type  1   force =     0.00000000    0.00000000    0.00000000
     atom    8 type  2   force =     0.00000000    0.00000000    0.00000000
     atom    9 type  2   force =     0.00000000    0.00000000    0.00000000
     atom   10 type  1   force =     0.00000000    0.00000000    0.00000000
     atom   11 type  2   force =     0.00000000    0.00000000    0.00000000
     atom   12 type  2   force =     0.00000000    0.00000000    0.00000000
     atom   13 type  1   force =     0.00000000    0.00000000    0.00000000
     atom   14 type  2   force =     0.00000000    0.00000000    0.00000000
     atom   15 type  2   force =     0.00000000    0.00000000    0.00000000
     atom   16 type  1   force =     0.00000000    0.00000000    0.00000000
     atom   17 type  2   force =     0.00000000    0.00000000    0.00000000
     atom   18 type  2   force =     0.00000000    0.00000000    0.00000000
     atom   19 type  1   force =     0.00000000    0.00000000    0.00000000
     atom   20 type  2   force =     0.00000000    0.00000000    0.00000000
     atom   21 type  1   force =     0.00000000    0.00000000    0.00000000
     atom   22 type  2   force =     0.00000000    0.00000000    0.00000000
     atom   23 type  2   force =     0.00000000    0.00000000    0.00000000
     atom   24 type  1   force =     0.00000000    0.00000000    0.00000000
     atom   25 type  2   force =     0.00000000    0.00000000    0.00000000
     atom   26 type  2   force =     0.00000000    0.00000000    0.00000000
     atom   27 type  1   force =     0.00000000    0.00000000    0.00000000
     atom   28 type  2   force =     0.00000000    0.00000000    0.00000000
     atom   29 type  2   force =     0.00000000    0.00000000    0.00000000
     atom   30 type  1   force =     0.00000000    0.00000000    0.00000000
     atom   31 type  2   force =     0.00000000    0.00000000    0.00000000
     atom   32 type  2   force =     0.00000000    0.00000000    0.00000000
     atom   33 type  1   force =     0.00000000    0.00000000    0.00000000
     atom   34 type  2   force =     0.00000000    0.00000000    0.00000000
     atom   35 type  2   force =     0.00000000    0.00000000    0.00000000
     atom   36 type  3   force =     0.00000000    0.00000000    0.00000000
     The SCF correction term to forces
     atom    1 type  1   force =     0.00013242    0.00014537    0.00005425
     atom    2 type  2   force =    -0.00000347    0.00011276    0.00023846
     atom    3 type  2   force =     0.00000183    0.00005040   -0.00024039
     atom    4 type  1   force =    -0.00003442   -0.00001386    0.00009071
     atom    5 type  2   force =     0.00000343    0.00007748    0.00024183
     atom    6 type  2   force =    -0.00002272    0.00004418   -0.00016194
     atom    7 type  1   force =    -0.00022417   -0.00047480    0.00017231
     atom    8 type  2   force =    -0.00004116   -0.00006937    0.00030912
     atom    9 type  2   force =    -0.00001288   -0.00005776   -0.00021551
     atom   10 type  1   force =    -0.00000287    0.00003736   -0.00000506
     atom   11 type  2   force =     0.00000371   -0.00007889    0.00027441
     atom   12 type  2   force =     0.00002665    0.00001838   -0.00025326
     atom   13 type  1   force =    -0.00013494    0.00031418    0.00012936
     atom   14 type  2   force =    -0.00000608    0.00001855    0.00027970
     atom   15 type  2   force =     0.00002916    0.00003161   -0.00027642
     atom   16 type  1   force =    -0.00003675    0.00041159    0.00010756
     atom   17 type  2   force =     0.00000438    0.00004991   -0.00003843
     atom   18 type  2   force =    -0.00000733    0.00003793   -0.00011141
     atom   19 type  1   force =     0.00041379   -0.00045875    0.00014346
     atom   20 type  2   force =     0.00005181   -0.00014292   -0.00004863
     atom   21 type  1   force =     0.00002742    0.00010573    0.00004874
     atom   22 type  2   force =     0.00003218   -0.00000901    0.00029900
     atom   23 type  2   force =     0.00001173    0.00005767   -0.00027064
     atom   24 type  1   force =     0.00001321    0.00023406    0.00004013
     atom   25 type  2   force =     0.00000883    0.00007497    0.00026611
     atom   26 type  2   force =    -0.00005076    0.00006818   -0.00025848
     atom   27 type  1   force =     0.00005368   -0.00027080    0.00000157
     atom   28 type  2   force =    -0.00002115    0.00003893    0.00026123
     atom   29 type  2   force =     0.00001987   -0.00001408   -0.00018195
     atom   30 type  1   force =    -0.00022110   -0.00014261    0.00005264
     atom   31 type  2   force =    -0.00001987   -0.00008208    0.00031800
     atom   32 type  2   force =    -0.00001844   -0.00011210   -0.00024691
     atom   33 type  1   force =    -0.00000853    0.00018923    0.00000002
     atom   34 type  2   force =    -0.00001724   -0.00006560    0.00029224
     atom   35 type  2   force =    -0.00004115    0.00002191   -0.00028205
     atom   36 type  3   force =     0.00000843   -0.00000102    0.00000213

     Total force =     0.135042     Total SCF correction =     0.001682

     BFGS Geometry Optimization
     Energy error            =      0.0E+00 Ry
     Gradient error          =      5.0E-02 Ry/Bohr

     number of scf cycles    =   1
     number of bfgs steps    =   0

     energy             new  =   -2205.5113118100 Ry

     new trust radius        =       0.0645906413 bohr
     new conv_thr            =       0.0000010000 Ry


ATOMIC_POSITIONS (angstrom)
Mo            6.5804164849        1.7733769739        2.8252331772
S             8.1695106332        0.8188476503        4.4349553311
S             8.1870642810        0.8161238289        1.2762216506
Mo            8.0972738216        4.4940943725        2.7183254736
S             6.5007185513        3.7185712515        4.3420392030
S             6.5534482344        3.5179550888        1.1223959964
Mo            6.4914882399        7.2142152160        2.6666203592
S             8.0828616529        6.3427484638        4.2508020242
S             8.0887044998        6.3080572425        1.0898190815
Mo            8.1549689002        9.9070085560        2.8292066987
S             6.4973914069        8.9417204300        4.3789468583
S             6.6171615033        9.0490463414        1.1445798241
Mo            3.4241005484        1.7407486376        2.7612100911
S             4.9798549290        0.8165377492        4.3572005050
S             5.0513564607        0.8477328206        1.2220606233
Mo            4.9857253560        4.5201135098        2.6376523254
S             3.4345552829        3.6923528216        4.3060249723
S             3.4358771636        3.5443576770        1.0662280634
Mo            3.4581211254        7.2162028001        2.6265534680
S             4.9848777829        6.3249725468        1.0382129796
Mo            5.0095200394        9.9036723449        2.7428566028
S             3.4701527538        8.9422660497        4.3240326938
S             3.4078064541        9.0654326216        1.1013486418
Mo            0.2930558855        1.7461792580        2.8379201229
S             1.8577334561        0.8021179407        4.4036878195
S             1.8555183216        0.8545523704        1.2081297012
Mo            1.8631465007        4.4938720642        2.6702790799
S             0.2702276054        3.6539250214        4.3346533568
S             0.2321708382        3.5271696663        1.1699680786
Mo            0.2686934402        7.2227348487        2.6985653586
S             1.9032460685        6.3127636751        4.2310530694
S             1.8571803487        6.3134308338        1.0473259886
Mo            1.8513537312        9.9371058244        2.7677401764
S             0.2974098092        9.0678413088        4.4087294434
S             0.2726177338        9.0472747296        1.1582496623
H             4.1900416118        4.8431127636        5.3215113697



     Writing config-only to output data dir ./MoS2-V-O.save/
     NEW-OLD atomic charge density approx. for the potential

     negative rho (up, down):  1.442E-04 0.000E+00

     total cpu time spent up to now is       75.2 secs

     Self-consistent Calculation

     iteration #  1     ecut=    80.00 Ry     beta= 0.70
     Davidson diagonalization with overlap
     ethr =  1.00E-06,  avg # of iterations = 11.0

     negative rho (up, down):  7.417E-05 0.000E+00

     total cpu time spent up to now is       88.8 secs

     total energy              =   -2205.52712982 Ry
     estimated scf accuracy    <       0.00290030 Ry

     iteration #  2     ecut=    80.00 Ry     beta= 0.70
     Davidson diagonalization with overlap
     ethr =  9.45E-07,  avg # of iterations =  2.0

     negative rho (up, down):  7.145E-05 0.000E+00

     total cpu time spent up to now is      103.0 secs

     total energy              =   -2205.52730620 Ry
     estimated scf accuracy    <       0.00063051 Ry

     iteration #  3     ecut=    80.00 Ry     beta= 0.70
     Davidson diagonalization with overlap
     ethr =  2.05E-07,  avg # of iterations =  5.0

     negative rho (up, down):  6.846E-05 0.000E+00

     total cpu time spent up to now is      120.2 secs

     total energy              =   -2205.52733525 Ry
     estimated scf accuracy    <       0.00014600 Ry

     iteration #  4     ecut=    80.00 Ry     beta= 0.70
     Davidson diagonalization with overlap
     ethr =  4.76E-08,  avg # of iterations =  4.0

     negative rho (up, down):  6.626E-05 0.000E+00

     total cpu time spent up to now is      132.8 secs

     total energy              =   -2205.52735927 Ry
     estimated scf accuracy    <       0.00001206 Ry

     iteration #  5     ecut=    80.00 Ry     beta= 0.70
     Davidson diagonalization with overlap
     ethr =  3.93E-09,  avg # of iterations =  7.0

     negative rho (up, down):  6.255E-05 0.000E+00

     total cpu time spent up to now is      145.2 secs

     total energy              =   -2205.52736370 Ry
     estimated scf accuracy    <       0.00000490 Ry

     iteration #  6     ecut=    80.00 Ry     beta= 0.70
     Davidson diagonalization with overlap
     ethr =  1.60E-09,  avg # of iterations =  2.0

     negative rho (up, down):  6.144E-05 0.000E+00

     total cpu time spent up to now is      161.0 secs

     total energy              =   -2205.52736466 Ry
     estimated scf accuracy    <       0.00000143 Ry

     iteration #  7     ecut=    80.00 Ry     beta= 0.70
     Davidson diagonalization with overlap
     ethr =  4.67E-10,  avg # of iterations =  5.0

     negative rho (up, down):  1.372E-04 0.000E+00

     total cpu time spent up to now is      163.3 secs

     End of self-consistent calculation

          k = 0.0000 0.0000 0.0000 (105382 PWs)   bands (ev):

   -62.8958 -62.8859 -62.8514 -62.8440 -62.8188 -62.8078 -62.7956 -62.7813
   -62.7732 -62.7657 -62.7604 -62.7539 -37.2191 -37.1608 -37.1491 -37.1355
   -37.1166 -37.1014 -37.0961 -37.0684 -37.0657 -37.0596 -37.0527 -37.0481
   -37.0271 -37.0180 -36.9983 -36.9957 -36.9916 -36.9896 -36.9810 -36.9725
   -36.9629 -36.9460 -36.9401 -36.9302 -36.9236 -36.9053 -36.9027 -36.8922
   -36.8898 -36.8749 -36.8585 -36.8363 -36.8340 -36.7907 -36.7439 -36.7018
   -16.0004 -15.3465 -15.1124 -15.0285 -14.9011 -14.8324 -14.6798 -14.4730
   -14.4272 -14.4119 -14.3832 -14.3183 -14.3123 -14.2973 -14.1927 -14.1279
   -14.1074 -14.0829 -14.0159 -13.8558 -13.8485 -13.8210 -13.7950  -7.8577
    -7.6482  -7.4375  -7.2941  -7.2692  -7.2038  -7.1824  -7.1744  -6.9955
    -6.8406  -6.8213  -6.7341  -6.6942  -6.5557  -6.4995  -6.4529  -6.4097
    -6.3722  -6.2266  -6.1366  -5.9714  -5.9012  -5.8523  -5.8308  -5.7641
    -5.7480  -5.7115  -5.6908  -5.6552  -5.6140  -5.5769  -5.5235  -5.4594
    -5.3977  -5.3526  -5.1319  -5.1100  -5.0591  -5.0231  -4.9837  -4.9492
    -4.9152  -4.8749  -4.6544  -4.6212  -4.3785  -4.3204  -4.3015  -4.2384
    -4.1900  -4.0420  -3.9812  -3.9086  -3.8059  -3.7678  -3.7337  -3.6799
    -3.6315  -3.5548  -3.5391  -3.5064  -3.4739  -3.4543  -3.4316  -3.3756
    -3.3503  -3.1891  -3.1754  -2.9032  -2.8861  -2.7953  -2.7813  -2.7197
    -2.6963  -2.6595  -2.6463  -2.6367  -2.5781  -2.3259  -2.0216  -1.9963
    -1.9387  -1.0231  -0.7435  -0.7239  -0.1625  -0.1454  -0.0804  -0.0176
     0.1046   0.1209   0.1596   0.2457   0.2577   0.2957   0.3878   0.4438
     0.4917   0.5165   0.5510   0.5792   0.6226   0.6794   0.7270   0.7392
     0.7849   0.8255   0.8545   0.9013   0.9350   0.9847   1.0422   1.1972
     1.4032

     the Fermi energy is    -1.0238 ev

!    total energy              =   -2205.52736435 Ry
     estimated scf accuracy    <       0.00000068 Ry
     smearing contrib. (-TS)   =      -0.00576642 Ry
     internal energy E=F+TS    =   -2205.52159793 Ry

     The total energy is F=E-TS. E is the sum of the following terms:
     one-electron contribution =  -18044.28441362 Ry
     hartree contribution      =    9008.98009081 Ry
     xc contribution           =    -385.20882471 Ry
     ewald contribution        =    7214.99154959 Ry

     convergence has been achieved in   7 iterations

     negative rho (up, down):  1.372E-04 0.000E+00

     Forces acting on atoms (cartesian axes, Ry/au):

     atom    1 type  1   force =     0.00137504   -0.01435863   -0.00053820
     atom    2 type  2   force =    -0.00812819    0.01099964   -0.00197634
     atom    3 type  2   force =    -0.01010600    0.00738401   -0.00945116
     atom    4 type  1   force =     0.00519645   -0.00023586    0.00174810
     atom    5 type  2   force =     0.00316693   -0.00794031   -0.00687972
     atom    6 type  2   force =     0.00030058    0.00785173    0.00383502
     atom    7 type  1   force =     0.00313728   -0.00564087   -0.00231016
     atom    8 type  2   force =     0.00166063   -0.00202405    0.01040330
     atom    9 type  2   force =     0.01300414    0.00492771    0.00715832
     atom   10 type  1   force =    -0.00383280    0.00731354   -0.00900655
     atom   11 type  2   force =     0.00360856   -0.00196628   -0.00957801
     atom   12 type  2   force =    -0.00342420    0.00050578    0.00297978
     atom   13 type  1   force =     0.00412969   -0.00416194   -0.01142049
     atom   14 type  2   force =     0.00522430   -0.00061767    0.00698853
     atom   15 type  2   force =    -0.00742325    0.00021606   -0.00966371
     atom   16 type  1   force =     0.00660400    0.00877556    0.00641093
     atom   17 type  2   force =     0.01733922    0.03515787    0.04561331
     atom   18 type  2   force =    -0.00192581   -0.00401235    0.01476261
     atom   19 type  1   force =     0.00502894   -0.00081485   -0.00185687
     atom   20 type  2   force =     0.00322500   -0.00371734   -0.00204978
     atom   21 type  1   force =    -0.00324762    0.00262317    0.00224698
     atom   22 type  2   force =    -0.00015312   -0.00265188   -0.00297360
     atom   23 type  2   force =    -0.00004022    0.00029490    0.00397699
     atom   24 type  1   force =    -0.00297406   -0.00203952   -0.00870853
     atom   25 type  2   force =     0.01042527    0.01376886    0.00141947
     atom   26 type  2   force =    -0.00800132   -0.00188302   -0.00645136
     atom   27 type  1   force =     0.00327060   -0.00115297    0.01594080
     atom   28 type  2   force =    -0.00358218   -0.00281978   -0.00529803
     atom   29 type  2   force =     0.00323735    0.00207684   -0.00364603
     atom   30 type  1   force =    -0.00203089    0.00278640    0.00258639
     atom   31 type  2   force =     0.00108263    0.00252957    0.01010174
     atom   32 type  2   force =    -0.00764571    0.00334405    0.00542826
     atom   33 type  1   force =     0.00569023   -0.00170782    0.00083044
     atom   34 type  2   force =     0.00012160   -0.03042224   -0.01433833
     atom   35 type  2   force =    -0.00578858    0.00783641    0.00740992
     atom   36 type  3   force =    -0.02852451   -0.03022471   -0.04369401
     The non-local contrib.  to forces
     atom    1 type  1   force =     0.00101220    0.02736838   -0.01418739
     atom    2 type  2   force =    -0.00392788   -0.00356253   -0.26889023
     atom    3 type  2   force =    -0.01196662   -0.00535261    0.26560863
     atom    4 type  1   force =    -0.00178981    0.00900039    0.00371700
     atom    5 type  2   force =     0.01343113   -0.02868114   -0.24891974
     atom    6 type  2   force =    -0.00330491    0.00952927    0.26574174
     atom    7 type  1   force =    -0.02145908   -0.00059093   -0.01454074
     atom    8 type  2   force =     0.00342353   -0.00351530   -0.25730536
     atom    9 type  2   force =     0.00675319   -0.01166781    0.27504084
     atom   10 type  1   force =     0.00436824    0.00173055   -0.00137113
     atom   11 type  2   force =     0.01293405    0.00197645   -0.26276150
     atom   12 type  2   force =    -0.01274769   -0.01746971    0.26025481
     atom   13 type  1   force =    -0.00073005    0.03151732   -0.00899528
     atom   14 type  2   force =     0.01041266   -0.01486201   -0.26318912
     atom   15 type  2   force =    -0.01195579   -0.00484137    0.25784751
     atom   16 type  1   force =    -0.00044685    0.02901003   -0.03957212
     atom   17 type  2   force =     0.13468015    0.20992065   -0.07197871
     atom   18 type  2   force =    -0.00257752   -0.00142920    0.27568056
     atom   19 type  1   force =     0.01470704   -0.00100289   -0.01458564
     atom   20 type  2   force =     0.00016206   -0.02102606    0.26267666
     atom   21 type  1   force =    -0.00029272    0.02195527    0.00498006
     atom   22 type  2   force =    -0.00631159    0.00281346   -0.25905501
     atom   23 type  2   force =     0.00680100   -0.01511909    0.26483949
     atom   24 type  1   force =     0.00489551    0.01143302   -0.01111420
     atom   25 type  2   force =     0.00286421   -0.00150508   -0.26375947
     atom   26 type  2   force =    -0.00039387   -0.01442517    0.26281540
     atom   27 type  1   force =     0.00758312    0.00913139    0.00114161
     atom   28 type  2   force =    -0.00680369   -0.02680246   -0.27287976
     atom   29 type  2   force =     0.00560751    0.00303345    0.26349441
     atom   30 type  1   force =    -0.00172070    0.01928562    0.00661459
     atom   31 type  2   force =    -0.00028922    0.00347998   -0.25230884
     atom   32 type  2   force =    -0.00208779   -0.01252003    0.27648282
     atom   33 type  1   force =    -0.00483409    0.00673028    0.00414062
     atom   34 type  2   force =    -0.00358703   -0.02892936   -0.27570924
     atom   35 type  2   force =    -0.00071725   -0.01183263    0.26751222
     atom   36 type  3   force =    -0.00968519   -0.01418024   -0.01502135
     The ionic contribution  to forces
     atom    1 type  1   force =     0.23605556    0.40056602    5.66782593
     atom    2 type  2   force =    -0.44912466    0.24300880   39.35945672
     atom    3 type  2   force =    -0.12751904    0.03549214  -36.19703635
     atom    4 type  1   force =     0.24227697    0.54250472    0.59571240
     atom    5 type  2   force =    -0.63996753    1.25730604   38.53471886
     atom    6 type  2   force =     0.32796002   -0.57684372  -37.99436082
     atom    7 type  1   force =    -2.39967764   -2.49926172    2.26899533
     atom    8 type  2   force =    -0.90636668    0.10372825   37.44498230
     atom    9 type  2   force =     0.36400173   -0.07898104  -37.99233324
     atom   10 type  1   force =    -0.81123979   -0.30318962    5.37167936
     atom   11 type  2   force =    -0.47221213   -1.53236450   39.09517139
     atom   12 type  2   force =     0.39095202    0.66516572  -37.84542269
     atom   13 type  1   force =     0.38293729    1.04087565    2.27531694
     atom   14 type  2   force =    -0.03501816   -0.05050588   38.57712615
     atom   15 type  2   force =     0.23306765   -0.04468542  -36.90194061
     atom   16 type  1   force =     0.02986236    3.53332441   -0.07066779
     atom   17 type  2   force =     0.33835189    0.53127466   37.41646201
     atom   18 type  2   force =    -0.15955137   -0.56683127  -38.49394409
     atom   19 type  1   force =     2.47116160   -2.23736089    0.18765233
     atom   20 type  2   force =     0.20310320   -0.20535281  -38.61986072
     atom   21 type  1   force =     0.08401784    0.05887577    1.28374174
     atom   22 type  2   force =     0.41802726   -1.58955137   38.44922963
     atom   23 type  2   force =    -0.08160320    0.65112934  -38.31356830
     atom   24 type  1   force =    -0.37533090    0.94845547    5.51789806
     atom   25 type  2   force =     0.53406056    0.20131274   39.24080178
     atom   26 type  2   force =    -0.32896160    0.03657255  -37.34138737
     atom   27 type  1   force =    -0.19806058    0.31609966   -2.09749934
     atom   28 type  2   force =    -0.01274014    0.85923328   38.14527792
     atom   29 type  2   force =    -0.21734969   -0.34982718  -37.29454342
     atom   30 type  1   force =    -0.29496292   -0.97715762   -0.14247667
     atom   31 type  2   force =     0.94062318    0.18402130   37.22374278
     atom   32 type  2   force =    -0.48982144   -0.07583374  -38.60447678
     atom   33 type  1   force =     0.50638726   -0.62089107    2.16272560
     atom   34 type  2   force =     0.16888749   -1.18597623   39.27374261
     atom   35 type  2   force =    -0.25370709    0.49848630  -37.75258360
     atom   36 type  3   force =     0.38148068    0.78718128    7.56984194
     The local contribution  to forces
     atom    1 type  1   force =    -0.23551073   -0.44263079   -5.65507373
     atom    2 type  2   force =     0.44467313   -0.22840863  -39.11374933
     atom    3 type  2   force =     0.12878255   -0.02297123   35.94258300
     atom    4 type  1   force =    -0.23531144   -0.55179986   -0.59864262
     atom    5 type  2   force =     0.63055497   -1.23810541  -38.31322093
     atom    6 type  2   force =    -0.32465757    0.57629911   37.75310990
     atom    7 type  1   force =     2.42417795    2.49426979   -2.25777666
     atom    8 type  2   force =     0.90470076   -0.10272773  -37.19820769
     atom    9 type  2   force =    -0.35764464    0.09502430   37.74518806
     atom   10 type  1   force =     0.80289795    0.30877964   -5.38056303
     atom   11 type  2   force =     0.46341715    1.52888252  -38.86314596
     atom   12 type  2   force =    -0.38265826   -0.64854261   37.60865540
     atom   13 type  1   force =    -0.37807642   -1.07711561   -2.27909431
     atom   14 type  2   force =     0.03053527    0.06438442  -38.32805726
     atom   15 type  2   force =    -0.22933238    0.04935724   36.65464842
     atom   16 type  1   force =    -0.02258587   -3.55331463    0.11553764
     atom   17 type  2   force =    -0.44820083   -0.69421202  -37.30871327
     atom   18 type  2   force =     0.16017014    0.56460635   38.25387266
     atom   19 type  1   force =    -2.48071836    2.23778856   -0.17594927
     atom   20 type  2   force =    -0.20009012    0.22192220   38.37606861
     atom   21 type  1   force =    -0.08696955   -0.07807599   -1.28743712
     atom   22 type  2   force =    -0.41199503    1.58463137  -38.21415335
     atom   23 type  2   force =     0.07526701   -0.63691100   38.07331812
     atom   24 type  1   force =     0.36729656   -0.96193000   -5.51656710
     atom   25 type  2   force =    -0.52658346   -0.18594501  -38.99667568
     atom   26 type  2   force =     0.32172522   -0.02477316   37.09271573
     atom   27 type  1   force =     0.19341937   -0.32628957    2.11110245
     atom   28 type  2   force =     0.01554302   -0.83700444  -37.89902515
     atom   29 type  2   force =     0.21540862    0.34936391   37.04773260
     atom   30 type  1   force =     0.29457022    0.96087638    0.13747651
     atom   31 type  2   force =    -0.93933118   -0.18508035  -36.98208943
     atom   32 type  2   force =     0.48440897    0.09110984   38.35423873
     atom   33 type  1   force =    -0.49572075    0.61239823   -2.16711537
     atom   34 type  2   force =    -0.16558073    1.18339658  -39.03391767
     atom   35 type  2   force =     0.24869250   -0.47985434   37.51322359
     atom   36 type  3   force =    -0.40030990   -0.80321843   -7.59859404
     The core correction contribution to forces
     atom    1 type  1   force =     0.00000000    0.00000000    0.00000000
     atom    2 type  2   force =     0.00008720    0.00000649    0.02071950
     atom    3 type  2   force =     0.00054850    0.00015101   -0.02079095
     atom    4 type  1   force =     0.00000000    0.00000000    0.00000000
     atom    5 type  2   force =    -0.00075720    0.00153007    0.02007704
     atom    6 type  2   force =     0.00033783   -0.00109382   -0.02093896
     atom    7 type  1   force =     0.00000000    0.00000000    0.00000000
     atom    8 type  2   force =    -0.00007310    0.00051746    0.02048119
     atom    9 type  2   force =    -0.00010213    0.00063843   -0.02097684
     atom   10 type  1   force =     0.00000000    0.00000000    0.00000000
     atom   11 type  2   force =    -0.00056014   -0.00038107    0.02073932
     atom   12 type  2   force =     0.00109123    0.00141727   -0.02075414
     atom   13 type  1   force =     0.00000000    0.00000000    0.00000000
     atom   14 type  2   force =    -0.00061954    0.00021475    0.02063244
     atom   15 type  2   force =     0.00071472    0.00031023   -0.02042706
     atom   16 type  1   force =     0.00000000    0.00000000    0.00000000
     atom   17 type  2   force =    -0.00744897   -0.01178471    0.00949048
     atom   18 type  2   force =     0.00002329   -0.00047433   -0.02115908
     atom   19 type  1   force =     0.00000000    0.00000000    0.00000000
     atom   20 type  2   force =     0.00008589    0.00076806   -0.02113988
     atom   21 type  1   force =     0.00000000    0.00000000    0.00000000
     atom   22 type  2   force =     0.00014177   -0.00044604    0.02055005
     atom   23 type  2   force =    -0.00051855    0.00125534   -0.02083008
     atom   24 type  1   force =     0.00000000    0.00000000    0.00000000
     atom   25 type  2   force =     0.00017269   -0.00016301    0.02069412
     atom   26 type  2   force =    -0.00028513    0.00072440   -0.02085514
     atom   27 type  1   force =     0.00000000    0.00000000    0.00000000
     atom   28 type  2   force =     0.00034555    0.00176260    0.02088429
     atom   29 type  2   force =    -0.00046744   -0.00056228   -0.02058795
     atom   30 type  1   force =     0.00000000    0.00000000    0.00000000
     atom   31 type  2   force =     0.00001382    0.00016376    0.02033534
     atom   32 type  2   force =    -0.00016633    0.00067538   -0.02112033
     atom   33 type  1   force =     0.00000000    0.00000000    0.00000000
     atom   34 type  2   force =     0.00045168    0.00091794    0.02116572
     atom   35 type  2   force =    -0.00012058    0.00104970   -0.02098878
     atom   36 type  3   force =     0.00000000    0.00000000    0.00000000
     The Hubbard contrib.    to forces
     atom    1 type  1   force =     0.00000000    0.00000000    0.00000000
     atom    2 type  2   force =     0.00000000    0.00000000    0.00000000
     atom    3 type  2   force =     0.00000000    0.00000000    0.00000000
     atom    4 type  1   force =     0.00000000    0.00000000    0.00000000
     atom    5 type  2   force =     0.00000000    0.00000000    0.00000000
     atom    6 type  2   force =     0.00000000    0.00000000    0.00000000
     atom    7 type  1   force =     0.00000000    0.00000000    0.00000000
     atom    8 type  2   force =     0.00000000    0.00000000    0.00000000
     atom    9 type  2   force =     0.00000000    0.00000000    0.00000000
     atom   10 type  1   force =     0.00000000    0.00000000    0.00000000
     atom   11 type  2   force =     0.00000000    0.00000000    0.00000000
     atom   12 type  2   force =     0.00000000    0.00000000    0.00000000
     atom   13 type  1   force =     0.00000000    0.00000000    0.00000000
     atom   14 type  2   force =     0.00000000    0.00000000    0.00000000
     atom   15 type  2   force =     0.00000000    0.00000000    0.00000000
     atom   16 type  1   force =     0.00000000    0.00000000    0.00000000
     atom   17 type  2   force =     0.00000000    0.00000000    0.00000000
     atom   18 type  2   force =     0.00000000    0.00000000    0.00000000
     atom   19 type  1   force =     0.00000000    0.00000000    0.00000000
     atom   20 type  2   force =     0.00000000    0.00000000    0.00000000
     atom   21 type  1   force =     0.00000000    0.00000000    0.00000000
     atom   22 type  2   force =     0.00000000    0.00000000    0.00000000
     atom   23 type  2   force =     0.00000000    0.00000000    0.00000000
     atom   24 type  1   force =     0.00000000    0.00000000    0.00000000
     atom   25 type  2   force =     0.00000000    0.00000000    0.00000000
     atom   26 type  2   force =     0.00000000    0.00000000    0.00000000
     atom   27 type  1   force =     0.00000000    0.00000000    0.00000000
     atom   28 type  2   force =     0.00000000    0.00000000    0.00000000
     atom   29 type  2   force =     0.00000000    0.00000000    0.00000000
     atom   30 type  1   force =     0.00000000    0.00000000    0.00000000
     atom   31 type  2   force =     0.00000000    0.00000000    0.00000000
     atom   32 type  2   force =     0.00000000    0.00000000    0.00000000
     atom   33 type  1   force =     0.00000000    0.00000000    0.00000000
     atom   34 type  2   force =     0.00000000    0.00000000    0.00000000
     atom   35 type  2   force =     0.00000000    0.00000000    0.00000000
     atom   36 type  3   force =     0.00000000    0.00000000    0.00000000
     The SCF correction term to forces
     atom    1 type  1   force =    -0.00017986    0.00033558    0.00087166
     atom    2 type  2   force =     0.00016615   -0.00004667    0.00046169
     atom    3 type  2   force =     0.00005073    0.00006251    0.00015920
     atom    4 type  1   force =     0.00002285    0.00005670    0.00093600
     atom    5 type  2   force =    -0.00009232    0.00000794    0.00043974
     atom    6 type  2   force =    -0.00003267   -0.00004130    0.00025784
     atom    7 type  1   force =     0.00009818   -0.00006019    0.00098660
     atom    8 type  2   force =    -0.00002176   -0.00002892    0.00042755
     atom    9 type  2   force =    -0.00000189   -0.00008834    0.00021418
     atom   10 type  1   force =     0.00014293   -0.00000921    0.00122293
     atom   11 type  2   force =     0.00003176   -0.00008185    0.00039344
     atom   12 type  2   force =    -0.00005939   -0.00006708    0.00022109
     atom   13 type  1   force =     0.00000099    0.00055852    0.00132684
     atom   14 type  2   force =    -0.00008381    0.00014887    0.00045102
     atom   15 type  2   force =     0.00008468    0.00007319    0.00018271
     atom   16 type  1   force =    -0.00022351   -0.00024643    0.00108789
     atom   17 type  2   force =    -0.00004089   -0.00004291    0.00032748
     atom   18 type  2   force =     0.00001179    0.00011391    0.00028725
     atom   19 type  1   force =    -0.00011922   -0.00024181    0.00100039
     atom   20 type  2   force =    -0.00003391   -0.00003092    0.00018024
     atom   21 type  1   force =    -0.00000106   -0.00013406    0.00093698
     atom   22 type  2   force =    -0.00001341   -0.00010147    0.00042976
     atom   23 type  2   force =     0.00001565   -0.00006188    0.00019245
     atom   24 type  1   force =     0.00016689   -0.00000019    0.00104940
     atom   25 type  2   force =    -0.00008661    0.00006704    0.00033342
     atom   26 type  2   force =    -0.00008382    0.00001619    0.00023471
     atom   27 type  1   force =     0.00033081   -0.00009662    0.00117076
     atom   28 type  2   force =     0.00007520   -0.00001096    0.00041935
     atom   29 type  2   force =     0.00004047    0.00006675    0.00023301
     atom   30 type  1   force =     0.00008464   -0.00022016    0.00094665
     atom   31 type  2   force =     0.00006816   -0.00005730    0.00039658
     atom   32 type  2   force =     0.00002301   -0.00008958    0.00027851
     atom   33 type  1   force =    -0.00014007    0.00005255    0.00105428
     atom   34 type  2   force =    -0.00004769    0.00016664    0.00035494
     atom   35 type  2   force =     0.00006596   -0.00001479    0.00022117
     atom   36 type  3   force =    -0.00000798   -0.00000951    0.00005412

     Total force =     0.109993     Total SCF correction =     0.004120
     Energy error            =      1.6E-02 Ry
     Gradient error          =      4.6E-02 Ry/Bohr

     number of scf cycles    =   2
     number of bfgs steps    =   1

     energy             old  =   -2205.5113118100 Ry
     energy             new  =   -2205.5273643544 Ry

     CASE: energy            _new < energy            _old

     new trust radius        =       0.0710497054 bohr
     new conv_thr            =       0.0000000456 Ry


ATOMIC_POSITIONS (angstrom)
Mo            6.5828286488        1.7624801918        2.8254748441
S             8.1636378982        0.8266125661        4.4341885890
S             8.1806111242        0.8209532099        1.2714396694
Mo            8.1002684062        4.4936940299        2.7192708828
S             6.5023979329        3.7138080790        4.3375174396
S             6.5536142272        3.5234034433        1.1244710713
Mo            6.4933669237        7.2103756549        2.6639694640
S             8.0839587314        6.3414904777        4.2580521752
S             8.0969621871        6.3113096802        1.0948740258
Mo            8.1515115120        9.9117896059        2.8207839500
S             6.4997020838        8.9404629943        4.3733457635
S             6.6153729479        9.0493773574        1.1473531229
Mo            3.4267131695        1.7369724211        2.7513885455
S             4.9836486474        0.8161352745        4.3623956568
S             5.0460226711        0.8482792264        1.2162867852
Mo            4.9905334076        4.5261987732        2.6420066839
S             3.4444464343        3.7145869152        4.3346852438
S             3.4343826767        3.5413618372        1.0753084699
Mo            3.4616952755        7.2157970837        2.6244556170
S             4.9868379539        6.3226932277        1.0375784478
Mo            5.0072139683        9.9054910785        2.7437069017
S             3.4698377974        8.9406134319        4.3222121590
S             3.4075982909        9.0657010480        1.1047584366
Mo            0.2907848616        1.7448508967        2.8304651738
S             1.8646673517        0.8112209641        4.4060011938
S             1.8502877961        0.8537392077        1.2048237816
Mo            1.8653748944        4.4928030310        2.6805651983
S             0.2680013359        3.6525050128        4.3313628204
S             0.2339218371        3.5280848046        1.1676935384
Mo            0.2670247267        7.2258527311        2.6987800454
S             1.9040432322        6.3138971414        4.2382487232
S             1.8521789673        6.3158852069        1.0506253887
Mo            1.8560652484        9.9354079414        2.7665275717
S             0.2979214786        9.0473211340        4.4006757399
S             0.2687322291        9.0519630779        1.1639958556
H             4.1731845812        4.8251165421        5.2950508961



     Writing config-only to output data dir ./MoS2-V-O.save/
     NEW-OLD atomic charge density approx. for the potential

     negative rho (up, down):  1.446E-04 0.000E+00

     total cpu time spent up to now is      166.9 secs

     Self-consistent Calculation

     iteration #  1     ecut=    80.00 Ry     beta= 0.70
     Davidson diagonalization with overlap
     ethr =  1.00E-06,  avg # of iterations = 10.0

     negative rho (up, down):  6.320E-05 0.000E+00

     total cpu time spent up to now is      180.0 secs

     total energy              =   -2205.54065125 Ry
     estimated scf accuracy    <       0.00236972 Ry

     iteration #  2     ecut=    80.00 Ry     beta= 0.70
     Davidson diagonalization with overlap
     ethr =  7.72E-07,  avg # of iterations =  2.0

     negative rho (up, down):  5.171E-05 0.000E+00

     total cpu time spent up to now is      194.9 secs

     total energy              =   -2205.54081032 Ry
     estimated scf accuracy    <       0.00056835 Ry

     iteration #  3     ecut=    80.00 Ry     beta= 0.70
     Davidson diagonalization with overlap
     ethr =  1.85E-07,  avg # of iterations =  5.0

     negative rho (up, down):  3.847E-05 0.000E+00

     total cpu time spent up to now is      204.9 secs

     total energy              =   -2205.54083639 Ry
     estimated scf accuracy    <       0.00011183 Ry

     iteration #  4     ecut=    80.00 Ry     beta= 0.70
     Davidson diagonalization with overlap
     ethr =  3.64E-08,  avg # of iterations =  3.0

     negative rho (up, down):  3.543E-05 0.000E+00

     total cpu time spent up to now is      218.1 secs

     total energy              =   -2205.54084968 Ry
     estimated scf accuracy    <       0.00001189 Ry

     iteration #  5     ecut=    80.00 Ry     beta= 0.70
     Davidson diagonalization with overlap
     ethr =  3.87E-09,  avg # of iterations = 11.0

     negative rho (up, down):  3.610E-05 0.000E+00

     total cpu time spent up to now is      230.5 secs

     total energy              =   -2205.54085332 Ry
     estimated scf accuracy    <       0.00000418 Ry

     iteration #  6     ecut=    80.00 Ry     beta= 0.70
     Davidson diagonalization with overlap
     ethr =  1.36E-09,  avg # of iterations =  2.0

     negative rho (up, down):  4.062E-05 0.000E+00

     total cpu time spent up to now is      241.9 secs

     total energy              =   -2205.54085387 Ry
     estimated scf accuracy    <       0.00000139 Ry

     iteration #  7     ecut=    80.00 Ry     beta= 0.70
     Davidson diagonalization with overlap
     ethr =  4.54E-10,  avg # of iterations =  3.0

     negative rho (up, down):  4.750E-05 0.000E+00

     total cpu time spent up to now is      254.5 secs

     total energy              =   -2205.54085408 Ry
     estimated scf accuracy    <       0.00000048 Ry

     iteration #  8     ecut=    80.00 Ry     beta= 0.70
     Davidson diagonalization with overlap
     ethr =  1.55E-10,  avg # of iterations =  2.0

     negative rho (up, down):  7.102E-05 0.000E+00

     total cpu time spent up to now is      263.7 secs

     total energy              =   -2205.54085406 Ry
     estimated scf accuracy    <       0.00000024 Ry

     iteration #  9     ecut=    80.00 Ry     beta= 0.70
     Davidson diagonalization with overlap
     ethr =  7.84E-11,  avg # of iterations =  6.0

     negative rho (up, down):  9.789E-05 0.000E+00

     total cpu time spent up to now is      278.1 secs

     total energy              =   -2205.54085403 Ry
     estimated scf accuracy    <       0.00000005 Ry

     iteration # 10     ecut=    80.00 Ry     beta= 0.70
     Davidson diagonalization with overlap
     ethr =  1.68E-11,  avg # of iterations =  5.0

     negative rho (up, down):  1.379E-04 0.000E+00

     total cpu time spent up to now is      280.6 secs

     End of self-consistent calculation

          k = 0.0000 0.0000 0.0000 (105382 PWs)   bands (ev):

   -62.8879 -62.8780 -62.8358 -62.8310 -62.8045 -62.7921 -62.7811 -62.7621
   -62.7578 -62.7510 -62.7414 -62.7344 -37.2046 -37.1473 -37.1362 -37.1206
   -37.1014 -37.0929 -37.0818 -37.0583 -37.0524 -37.0466 -37.0388 -37.0325
   -37.0139 -37.0042 -36.9844 -36.9798 -36.9771 -36.9735 -36.9660 -36.9567
   -36.9463 -36.9311 -36.9278 -36.9151 -36.9065 -36.8915 -36.8850 -36.8774
   -36.8721 -36.8579 -36.8434 -36.8221 -36.8204 -36.7769 -36.7222 -36.6844
   -15.9966 -15.3822 -15.1012 -15.0275 -14.8883 -14.8241 -14.6816 -14.4624
   -14.4080 -14.4043 -14.3773 -14.3079 -14.2923 -14.2871 -14.1849 -14.1166
   -14.0982 -14.0704 -14.0052 -13.8416 -13.8361 -13.8141 -13.7833  -7.9958
    -7.6345  -7.4325  -7.2788  -7.2613  -7.1932  -7.1750  -7.1638  -7.0001
    -6.8304  -6.8098  -6.7218  -6.6827  -6.5560  -6.4869  -6.4457  -6.3967
    -6.3591  -6.2153  -6.1367  -5.9559  -5.8854  -5.8486  -5.8156  -5.7554
    -5.7394  -5.6981  -5.6750  -5.6420  -5.6040  -5.5668  -5.5136  -5.4464
    -5.3756  -5.3315  -5.1128  -5.0937  -5.0550  -5.0071  -4.9748  -4.9387
    -4.9084  -4.8706  -4.6393  -4.6233  -4.3826  -4.3072  -4.2826  -4.2215
    -4.1849  -4.0395  -3.9714  -3.9110  -3.7900  -3.7612  -3.7157  -3.6656
    -3.6300  -3.5434  -3.5323  -3.4978  -3.4601  -3.4449  -3.4178  -3.3641
    -3.3336  -3.1900  -3.1678  -2.8962  -2.8690  -2.7760  -2.7660  -2.7075
    -2.6806  -2.6507  -2.6337  -2.6291  -2.5661  -2.3039  -2.0092  -1.9832
    -1.9366  -0.9890  -0.7192  -0.7110  -0.1515  -0.1350  -0.0695  -0.0002
     0.1104   0.1393   0.1675   0.2633   0.2799   0.3177   0.3997   0.4591
     0.5126   0.5310   0.5663   0.5994   0.6417   0.6915   0.7315   0.7477
     0.7898   0.8482   0.8701   0.9065   0.9493   1.0068   1.0471   1.2472
     1.4158

     the Fermi energy is    -0.9900 ev

!    total energy              =   -2205.54085396 Ry
     estimated scf accuracy    <       0.00000002 Ry
     smearing contrib. (-TS)   =      -0.00583283 Ry
     internal energy E=F+TS    =   -2205.53502112 Ry

     The total energy is F=E-TS. E is the sum of the following terms:
     one-electron contribution =  -18044.08121090 Ry
     hartree contribution      =    9008.98904791 Ry
     xc contribution           =    -385.22484069 Ry
     ewald contribution        =    7214.78198255 Ry

     convergence has been achieved in  10 iterations

     negative rho (up, down):  1.379E-04 0.000E+00

     Forces acting on atoms (cartesian axes, Ry/au):

     atom    1 type  1   force =    -0.00473041   -0.00511466   -0.00361286
     atom    2 type  2   force =    -0.00410679    0.00630370   -0.00290356
     atom    3 type  2   force =    -0.00811104    0.00560073   -0.01180476
     atom    4 type  1   force =     0.00554173    0.00063444    0.00149621
     atom    5 type  2   force =     0.00428927   -0.00775595   -0.00494312
     atom    6 type  2   force =     0.00042407    0.00511394    0.00470963
     atom    7 type  1   force =     0.00279958   -0.00372698    0.00141884
     atom    8 type  2   force =     0.00112271   -0.00234900    0.00711825
     atom    9 type  2   force =     0.01090783    0.00361402    0.00437560
     atom   10 type  1   force =    -0.00036823    0.00583225    0.00008150
     atom   11 type  2   force =     0.00309767   -0.00158455   -0.00909881
     atom   12 type  2   force =    -0.00427133    0.00033186    0.00007270
     atom   13 type  1   force =     0.00276872   -0.00077869   -0.00205215
     atom   14 type  2   force =     0.00251301   -0.00046179    0.00335413
     atom   15 type  2   force =    -0.00442981   -0.00173088   -0.00912791
     atom   16 type  1   force =     0.00388602    0.00568694    0.00343508
     atom   17 type  2   force =     0.01949583    0.03189533    0.04199594
     atom   18 type  2   force =    -0.00063941   -0.00126918    0.01449843
     atom   19 type  1   force =     0.00318538   -0.00082874    0.00093239
     atom   20 type  2   force =     0.00318524   -0.00342506   -0.00365801
     atom   21 type  1   force =    -0.00170708    0.00172731    0.00251733
     atom   22 type  2   force =     0.00087415   -0.00242040   -0.00188202
     atom   23 type  2   force =     0.00039841   -0.00008280    0.00078176
     atom   24 type  1   force =    -0.00139651   -0.00117073   -0.00235478
     atom   25 type  2   force =     0.00760481    0.01047218   -0.00321384
     atom   26 type  2   force =    -0.00537672   -0.00288241   -0.00699242
     atom   27 type  1   force =     0.00260357    0.00049911    0.01322415
     atom   28 type  2   force =    -0.00313000   -0.00394072   -0.00396432
     atom   29 type  2   force =     0.00455123    0.00340989   -0.00245533
     atom   30 type  1   force =    -0.00019298   -0.00232341    0.00572987
     atom   31 type  2   force =     0.00059382    0.00399153    0.00648750
     atom   32 type  2   force =    -0.00560615    0.00119519    0.00595059
     atom   33 type  1   force =     0.00092354    0.00074447    0.00478716
     atom   34 type  2   force =    -0.00146987   -0.02035513   -0.01417381
     atom   35 type  2   force =    -0.00375492    0.00720437    0.00330379
     atom   36 type  3   force =    -0.03147535   -0.03205620   -0.04403314
     The non-local contrib.  to forces
     atom    1 type  1   force =     0.00148527    0.02421117   -0.01445560
     atom    2 type  2   force =    -0.00118326   -0.00685843   -0.26797919
     atom    3 type  2   force =    -0.00936681   -0.00735107    0.26296010
     atom    4 type  1   force =    -0.00160501    0.01003256    0.00363785
     atom    5 type  2   force =     0.01376144   -0.02829375   -0.24667775
     atom    6 type  2   force =    -0.00266279    0.00664130    0.26678871
     atom    7 type  1   force =    -0.02188769   -0.00052396   -0.01525375
     atom    8 type  2   force =     0.00318063   -0.00399765   -0.25900309
     atom    9 type  2   force =     0.00469163   -0.01286449    0.27317086
     atom   10 type  1   force =     0.00337159    0.00190812   -0.00156978
     atom   11 type  2   force =     0.01188886    0.00167354   -0.26263411
     atom   12 type  2   force =    -0.01278353   -0.01752339    0.25909493
     atom   13 type  1   force =     0.00007462    0.03055811   -0.00928076
     atom   14 type  2   force =     0.00896932   -0.01547663   -0.26385154
     atom   15 type  2   force =    -0.01024698   -0.00634379    0.25737932
     atom   16 type  1   force =    -0.00004333    0.03169760   -0.04102232
     atom   17 type  2   force =     0.14309802    0.23437080   -0.06025033
     atom   18 type  2   force =    -0.00085808   -0.00055987    0.27583057
     atom   19 type  1   force =     0.01605019   -0.00130635   -0.01458701
     atom   20 type  2   force =     0.00038145   -0.01946853    0.26145777
     atom   21 type  1   force =    -0.00108717    0.02193918    0.00377615
     atom   22 type  2   force =    -0.00534655    0.00272712   -0.25822608
     atom   23 type  2   force =     0.00731430   -0.01536640    0.26252181
     atom   24 type  1   force =     0.00409937    0.01156928   -0.01038571
     atom   25 type  2   force =     0.00019912   -0.00477499   -0.26580301
     atom   26 type  2   force =     0.00195772   -0.01488207    0.26265828
     atom   27 type  1   force =     0.00859586    0.00862170   -0.00052193
     atom   28 type  2   force =    -0.00577066   -0.02663228   -0.27183055
     atom   29 type  2   force =     0.00565310    0.00257096    0.26502674
     atom   30 type  1   force =    -0.00228665    0.02024520    0.00646620
     atom   31 type  2   force =    -0.00030396    0.00363109   -0.25453983
     atom   32 type  2   force =    -0.00018141   -0.01363379    0.27747509
     atom   33 type  1   force =    -0.00378747    0.00537131    0.00301250
     atom   34 type  2   force =    -0.00452143   -0.02127978   -0.27647228
     atom   35 type  2   force =     0.00042088   -0.01243929    0.26562296
     atom   36 type  3   force =    -0.01235119   -0.01796528   -0.01799230
     The ionic contribution  to forces
     atom    1 type  1   force =     0.06222244    0.64947076    5.62205416
     atom    2 type  2   force =    -0.30908759    0.16420478   39.40288194
     atom    3 type  2   force =    -0.09345824    0.05960490  -36.31737500
     atom    4 type  1   force =     0.24536720    0.50902273    0.60325923
     atom    5 type  2   force =    -0.62984657    1.20458615   38.45403072
     atom    6 type  2   force =     0.29232780   -0.60631533  -37.92713022
     atom    7 type  1   force =    -2.37332517   -2.42283946    2.15608064
     atom    8 type  2   force =    -0.92118336    0.10599378   37.52290738
     atom    9 type  2   force =     0.35836551   -0.11740297  -37.97451456
     atom   10 type  1   force =    -0.63889727   -0.30450556    5.16990207
     atom   11 type  2   force =    -0.44370762   -1.52968438   39.04015573
[...]
     atom   27 type  1   force =    -0.00321850    0.00745645    0.00184906
     atom   28 type  2   force =    -0.00031524   -0.01430931   -0.26927510
     atom   29 type  2   force =     0.00013006   -0.00620813    0.26870426
     atom   30 type  1   force =    -0.00011119    0.02123650   -0.00051850
     atom   31 type  2   force =    -0.00887347    0.00117540   -0.26448276
     atom   32 type  2   force =     0.00402896   -0.01154829    0.26637121
     atom   33 type  1   force =    -0.00149584    0.00954491    0.00076605
     atom   34 type  2   force =    -0.00006878   -0.00874877   -0.27135243
     atom   35 type  2   force =    -0.00011954   -0.01568280    0.26732549
     atom   36 type  3   force =    -0.00036772    0.00036191   -0.01741645
     The ionic contribution  to forces
     atom    1 type  1   force =    -0.03879815    0.45978846    2.70561388
     atom    2 type  2   force =    -0.15629998    0.07076333   38.92004827
     atom    3 type  2   force =     0.06012090   -0.07709148  -37.43168084
     atom    4 type  1   force =    -0.31676712    0.37659850    0.81837031
     atom    5 type  2   force =    -0.71131022    1.16621878   38.49242595
     atom    6 type  2   force =     0.17954463   -0.26299065  -38.01911731
     atom    7 type  1   force =    -2.19643976   -1.68962620    1.75039640
     atom    8 type  2   force =    -1.13062438    0.03888291   38.39800270
     atom    9 type  2   force =     0.22776466   -0.00770209  -37.95145089
     atom   10 type  1   force =    -0.23254328   -0.24722695    3.14951398
     atom   11 type  2   force =    -0.48650002   -1.31972402   38.79744759
     atom   12 type  2   force =     0.14973515    0.30941479  -37.98418234
     atom   13 type  1   force =     0.11583291    0.39717111    2.65863027
     atom   14 type  2   force =     0.00465495   -0.07422016   38.70207604
     atom   15 type  2   force =     0.00595758   -0.14007319  -37.46407410
     atom   16 type  1   force =     0.20766016    2.89684494    1.20743310
     atom   17 type  2   force =     0.73486159    1.12798729   38.58757871
     atom   18 type  2   force =    -0.16263527   -0.31460070  -38.16257336
     atom   19 type  1   force =     2.20117360   -1.50071831    1.71908569
     atom   20 type  2   force =     0.04845797   -0.00777463  -38.62028909
     atom   21 type  1   force =    -0.02158077   -0.23538915    1.44033625
     atom   22 type  2   force =     0.49135238   -1.31417975   38.76040883
     atom   23 type  2   force =    -0.14591605    0.31347260  -37.96424320
     atom   24 type  1   force =    -0.03869984    0.28122884    2.38113169
     atom   25 type  2   force =     0.13258050    0.04409828   38.91358474
     atom   26 type  2   force =    -0.08194968   -0.10218416  -37.42375812
     atom   27 type  1   force =     0.13290869    0.36915565    0.57184815
     atom   28 type  2   force =    -0.02446945    0.45644125   38.30740802
     atom   29 type  2   force =    -0.03467399   -0.14614815  -37.68443749
     atom   30 type  1   force =    -0.02769500   -0.43090750    2.18731993
     atom   31 type  2   force =     1.09566720    0.06875437   38.40676784
     atom   32 type  2   force =    -0.25974370    0.02019222  -38.00599636
     atom   33 type  1   force =     0.26733941   -0.25796790    3.11108870
     atom   34 type  2   force =    -0.00503202   -0.40794090   38.91121513
     atom   35 type  2   force =    -0.01202285    0.17629433  -37.40190353
     atom   36 type  3   force =     0.02808926   -0.03684175    5.21597445
     The local contribution  to forces
     atom    1 type  1   force =     0.03898512   -0.48188648   -2.69997900
     atom    2 type  2   force =     0.15808874   -0.05851838  -38.67399471
     atom    3 type  2   force =    -0.05765158    0.08726142   37.18507117
     atom    4 type  1   force =     0.31324470   -0.38405399   -0.81960948
     atom    5 type  2   force =     0.70879363   -1.14801120  -38.25664689
     atom    6 type  2   force =    -0.17731671    0.26824706   37.77382758
     atom    7 type  1   force =     2.19282130    1.67718583   -1.74224819
     atom    8 type  2   force =     1.12264351   -0.03880163  -38.15441077
     atom    9 type  2   force =    -0.22366652    0.01844857   37.70552615
     atom   10 type  1   force =     0.23069411    0.23750206   -3.15147034
     atom   11 type  2   force =     0.48176538    1.32178701  -38.55866535
     atom   12 type  2   force =    -0.14548318   -0.29466478   37.74139666
     atom   13 type  1   force =    -0.11504611   -0.41849625   -2.65420905
     atom   14 type  2   force =    -0.00451950    0.08468420  -38.45472946
     atom   15 type  2   force =    -0.00596625    0.15144645   37.22048257
     atom   16 type  1   force =    -0.20712259   -2.90957444   -1.18821099
     atom   17 type  2   force =    -0.73307760   -1.10901330  -38.35182763
     atom   18 type  2   force =     0.16150630    0.32009663   37.91860640
     atom   19 type  1   force =    -2.19746526    1.48598889   -1.70759208
     atom   20 type  2   force =    -0.04826439    0.02103351   38.37812889
     atom   21 type  1   force =     0.02129007    0.21231414   -1.44430616
     atom   22 type  2   force =    -0.48697590    1.31718678  -38.52163306
     atom   23 type  2   force =     0.14098330   -0.29846882   37.72090144
     atom   24 type  1   force =     0.03858655   -0.29730637   -2.38034624
     atom   25 type  2   force =    -0.13464223   -0.03184796  -38.66746963
     atom   26 type  2   force =     0.07939820    0.11236096   37.17669522
     atom   27 type  1   force =    -0.12959216   -0.37670531   -0.57319529
     atom   28 type  2   force =     0.02457064   -0.44311627  -38.05913279
     atom   29 type  2   force =     0.03443576    0.15241695   37.43743903
     atom   30 type  1   force =     0.02745510    0.41045852   -2.18682706
     atom   31 type  2   force =    -1.08784827   -0.06902390  -38.16310396
     atom   32 type  2   force =     0.25581262   -0.00862582   37.76040543
     atom   33 type  1   force =    -0.26593124    0.24842010   -3.11258914
     atom   34 type  2   force =     0.00497963    0.41712581  -38.66102625
     atom   35 type  2   force =     0.01189539   -0.16222373   37.15570107
     atom   36 type  3   force =    -0.02718746    0.03707535   -5.19697226
     The core correction contribution to forces
     atom    1 type  1   force =     0.00000000    0.00000000    0.00000000
     atom    2 type  2   force =     0.00007880    0.00056907    0.02086143
     atom    3 type  2   force =     0.00009551    0.00043986   -0.02091576
     atom    4 type  1   force =     0.00000000    0.00000000    0.00000000
     atom    5 type  2   force =    -0.00030902    0.00103946    0.02043669
     atom    6 type  2   force =     0.00028933   -0.00008742   -0.02090174
     atom    7 type  1   force =     0.00000000    0.00000000    0.00000000
     atom    8 type  2   force =    -0.00047709    0.00018832    0.02080639
     atom    9 type  2   force =     0.00045093    0.00056502   -0.02088756
     atom   10 type  1   force =     0.00000000    0.00000000    0.00000000
     atom   11 type  2   force =    -0.00017599   -0.00018771    0.02062163
     atom   12 type  2   force =     0.00041987    0.00102810   -0.02088478
     atom   13 type  1   force =     0.00000000    0.00000000    0.00000000
     atom   14 type  2   force =    -0.00000896    0.00023948    0.02091138
     atom   15 type  2   force =    -0.00002063    0.00050750   -0.02072537
     atom   16 type  1   force =     0.00000000    0.00000000    0.00000000
     atom   17 type  2   force =     0.00022518    0.00103467    0.02048100
     atom   18 type  2   force =    -0.00027451   -0.00007849   -0.02090945
     atom   19 type  1   force =     0.00000000    0.00000000    0.00000000
     atom   20 type  2   force =     0.00008524    0.00060852   -0.02088598
     atom   21 type  1   force =     0.00000000    0.00000000    0.00000000
     atom   22 type  2   force =     0.00017872   -0.00021392    0.02061526
     atom   23 type  2   force =    -0.00043868    0.00096959   -0.02088297
     atom   24 type  1   force =     0.00000000    0.00000000    0.00000000
     atom   25 type  2   force =    -0.00008737    0.00056667    0.02084316
     atom   26 type  2   force =    -0.00010283    0.00045297   -0.02089238
     atom   27 type  1   force =     0.00000000    0.00000000    0.00000000
     atom   28 type  2   force =     0.00001649    0.00083526    0.02093701
     atom   29 type  2   force =    -0.00003272    0.00012417   -0.02085896
     atom   30 type  1   force =     0.00000000    0.00000000    0.00000000
     atom   31 type  2   force =     0.00050577    0.00009233    0.02081933
     atom   32 type  2   force =    -0.00045845    0.00061323   -0.02086771
     atom   33 type  1   force =     0.00000000    0.00000000    0.00000000
     atom   34 type  2   force =    -0.00001203    0.00032667    0.02107328
     atom   35 type  2   force =    -0.00001497    0.00084805   -0.02090021
     atom   36 type  3   force =     0.00000000    0.00000000    0.00000000
     The Hubbard contrib.    to forces
     atom    1 type  1   force =     0.00000000    0.00000000    0.00000000
     atom    2 type  2   force =     0.00000000    0.00000000    0.00000000
     atom    3 type  2   force =     0.00000000    0.00000000    0.00000000
     atom    4 type  1   force =     0.00000000    0.00000000    0.00000000
     atom    5 type  2   force =     0.00000000    0.00000000    0.00000000
     atom    6 type  2   force =     0.00000000    0.00000000    0.00000000
     atom    7 type  1   force =     0.00000000    0.00000000    0.00000000
     atom    8 type  2   force =     0.00000000    0.00000000    0.00000000
     atom    9 type  2   force =     0.00000000    0.00000000    0.00000000
     atom   10 type  1   force =     0.00000000    0.00000000    0.00000000
     atom   11 type  2   force =     0.00000000    0.00000000    0.00000000
     atom   12 type  2   force =     0.00000000    0.00000000    0.00000000
     atom   13 type  1   force =     0.00000000    0.00000000    0.00000000
     atom   14 type  2   force =     0.00000000    0.00000000    0.00000000
     atom   15 type  2   force =     0.00000000    0.00000000    0.00000000
     atom   16 type  1   force =     0.00000000    0.00000000    0.00000000
     atom   17 type  2   force =     0.00000000    0.00000000    0.00000000
     atom   18 type  2   force =     0.00000000    0.00000000    0.00000000
     atom   19 type  1   force =     0.00000000    0.00000000    0.00000000
     atom   20 type  2   force =     0.00000000    0.00000000    0.00000000
     atom   21 type  1   force =     0.00000000    0.00000000    0.00000000
     atom   22 type  2   force =     0.00000000    0.00000000    0.00000000
     atom   23 type  2   force =     0.00000000    0.00000000    0.00000000
     atom   24 type  1   force =     0.00000000    0.00000000    0.00000000
     atom   25 type  2   force =     0.00000000    0.00000000    0.00000000
     atom   26 type  2   force =     0.00000000    0.00000000    0.00000000
     atom   27 type  1   force =     0.00000000    0.00000000    0.00000000
     atom   28 type  2   force =     0.00000000    0.00000000    0.00000000
     atom   29 type  2   force =     0.00000000    0.00000000    0.00000000
     atom   30 type  1   force =     0.00000000    0.00000000    0.00000000
     atom   31 type  2   force =     0.00000000    0.00000000    0.00000000
     atom   32 type  2   force =     0.00000000    0.00000000    0.00000000
     atom   33 type  1   force =     0.00000000    0.00000000    0.00000000
     atom   34 type  2   force =     0.00000000    0.00000000    0.00000000
     atom   35 type  2   force =     0.00000000    0.00000000    0.00000000
     atom   36 type  3   force =     0.00000000    0.00000000    0.00000000
     The SCF correction term to forces
     atom    1 type  1   force =    -0.00001359   -0.00001320   -0.00002004
     atom    2 type  2   force =    -0.00000277    0.00001349   -0.00000394
     atom    3 type  2   force =     0.00000367    0.00001326   -0.00000966
     atom    4 type  1   force =     0.00000921   -0.00000475   -0.00002313
     atom    5 type  2   force =    -0.00000259   -0.00001287    0.00001323
     atom    6 type  2   force =     0.00000721   -0.00001564   -0.00002327
     atom    7 type  1   force =     0.00002370    0.00003719   -0.00002818
     atom    8 type  2   force =    -0.00001664    0.00000878   -0.00001698
     atom    9 type  2   force =    -0.00001686    0.00000583    0.00000616
     atom   10 type  1   force =    -0.00002949    0.00000501   -0.00002191
     atom   11 type  2   force =    -0.00000229   -0.00001219   -0.00001843
     atom   12 type  2   force =     0.00000023   -0.00001477    0.00001313
     atom   13 type  1   force =    -0.00000972    0.00000364   -0.00001426
     atom   14 type  2   force =    -0.00000741    0.00001322   -0.00000837
     atom   15 type  2   force =    -0.00000725    0.00001181   -0.00000187
     atom   16 type  1   force =    -0.00002380   -0.00001961    0.00000495
     atom   17 type  2   force =    -0.00000829   -0.00001791    0.00000188
     atom   18 type  2   force =    -0.00001155   -0.00002564   -0.00000831
     atom   19 type  1   force =     0.00005061   -0.00001621    0.00000202
     atom   20 type  2   force =     0.00001872    0.00001008   -0.00000321
     atom   21 type  1   force =     0.00002167    0.00002297   -0.00001565
     atom   22 type  2   force =     0.00000962    0.00001352   -0.00000053
     atom   23 type  2   force =     0.00000699    0.00001874   -0.00001221
     atom   24 type  1   force =     0.00000770    0.00000755   -0.00002540
     atom   25 type  2   force =     0.00001262    0.00002030   -0.00001092
     atom   26 type  2   force =     0.00000981    0.00001801   -0.00000478
     atom   27 type  1   force =     0.00000459   -0.00006213   -0.00001098
     atom   28 type  2   force =     0.00000926   -0.00001081   -0.00000218
     atom   29 type  2   force =     0.00000608   -0.00001229   -0.00001266
     atom   30 type  1   force =    -0.00004098   -0.00001135   -0.00002037
     atom   31 type  2   force =    -0.00000059   -0.00001809   -0.00000066
     atom   32 type  2   force =    -0.00001034   -0.00001907   -0.00001485
     atom   33 type  1   force =     0.00000515    0.00005405   -0.00002522
     atom   34 type  2   force =    -0.00000608    0.00000465   -0.00000326
     atom   35 type  2   force =    -0.00000434    0.00000684   -0.00000894
     atom   36 type  3   force =     0.00000347    0.00000243   -0.00000075

     Total force =     0.005891     Total SCF correction =     0.000176
     Energy error            =      7.5E-05 Ry
     Gradient error          =      1.8E-03 Ry/Bohr

     bfgs converged in  47 scf cycles and  45 bfgs steps
     (criteria: energy <  1.0E-04 Ry, force <  1.0E-02 Ry/Bohr)

     End of BFGS Geometry Optimization

     Final energy             =   -2205.7085601606 Ry

     File ./MoS2-V-O.bfgs deleted, as requested
Begin final coordinates

ATOMIC_POSITIONS (angstrom)
Mo            6.5398896159        1.7215321385        2.8147341963
S             8.1146728659        0.8128242371        4.4201287564
S             8.1182344071        0.8014693015        1.2307452975
Mo            8.1041997062        4.4529709981        2.7687557098
S             6.5031535076        3.6128546871        4.3661672292
S             6.5426419411        3.5200056200        1.1660601848
Mo            6.5209218035        7.1651676057        2.7221045198
S             8.0703732951        6.2709317553        4.3587237617
S             8.1319846146        6.2798925957        1.1661985596
Mo            8.1164217288        9.8978345395        2.8262498018
S             6.5131854098        8.9306813638        4.3898717742
S             6.5708778920        9.0096702955        1.1786639199
Mo            3.4042011352        1.7215514581        2.8141544167
S             4.9720490915        0.7811212198        4.4011961065
S             4.9724919039        0.8056795244        1.2222421056
Mo            4.9631424326        4.4737825028        2.7128162396
S             3.4300140799        3.6086634905        4.3697342319
S             3.3983479531        3.5197917240        1.1593132410
Mo            3.4314231146        7.1563792368        2.7216674322
S             4.9785432092        6.2743583797        1.0888363927
Mo            4.9750475909        9.8704282715        2.7887845369
S             3.4379169838        8.9225074060        4.3879194139
S             3.3816120587        9.0034336276        1.1786232471
Mo            0.2450620209        1.7044122771        2.8193188060
S             1.8341202128        0.8098714036        4.4189371198
S             1.8293566930        0.8003178435        1.2324758553
Mo            1.8392140462        4.4508889582        2.7647485803
S             0.2439119229        3.5680144369        4.3701010706
S             0.2416474572        3.5175133308        1.1961861204
Mo            0.2480394764        7.1690416535        2.7948017491
S             1.8823149540        6.2646920442        4.3575673669
S             1.8190283835        6.2799184242        1.1635802381
Mo            1.8353323240        9.8951544373        2.8255460710
S             0.2480945927        8.9832854701        4.4131856336
S             0.2477907224        9.0129162428        1.2288381362
H             4.9700923095        6.2686767984        3.6813620491
End final coordinates



     Writing all to output data dir ./MoS2-V-O.save/
 
     init_run     :      2.37s CPU      2.66s WALL (       1 calls)
     electrons    :   4686.40s CPU   5214.57s WALL (      47 calls)
     update_pot   :     65.68s CPU     69.59s WALL (      46 calls)
     forces       :     64.31s CPU     75.13s WALL (      47 calls)

     Called by init_run:
     wfcinit      :      0.38s CPU      0.44s WALL (       1 calls)
     potinit      :      1.31s CPU      1.45s WALL (       1 calls)
     hinit0       :      0.16s CPU      0.18s WALL (       1 calls)

     Called by electrons:
     c_bands      :    594.67s CPU    603.91s WALL (     422 calls)
     sum_band     :    127.32s CPU    164.24s WALL (     422 calls)
     v_of_rho     :    187.54s CPU    229.73s WALL (     449 calls)
     newd         :     59.89s CPU     96.00s WALL (     449 calls)
     mix_rho      :   3736.19s CPU   4141.21s WALL (     422 calls)

     Called by c_bands:
     init_us_2    :      9.02s CPU      9.74s WALL (     845 calls)
     init_us_2:cp :      9.01s CPU      9.74s WALL (     845 calls)
     regterg      :    562.85s CPU    571.25s WALL (     422 calls)

     Called by *egterg:
     rdiaghg      :     42.21s CPU     42.69s WALL (    2427 calls)
     h_psi        :    298.22s CPU    301.03s WALL (    2494 calls)
     s_psi        :     35.73s CPU     35.90s WALL (    2494 calls)
     g_psi        :      3.41s CPU      3.44s WALL (    2071 calls)

     Called by h_psi:
     h_psi:calbec :     43.75s CPU     44.01s WALL (    2494 calls)
     vloc_psi     :    211.61s CPU    213.85s WALL (    2494 calls)
     add_vuspsi   :     35.64s CPU     35.92s WALL (    2494 calls)

     General routines
     calbec       :     61.12s CPU     61.49s WALL (    3104 calls)
     fft          :    123.33s CPU    144.60s WALL (   30134 calls)
     ffts         :   1677.40s CPU   2068.65s WALL (  912392 calls)
     fftw         :    180.01s CPU    181.65s WALL (  262060 calls)
     interpolate  :      3.27s CPU      3.88s WALL (     449 calls)
 
     Parallel routines
 
     PWSCF        :      1h20m CPU      1h29m WALL

 
   This run was terminated on:   3:57:42   4Nov2023            

=------------------------------------------------------------------------------=
   JOB DONE.
=------------------------------------------------------------------------------=
