
     Program PWSCF v.7.2 starts on  4Nov2023 at  5:51:50 

     This program is part of the open-source Quantum ESPRESSO suite
     for quantum simulation of materials; please cite
         "P. Giannozzi et al., J. Phys.:Condens. Matter 21 395502 (2009);
         "P. Giannozzi et al., J. Phys.:Condens. Matter 29 465901 (2017);
         "P. Giannozzi et al., J. Chem. Phys. 152 154105 (2020);
          URL http://www.quantum-espresso.org", 
     in publications or presentations arising from this work. More details at
     http://www.quantum-espresso.org/quote

     Parallel version (MPI & OpenMP), running on      48 processor cores
     Number of MPI processes:                48
     Threads/MPI process:                     1

     MPI processes distributed on     1 nodes
     107801 MiB available memory on the printing compute node when the environment starts
 
     Waiting for input...
     Reading input from standard input
Warning: card &CELL ignored
Warning: card CELL_DYNAMICS = 'BFGS', ignored
Warning: card CELL_DOFREE = '2DXY' ignored
Warning: card / ignored

     Current dimensions of program PWSCF are:
     Max number of different atomic species (ntypx) = 10
     Max number of k-points (npk) =  40000
     Max angular momentum in pseudopotentials (lmaxx) =  4

     IMPORTANT: XC functional enforced from input :
     Exchange-correlation= RVV10
                           (   1   4  13   4  26   0   0)
     Any further DFT definition will be discarded
     Please, verify this is what you really want


     gamma-point specific algorithms are used
     signal trapping enabled: kill the code with -SIGUSR1 to stop cleanly the simulation 
 
     R & G space division:  proc/nbgrp/npool/nimage =      48
     Subspace diagonalization in iterative solution of the eigenvalue problem:
     one sub-group per band group will be used
     scalapack distributed-memory algorithm (size of sub-group:  2*  2 procs)

 
     Parallelization info
     --------------------
     sticks:   dense  smooth     PW     G-vecs:    dense   smooth      PW
     Min         243     194     47                49060    35090    4376
     Max         246     196     50                49086    35128    4410
     Sum       11735    9389   2349              2355467  1685513  210763
 
     Using Slab Decomposition
 


     bravais-lattice index     =            0
     lattice parameter (alat)  =      17.8707  a.u.
     unit-cell volume          =   17436.2743 (a.u.)^3
     number of atoms/cell      =           36
     number of atomic types    =            3
     number of electrons       =       307.00
     number of Kohn-Sham states=          185
     kinetic-energy cutoff     =      80.0000  Ry
     charge density cutoff     =     400.0000  Ry
     scf convergence threshold =      1.0E-06
     mixing beta               =       0.7000
     number of iterations used =            8  local-TF  mixing
     energy convergence thresh.=      1.0E-04
     force convergence thresh. =      1.0E-02
     Exchange-correlation= RVV10
                           (   1   4  13   4  26   0   0)
     nstep                     =          200


     celldm(1)=  17.870686  celldm(2)=   0.000000  celldm(3)=   0.000000
     celldm(4)=   0.000000  celldm(5)=   0.000000  celldm(6)=   0.000000

     crystal axes: (cart. coord. in units of alat)
               a(1) = (   1.000000   0.000000   0.000000 )  
               a(2) = (   0.000000   1.155671   0.000000 )  
               a(3) = (   0.000000   0.000000   2.643601 )  

     reciprocal axes: (cart. coord. in units 2 pi/alat)
               b(1) = (  1.000000  0.000000  0.000000 )  
               b(2) = (  0.000000  0.865298  0.000000 )  
               b(3) = (  0.000000  0.000000  0.378272 )  


     PseudoPot. # 1 for Mo read from file:
     ../pseudo/Mo_ONCV_PBE-1.0.oncvpsp.upf
     MD5 check sum: 1b5d28e075c9ccadda658a603575cd1f
     Pseudo is Norm-conserving, Zval = 14.0
     Generated using ONCVPSP code by D. R. Hamann
     Using radial grid of 1526 points,  6 beta functions with: 
                l(1) =   0
                l(2) =   0
                l(3) =   1
                l(4) =   1
                l(5) =   2
                l(6) =   2

     PseudoPot. # 2 for S  read from file:
     ../pseudo/s_pbe_v1.4.uspp.F.UPF
     MD5 check sum: 88d86576ff6df21479756cfb9bdac1df
     Pseudo is Ultrasoft + core correction, Zval =  6.0
     Generated by new atomic code, or converted to UPF format
     Using radial grid of  907 points,  6 beta functions with: 
                l(1) =   0
                l(2) =   0
                l(3) =   1
                l(4) =   1
                l(5) =   2
                l(6) =   2
     Q(r) pseudized with  8 coefficients,  rinner =    1.300   1.300   1.300
                                                       1.300   1.300

     PseudoPot. # 3 for H  read from file:
     ../pseudo/H_ONCV_PBE-1.0.oncvpsp.upf
     MD5 check sum: 1790becc920ee074925cf490c71280fe
     Pseudo is Norm-conserving, Zval =  1.0
     Generated using ONCVPSP code by D. R. Hamann
     Using radial grid of 1166 points,  2 beta functions with: 
                l(1) =   0
                l(2) =   0

     atomic species   valence    mass     pseudopotential
        Mo            14.00    95.94000     Mo( 1.00)
        S              6.00    32.06500     S ( 1.00)
        H              1.00     1.00794     H ( 1.00)

     No symmetry found



   Cartesian axes

     site n.     atom                  positions (alat units)
         1           Mo  tau(   1) = (   0.6952221   0.1890506   0.2985846  )
         2           S   tau(   2) = (   0.8646417   0.0856217   0.4689279  )
         3           S   tau(   3) = (   0.8663890   0.0857843   0.1351291  )
         4           Mo  tau(   4) = (   0.8560186   0.4753274   0.2873942  )
         5           S   tau(   5) = (   0.6873294   0.3936244   0.4596353  )
         6           S   tau(   6) = (   0.6929804   0.3713468   0.1185692  )
         7           Mo  tau(   7) = (   0.6862796   0.7633098   0.2825370  )
         8           S   tau(   8) = (   0.8545980   0.6708292   0.4486168  )
         9           S   tau(   9) = (   0.8545123   0.6666874   0.1146125  )
        10           Mo  tau(  10) = (   0.8629403   1.0471007   0.3006803  )
        11           S   tau(  11) = (   0.6868280   0.9456650   0.4634891  )
        12           S   tau(  12) = (   0.6998113   0.9568511   0.1205389  )
        13           Mo  tau(  13) = (   0.3618216   0.1847309   0.2935964  )
        14           S   tau(  14) = (   0.5260962   0.0863870   0.4600448  )
        15           S   tau(  15) = (   0.5348379   0.0894875   0.1297123  )
        16           Mo  tau(  16) = (   0.5265817   0.4772436   0.2784130  )
        17           S   tau(  17) = (   0.3624753   0.3882513   0.4525556  )
        18           S   tau(  18) = (   0.3635411   0.3752055   0.1119148  )
        19           Mo  tau(  19) = (   0.3652268   0.7630864   0.2781795  )
        20           S   tau(  20) = (   0.5269494   0.6690381   0.1096838  )
        21           Mo  tau(  21) = (   0.5300192   1.0470394   0.2900995  )
        22           S   tau(  22) = (   0.3670346   0.9457522   0.4574073  )
        23           S   tau(  23) = (   0.3604225   0.9585725   0.1159032  )
        24           Mo  tau(  24) = (   0.0313099   0.1847895   0.3013130  )
        25           S   tau(  25) = (   0.1956761   0.0838230   0.4650863  )
        26           S   tau(  26) = (   0.1967693   0.0903508   0.1278874  )
        27           Mo  tau(  27) = (   0.1967578   0.4753919   0.2813011  )
        28           S   tau(  28) = (   0.0287851   0.3864324   0.4586755  )
        29           S   tau(  29) = (   0.0244514   0.3729871   0.1239344  )
        30           Mo  tau(  30) = (   0.0286728   0.7631204   0.2856894  )
        31           S   tau(  31) = (   0.2011512   0.6675435   0.4465001  )
        32           S   tau(  32) = (   0.1969214   0.6672839   0.1104564  )
        33           Mo  tau(  33) = (   0.1950294   1.0511147   0.2932237  )
        34           S   tau(  34) = (   0.0312912   0.9612169   0.4667423  )
        35           S   tau(  35) = (   0.0292670   0.9563028   0.1216485  )
        36           H   tau(  36) = (   0.2222222   0.7704471   0.5792558  )

     number of k points=     1  Gaussian smearing, width (Ry)=  0.0100
                       cart. coord. in units 2pi/alat
        k(    1) = (   0.0000000   0.0000000   0.0000000), wk =   2.0000000

     Dense  grid:  1177734 G-vectors     FFT dimensions: ( 120, 135, 320)

     Smooth grid:   842757 G-vectors     FFT dimensions: ( 108, 120, 270)

     Estimated max dynamical RAM per process >     146.59 MB

     Estimated total dynamical RAM >       6.87 GB

     Initial potential from superposition of free atoms

     starting charge     306.9873, renormalised to     307.0000

     negative rho (up, down):  1.401E-04 0.000E+00


---------------------------------------------------------------------------------
Carrying out rVV10 run using the following parameters:
Nqs =      20    Nr_points =    1024   r_max =   100.000
b_value =  6.30000    beta =  0.00901
     q_mesh =  0.00010000  0.00030000  0.00058939  0.00100810
               0.00161396  0.00249058  0.00375900  0.00559430
               0.00824984  0.01209221  0.01765183  0.02569619
               0.03733578  0.05417739  0.07854596  0.11380545
               0.16482331  0.23864234  0.34545298  0.50000000

Gradients computed in Reciprocal space

---------------------------------------------------------------------------------


     Starting wfcs are  213 randomized atomic wfcs

     total cpu time spent up to now is        2.8 secs

     Self-consistent Calculation

     iteration #  1     ecut=    80.00 Ry     beta= 0.70
     Davidson diagonalization with overlap
     ethr =  1.00E-02,  avg # of iterations =  2.0

     Threshold (ethr) on eigenvalues was too large:
     Diagonalizing with lowered threshold

     Davidson diagonalization with overlap
     ethr =  3.75E-04,  avg # of iterations =  4.0

     negative rho (up, down):  2.275E-08 0.000E+00

     total cpu time spent up to now is       16.9 secs

     total energy              =   -2205.61302880 Ry
     estimated scf accuracy    <       1.43270594 Ry

     iteration #  2     ecut=    80.00 Ry     beta= 0.70
     Davidson diagonalization with overlap
     ethr =  4.67E-04,  avg # of iterations =  2.0

     total cpu time spent up to now is       19.4 secs

     total energy              =   -2205.46591288 Ry
     estimated scf accuracy    <       0.57786034 Ry

     iteration #  3     ecut=    80.00 Ry     beta= 0.70
     Davidson diagonalization with overlap
     ethr =  1.88E-04,  avg # of iterations =  5.0

     total cpu time spent up to now is       22.0 secs

     total energy              =   -2205.54061442 Ry
     estimated scf accuracy    <       0.07972775 Ry

     iteration #  4     ecut=    80.00 Ry     beta= 0.70
     Davidson diagonalization with overlap
     c_bands:  2 eigenvalues not converged
     ethr =  2.60E-05,  avg # of iterations = 20.0

     total cpu time spent up to now is       25.4 secs

     total energy              =   -2205.54726885 Ry
     estimated scf accuracy    <       0.02777754 Ry

     iteration #  5     ecut=    80.00 Ry     beta= 0.70
     Davidson diagonalization with overlap
     ethr =  9.05E-06,  avg # of iterations =  9.0

     total cpu time spent up to now is       27.9 secs

     total energy              =   -2205.54683873 Ry
     estimated scf accuracy    <       0.01757209 Ry

     iteration #  6     ecut=    80.00 Ry     beta= 0.70
     Davidson diagonalization with overlap
     ethr =  5.72E-06,  avg # of iterations =  2.0

     total cpu time spent up to now is       30.1 secs

     total energy              =   -2205.54573776 Ry
     estimated scf accuracy    <       0.01197242 Ry

     iteration #  7     ecut=    80.00 Ry     beta= 0.70
     Davidson diagonalization with overlap
     ethr =  3.90E-06,  avg # of iterations =  1.0

     negative rho (up, down):  1.318E-04 0.000E+00

     total cpu time spent up to now is       35.3 secs

     total energy              =   -2205.54397594 Ry
     estimated scf accuracy    <       0.00697392 Ry

     iteration #  8     ecut=    80.00 Ry     beta= 0.70
     Davidson diagonalization with overlap
     ethr =  2.27E-06,  avg # of iterations =  3.0

     negative rho (up, down):  1.158E-02 0.000E+00

     total cpu time spent up to now is       39.5 secs

     total energy              =   -2205.54378631 Ry
     estimated scf accuracy    <       0.00331512 Ry

     iteration #  9     ecut=    80.00 Ry     beta= 0.70
     Davidson diagonalization with overlap
     ethr =  1.08E-06,  avg # of iterations =  2.0

     negative rho (up, down):  3.090E-02 0.000E+00

     total cpu time spent up to now is       44.2 secs

     total energy              =   -2205.54368085 Ry
     estimated scf accuracy    <       0.00204204 Ry

     iteration # 10     ecut=    80.00 Ry     beta= 0.70
     Davidson diagonalization with overlap
     ethr =  6.65E-07,  avg # of iterations =  2.0

     negative rho (up, down):  3.005E-02 0.000E+00

     total cpu time spent up to now is       50.3 secs

     total energy              =   -2205.54382964 Ry
     estimated scf accuracy    <       0.00059903 Ry

     iteration # 11     ecut=    80.00 Ry     beta= 0.70
     Davidson diagonalization with overlap
     ethr =  1.95E-07,  avg # of iterations =  4.0

     negative rho (up, down):  9.550E-03 0.000E+00

     total cpu time spent up to now is       56.6 secs

     total energy              =   -2205.54382070 Ry
     estimated scf accuracy    <       0.00014941 Ry

     iteration # 12     ecut=    80.00 Ry     beta= 0.70
     Davidson diagonalization with overlap
     ethr =  4.87E-08,  avg # of iterations =  5.0

     negative rho (up, down):  2.031E-03 0.000E+00

     total cpu time spent up to now is       63.6 secs

     total energy              =   -2205.54387289 Ry
     estimated scf accuracy    <       0.00001373 Ry

     iteration # 13     ecut=    80.00 Ry     beta= 0.70
     Davidson diagonalization with overlap
     ethr =  4.47E-09,  avg # of iterations =  5.0

     negative rho (up, down):  6.051E-04 0.000E+00

     total cpu time spent up to now is       71.8 secs

     total energy              =   -2205.54388664 Ry
     estimated scf accuracy    <       0.00000245 Ry

     iteration # 14     ecut=    80.00 Ry     beta= 0.70
     Davidson diagonalization with overlap
     ethr =  7.97E-10,  avg # of iterations =  5.0

     negative rho (up, down):  1.367E-04 0.000E+00

     total cpu time spent up to now is       74.0 secs

     End of self-consistent calculation

          k = 0.0000 0.0000 0.0000 (105382 PWs)   bands (ev):

   -62.8664 -62.8558 -62.8553 -62.8290 -62.8201 -62.8022 -62.7979 -62.7882
   -62.7822 -62.7783 -62.7034 -62.6126 -37.2062 -37.1404 -37.1303 -37.1216
   -37.1057 -37.0776 -37.0728 -37.0584 -37.0477 -37.0463 -37.0388 -37.0310
   -37.0196 -37.0141 -36.9958 -36.9929 -36.9858 -36.9794 -36.9771 -36.9624
   -36.9549 -36.9426 -36.9352 -36.9046 -36.8986 -36.8820 -36.8761 -36.8691
   -36.8486 -36.8429 -36.8234 -36.8005 -36.7804 -36.7668 -36.6990 -36.6367
   -16.0325 -15.4559 -15.1646 -15.0232 -14.8751 -14.7938 -14.6823 -14.4840
   -14.4261 -14.3937 -14.3459 -14.3107 -14.2925 -14.2470 -14.1679 -14.1122
   -14.0945 -14.0699 -14.0084 -13.9025 -13.8169 -13.7976 -13.7744  -8.3054
    -7.6156  -7.4290  -7.3163  -7.2350  -7.1908  -7.1637  -7.1041  -7.0152
    -6.8240  -6.7986  -6.7430  -6.6796  -6.5491  -6.4916  -6.4131  -6.3840
    -6.3353  -6.2276  -6.1600  -5.9171  -5.9132  -5.8869  -5.8030  -5.7424
    -5.7382  -5.7025  -5.6647  -5.6373  -5.6081  -5.5360  -5.5026  -5.4781
    -5.4275  -5.4020  -5.1656  -5.1161  -5.0693  -4.9699  -4.9546  -4.9086
    -4.8785  -4.8088  -4.6591  -4.5031  -4.4779  -4.2810  -4.2635  -4.2140
    -4.1475  -4.0649  -3.9858  -3.9375  -3.7898  -3.7682  -3.7274  -3.6699
    -3.6652  -3.5356  -3.5234  -3.4895  -3.4435  -3.4345  -3.4194  -3.3616
    -3.3348  -3.2276  -3.1258  -2.8695  -2.8568  -2.7816  -2.7611  -2.7150
    -2.6930  -2.6431  -2.6283  -2.6007  -2.5510  -2.2789  -1.9926  -1.9626
    -1.9242  -1.1093  -0.7613  -0.5096  -0.1572  -0.1168  -0.0705  -0.0322
     0.0382   0.1561   0.2464   0.2646   0.3015   0.3487   0.3785   0.4500
     0.4786   0.5426   0.5677   0.5987   0.6403   0.6837   0.7277   0.7668
     0.8111   0.8296   0.8635   0.9252   0.9687   1.0137   1.0618   1.3177
     1.4074

     the Fermi energy is    -1.1094 ev

!    total energy              =   -2205.54388704 Ry
     estimated scf accuracy    <       0.00000071 Ry
     smearing contrib. (-TS)   =      -0.00565003 Ry
     internal energy E=F+TS    =   -2205.53823702 Ry

     The total energy is F=E-TS. E is the sum of the following terms:
     one-electron contribution =  -18043.12467259 Ry
     hartree contribution      =    9008.54687567 Ry
     xc contribution           =    -385.24869275 Ry
     ewald contribution        =    7214.28825266 Ry

     convergence has been achieved in  14 iterations

     negative rho (up, down):  1.367E-04 0.000E+00

     Forces acting on atoms (cartesian axes, Ry/au):

     atom    1 type  1   force =     0.01271738   -0.02304781    0.00538871
     atom    2 type  2   force =    -0.01517095    0.01760361    0.00079993
     atom    3 type  2   force =    -0.01124177    0.00879093   -0.00299152
     atom    4 type  1   force =     0.00734020    0.00560319    0.00055927
     atom    5 type  2   force =    -0.00025647   -0.00600881   -0.00571833
     atom    6 type  2   force =     0.00038419    0.01052243    0.00025352
     atom    7 type  1   force =     0.00615554   -0.02179535   -0.00422496
     atom    8 type  2   force =    -0.00244597   -0.00446354    0.01678237
     atom    9 type  2   force =     0.01080116    0.00576000    0.01118196
     atom   10 type  1   force =    -0.01212930    0.01053500   -0.02682396
     atom   11 type  2   force =     0.00532852   -0.00091513   -0.00745723
     atom   12 type  2   force =    -0.00128745    0.00219361    0.00682650
     atom   13 type  1   force =     0.00491936    0.00390586   -0.00735330
     atom   14 type  2   force =     0.00877858    0.00046079    0.01163024
     atom   15 type  2   force =    -0.01263458    0.00278729   -0.00780479
     atom   16 type  1   force =     0.00176400    0.00811238    0.00171113
     atom   17 type  2   force =     0.00981883   -0.00535880    0.00358437
     atom   18 type  2   force =    -0.00917416   -0.00558979    0.01514937
     atom   19 type  1   force =     0.00124182    0.00023263   -0.01153619
     atom   20 type  2   force =     0.00261962   -0.00451764   -0.00019159
     atom   21 type  1   force =    -0.00202766    0.00544261   -0.00390058
     atom   22 type  2   force =    -0.00800420   -0.01066967   -0.00079033
     atom   23 type  2   force =     0.00003338    0.00260501    0.00853822
     atom   24 type  1   force =    -0.01208841   -0.00410303   -0.02169331
     atom   25 type  2   force =     0.01680849    0.01810986    0.00728069
     atom   26 type  2   force =    -0.01028896    0.00063283   -0.00352279
     atom   27 type  1   force =     0.00463418   -0.02655323   -0.02018836
     atom   28 type  2   force =    -0.00274653   -0.00418517   -0.00429330
     atom   29 type  2   force =     0.00629873   -0.00042846   -0.00175100
     atom   30 type  1   force =    -0.00061386    0.01267907   -0.00028759
     atom   31 type  2   force =     0.01398422    0.07894221    0.07547458
     atom   32 type  2   force =    -0.00877358    0.00422976    0.00835412
     atom   33 type  1   force =     0.01188368   -0.00599668   -0.00927357
     atom   34 type  2   force =     0.00467337   -0.04479287   -0.01121426
     atom   35 type  2   force =    -0.00708683    0.00620764    0.01391868
     atom   36 type  3   force =    -0.01421460   -0.03693074   -0.03641673
     The non-local contrib.  to forces
     atom    1 type  1   force =    -0.00203053    0.03045546   -0.00875537
     atom    2 type  2   force =    -0.01137992    0.00323500   -0.26827781
     atom    3 type  2   force =    -0.01379197   -0.00255081    0.27004499
     atom    4 type  1   force =    -0.00228723    0.00272595    0.00695283
     atom    5 type  2   force =     0.00698311   -0.03232601   -0.25066247
     atom    6 type  2   force =    -0.00189434    0.01226554    0.26190671
     atom    7 type  1   force =    -0.02787149    0.00446477   -0.02145005
     atom    8 type  2   force =     0.00600779   -0.00248950   -0.25304174
     atom    9 type  2   force =     0.00413996   -0.00944540    0.27465283
     atom   10 type  1   force =     0.00329008    0.00357904   -0.00217237
     atom   11 type  2   force =     0.01626895    0.00190423   -0.25773023
     atom   12 type  2   force =    -0.01366668   -0.01495403    0.26285076
     atom   13 type  1   force =    -0.00026227    0.01886438   -0.01006676
     atom   14 type  2   force =     0.01197841   -0.01061573   -0.26167040
     atom   15 type  2   force =    -0.01354573   -0.00583247    0.26051690
     atom   16 type  1   force =    -0.00501028    0.03357122   -0.02699264
     atom   17 type  2   force =     0.00903036   -0.03657867   -0.24401312
     atom   18 type  2   force =    -0.01064589   -0.00124488    0.27483470
     atom   19 type  1   force =     0.01828173   -0.00823003   -0.00474368
     atom   20 type  2   force =     0.00280610   -0.02185450    0.26439907
     atom   21 type  1   force =    -0.00023892    0.02827083    0.00512240
     atom   22 type  2   force =    -0.01786758    0.00255062   -0.22556275
     atom   23 type  2   force =     0.00442454   -0.01681519    0.26810484
     atom   24 type  1   force =     0.00671971    0.01392629   -0.01170926
     atom   25 type  2   force =     0.00951198    0.00529299   -0.25944252
     atom   26 type  2   force =    -0.00302846   -0.01267782    0.26441623
     atom   27 type  1   force =    -0.00187357    0.01627740   -0.00944071
     atom   28 type  2   force =    -0.00818941   -0.02935139   -0.27051672
     atom   29 type  2   force =     0.01288763    0.00285651    0.26534135
     atom   30 type  1   force =     0.00118600    0.01553751    0.00877505
     atom   31 type  2   force =     0.01487496    0.21747422    0.09967991
     atom   32 type  2   force =    -0.00385842   -0.00592586    0.28015875
     atom   33 type  1   force =    -0.00588546    0.00912617    0.00674434
     atom   34 type  2   force =     0.00336092   -0.04097679   -0.26213311
     atom   35 type  2   force =    -0.00190991   -0.01395843    0.27148002
     atom   36 type  3   force =    -0.00427346   -0.01828036   -0.02437204
     The ionic contribution  to forces
     atom    1 type  1   force =     0.39532061    0.22729297    5.71146678
     atom    2 type  2   force =    -0.69113089    0.44169146   39.28055720
     atom    3 type  2   force =    -0.17350754    0.02929911  -36.07863177
     atom    4 type  1   force =     0.01110863    0.46315794    0.61107906
     atom    5 type  2   force =    -0.95572269    1.44441326   38.74405344
     atom    6 type  2   force =     0.34803362   -0.51850237  -38.01997830
     atom    7 type  1   force =    -2.57147297   -2.77781938    2.46583145
     atom    8 type  2   force =    -1.12020053   -0.02559749   37.33403887
     atom    9 type  2   force =     0.31928672   -0.04934093  -38.03140020
     atom   10 type  1   force =    -1.19618314   -0.18411496    5.59819916
     atom   11 type  2   force =    -0.53445982   -1.54639819   39.11850307
     atom   12 type  2   force =     0.44620531    0.71355259  -37.86608070
     atom   13 type  1   force =     0.51776969    0.99009315    2.83015036
     atom   14 type  2   force =     0.09389056    0.03593179   38.51436204
     atom   15 type  2   force =     0.16898708   -0.04998684  -36.79974328
     atom   16 type  1   force =     0.08292664    3.80981912    0.39739008
     atom   17 type  2   force =     0.86528923    1.36057325   37.89630751
     atom   18 type  2   force =    -0.14937870   -0.67531460  -38.57876483
     atom   19 type  1   force =     3.00913937   -2.45580756    0.06706617
     atom   20 type  2   force =     0.25830049   -0.21211651  -38.51616364
     atom   21 type  1   force =     0.15840900    0.20099804    1.07346155
     atom   22 type  2   force =     0.75175390   -1.34705805   38.19220202
     atom   23 type  2   force =    -0.06300291    0.70441764  -38.34876487
     atom   24 type  1   force =    -0.59637668    1.14249825    5.82333089
     atom   25 type  2   force =     0.64970325    0.36688041   39.25146834
     atom   26 type  2   force =    -0.29084949    0.08490888  -37.34022827
     atom   27 type  1   force =     0.00063618    0.12600624   -2.48557389
     atom   28 type  2   force =    -0.00994529    0.88767806   38.17963296
     atom   29 type  2   force =    -0.28028273   -0.45623049  -37.27599364
     atom   30 type  1   force =    -0.66435506   -0.91004566   -0.50484276
     atom   31 type  2   force =     1.06640959   -0.84012260   36.32972408
     atom   32 type  2   force =    -0.48680246   -0.03237160  -38.72546568
     atom   33 type  1   force =     0.76317088   -0.53808594    1.80158308
     atom   34 type  2   force =    -0.01752898   -1.16991407   39.21074324
     atom   35 type  2   force =    -0.32966292    0.51374503  -37.86602924
     atom   36 type  3   force =     0.22452209    0.24587002    8.00650972
     The local contribution  to forces
     atom    1 type  1   force =    -0.38070660   -0.28096123   -5.69630371
     atom    2 type  2   force =     0.68700212   -0.42719018  -39.03196509
     atom    3 type  2   force =     0.17539895   -0.01801734   35.82707002
     atom    4 type  1   force =    -0.00141034   -0.46016484   -0.61662513
     atom    5 type  2   force =     0.94927934   -1.42002671  -38.51923590
     atom    6 type  2   force =    -0.34600324    0.51793110   37.77967196
     atom    7 type  1   force =     2.60585918    2.75189537   -2.44792615
     atom    8 type  2   force =     1.11206692    0.02322512  -37.08454427
     atom    9 type  2   force =    -0.31267350    0.06405469   37.78944621
     atom   10 type  1   force =     1.18073140    0.19095234   -5.62182838
     atom   11 type  2   force =     0.52428845    1.54401642  -38.88876051
     atom   12 type  2   force =    -0.43504729   -0.69782105   37.63154321
     atom   13 type  1   force =    -0.51239241   -1.00522209   -2.82646167
     atom   14 type  2   force =    -0.09644271   -0.02498539  -38.26153381
     atom   15 type  2   force =    -0.16879944    0.05821082   36.55261146
     atom   16 type  1   force =    -0.07605568   -3.83565766   -0.36800857
     atom   17 type  2   force =    -0.86426160   -1.33128953  -37.66854849
     atom   18 type  2   force =     0.15040656    0.67155919   38.34062275
     atom   19 type  1   force =    -3.02636311    2.46474321   -0.07326823
     atom   20 type  2   force =    -0.25839643    0.22874409   38.27312299
     atom   21 type  1   force =    -0.16010555   -0.22381855   -1.08147034
     atom   22 type  2   force =    -0.74270633    1.33419157  -37.98615266
     atom   23 type  2   force =     0.05907925   -0.68630555   38.11062057
     atom   24 type  1   force =     0.57744504   -1.16060591   -5.83225840
     atom   25 type  2   force =    -0.64230381   -0.35372604  -39.00521049
     atom   26 type  2   force =     0.28376752   -0.07232158   37.09376234
     atom   27 type  1   force =     0.00574079   -0.16895824    2.47551705
     atom   28 type  2   force =     0.01491486   -0.86445103  -37.93407564
     atom   29 type  2   force =     0.27453796    0.45368968   37.03015719
     atom   30 type  1   force =     0.66237581    0.90733370    0.49657466
     atom   31 type  2   force =    -1.06630924    0.71433278  -36.35423808
     atom   32 type  2   force =     0.48186531    0.04209652   38.47546975
     atom   33 type  1   force =    -0.74544718    0.52283400   -1.81662215
     atom   34 type  2   force =     0.01868555    1.16470188  -38.98031847
     atom   35 type  2   force =     0.32455343   -0.49481202   37.63017106
     atom   36 type  3   force =    -0.23447335   -0.26449022   -8.01851912
     The core correction contribution to forces
     atom    1 type  1   force =     0.00000000    0.00000000    0.00000000
     atom    2 type  2   force =     0.00029839   -0.00017464    0.02063548
     atom    3 type  2   force =     0.00061058    0.00002751   -0.02087268
     atom    4 type  1   force =     0.00000000    0.00000000    0.00000000
     atom    5 type  2   force =    -0.00067563    0.00178480    0.02022811
     atom    6 type  2   force =     0.00027198   -0.00117056   -0.02082315
     atom    7 type  1   force =     0.00000000    0.00000000    0.00000000
     atom    8 type  2   force =    -0.00029528    0.00043705    0.02028889
     atom    9 type  2   force =     0.00002245    0.00054163   -0.02090776
     atom   10 type  1   force =     0.00000000    0.00000000    0.00000000
     atom   11 type  2   force =    -0.00077508   -0.00035145    0.02052941
     atom   12 type  2   force =     0.00118981    0.00130975   -0.02083292
     atom   13 type  1   force =     0.00000000    0.00000000    0.00000000
     atom   14 type  2   force =    -0.00060921    0.00006474    0.02058702
     atom   15 type  2   force =     0.00073374    0.00036112   -0.02054331
     atom   16 type  1   force =     0.00000000    0.00000000    0.00000000
     atom   17 type  2   force =    -0.00028337    0.00178856    0.01990412
     atom   18 type  2   force =     0.00041115   -0.00056537   -0.02105654
     atom   19 type  1   force =     0.00000000    0.00000000    0.00000000
     atom   20 type  2   force =    -0.00003168    0.00081075   -0.02114449
     atom   21 type  1   force =     0.00000000    0.00000000    0.00000000
     atom   22 type  2   force =     0.00084839   -0.00020064    0.01878395
     atom   23 type  2   force =    -0.00044621    0.00127961   -0.02086937
     atom   24 type  1   force =     0.00000000    0.00000000    0.00000000
     atom   25 type  2   force =    -0.00010261   -0.00040588    0.02062440
     atom   26 type  2   force =    -0.00013367    0.00067001   -0.02090744
     atom   27 type  1   force =     0.00000000    0.00000000    0.00000000
     atom   28 type  2   force =     0.00041235    0.00190000    0.02071073
     atom   29 type  2   force =    -0.00083986   -0.00063256   -0.02067112
     atom   30 type  1   force =     0.00000000    0.00000000    0.00000000
     atom   31 type  2   force =    -0.00112849   -0.01268668    0.00033176
     atom   32 type  2   force =    -0.00000382    0.00044220   -0.02134199
     atom   33 type  1   force =     0.00000000    0.00000000    0.00000000
     atom   34 type  2   force =     0.00012694    0.00146702    0.02054752
     atom   35 type  2   force =    -0.00007203    0.00114953   -0.02111593
     atom   36 type  3   force =     0.00000000    0.00000000    0.00000000
     The Hubbard contrib.    to forces
     atom    1 type  1   force =     0.00000000    0.00000000    0.00000000
     atom    2 type  2   force =     0.00000000    0.00000000    0.00000000
     atom    3 type  2   force =     0.00000000    0.00000000    0.00000000
     atom    4 type  1   force =     0.00000000    0.00000000    0.00000000
     atom    5 type  2   force =     0.00000000    0.00000000    0.00000000
     atom    6 type  2   force =     0.00000000    0.00000000    0.00000000
     atom    7 type  1   force =     0.00000000    0.00000000    0.00000000
     atom    8 type  2   force =     0.00000000    0.00000000    0.00000000
     atom    9 type  2   force =     0.00000000    0.00000000    0.00000000
     atom   10 type  1   force =     0.00000000    0.00000000    0.00000000
     atom   11 type  2   force =     0.00000000    0.00000000    0.00000000
     atom   12 type  2   force =     0.00000000    0.00000000    0.00000000
     atom   13 type  1   force =     0.00000000    0.00000000    0.00000000
     atom   14 type  2   force =     0.00000000    0.00000000    0.00000000
     atom   15 type  2   force =     0.00000000    0.00000000    0.00000000
     atom   16 type  1   force =     0.00000000    0.00000000    0.00000000
     atom   17 type  2   force =     0.00000000    0.00000000    0.00000000
     atom   18 type  2   force =     0.00000000    0.00000000    0.00000000
     atom   19 type  1   force =     0.00000000    0.00000000    0.00000000
     atom   20 type  2   force =     0.00000000    0.00000000    0.00000000
     atom   21 type  1   force =     0.00000000    0.00000000    0.00000000
     atom   22 type  2   force =     0.00000000    0.00000000    0.00000000
     atom   23 type  2   force =     0.00000000    0.00000000    0.00000000
     atom   24 type  1   force =     0.00000000    0.00000000    0.00000000
     atom   25 type  2   force =     0.00000000    0.00000000    0.00000000
     atom   26 type  2   force =     0.00000000    0.00000000    0.00000000
     atom   27 type  1   force =     0.00000000    0.00000000    0.00000000
     atom   28 type  2   force =     0.00000000    0.00000000    0.00000000
     atom   29 type  2   force =     0.00000000    0.00000000    0.00000000
     atom   30 type  1   force =     0.00000000    0.00000000    0.00000000
     atom   31 type  2   force =     0.00000000    0.00000000    0.00000000
     atom   32 type  2   force =     0.00000000    0.00000000    0.00000000
     atom   33 type  1   force =     0.00000000    0.00000000    0.00000000
     atom   34 type  2   force =     0.00000000    0.00000000    0.00000000
     atom   35 type  2   force =     0.00000000    0.00000000    0.00000000
     atom   36 type  3   force =     0.00000000    0.00000000    0.00000000
     The SCF correction term to forces
     atom    1 type  1   force =     0.00013373    0.00016088   -0.00100061
     atom    2 type  2   force =     0.00003918    0.00003787   -0.00013147
     atom    3 type  2   force =     0.00004803    0.00002836   -0.00058368
     atom    4 type  1   force =    -0.00007103   -0.00011996   -0.00082910
     atom    5 type  2   force =    -0.00012077    0.00014174   -0.00008312
     atom    6 type  2   force =    -0.00002399   -0.00000538   -0.00050531
     atom    7 type  1   force =    -0.00035935   -0.00034021   -0.00066182
     atom    8 type  2   force =    -0.00002504   -0.00004283    0.00005900
     atom    9 type  2   force =     0.00002537   -0.00005410   -0.00059073
     atom   10 type  1   force =     0.00003219    0.00011449   -0.00100399
     atom   11 type  2   force =     0.00000586   -0.00009025    0.00001942
     atom   12 type  2   force =     0.00003123    0.00010225   -0.00063546
     atom   13 type  1   force =    -0.00019582    0.00016631   -0.00095685
     atom   14 type  2   force =    -0.00003864    0.00006128   -0.00009623
     atom   15 type  2   force =    -0.00001040    0.00003056   -0.00062818
     atom   16 type  1   force =    -0.00009685    0.00037560   -0.00065935
     atom   17 type  2   force =     0.00004405    0.00014349   -0.00004726
     atom   18 type  2   force =     0.00003255   -0.00002823   -0.00046833
     atom   19 type  1   force =     0.00018367   -0.00047709   -0.00057207
     atom   20 type  2   force =    -0.00005903   -0.00010556   -0.00038713
     atom   21 type  1   force =    -0.00009236   -0.00001181   -0.00099579
     atom   22 type  2   force =    -0.00003274   -0.00015726   -0.00004250
     atom   23 type  2   force =    -0.00002146    0.00002439   -0.00053455
     atom   24 type  1   force =     0.00012335    0.00007423   -0.00103816
     atom   25 type  2   force =    -0.00000049    0.00006428   -0.00014065
     atom   26 type  2   force =    -0.00004503    0.00004924   -0.00054727
     atom   27 type  1   force =     0.00013061    0.00011727   -0.00067241
     atom   28 type  2   force =     0.00006079    0.00003509   -0.00002624
     atom   29 type  2   force =    -0.00000443   -0.00011571   -0.00056639
     atom   30 type  1   force =     0.00017922   -0.00015057   -0.00077615
     atom   31 type  2   force =     0.00013723   -0.00005961   -0.00000471
     atom   32 type  2   force =     0.00002564   -0.00001560   -0.00044832
     atom   33 type  1   force =     0.00004527    0.00012498   -0.00096046
     atom   34 type  2   force =     0.00002878   -0.00007501   -0.00003506
     atom   35 type  2   force =     0.00000443    0.00007942   -0.00056883
     atom   36 type  3   force =     0.00000995   -0.00003429   -0.00001689

     Total force =     0.161881     Total SCF correction =     0.003688

     BFGS Geometry Optimization
     Energy error            =      0.0E+00 Ry
     Gradient error          =      7.9E-02 Ry/Bohr

     number of scf cycles    =   1
     number of bfgs steps    =   0

     energy             new  =   -2205.5438870417 Ry

     new trust radius        =       0.1101083257 bohr
     new conv_thr            =       0.0000010000 Ry


ATOMIC_POSITIONS (angstrom)
Mo            6.5812781572        1.7756098544        2.8264946126
S             8.1686812177        0.8190194531        4.4349616569
S             8.1872841994        0.8158937044        1.2763003841
Mo            8.0990468294        4.4980220268        2.7181143477
S             6.4997735402        3.7192317608        4.3436346388
S             6.5535531022        3.5173057836        1.1214143873
Mo            6.4932390693        7.2069036819        2.6696487344
S             8.0804333761        6.3415089910        4.2513424115
S             8.0866333775        6.3077503753        1.0897802390
Mo            8.1542005018        9.9077552954        2.8292671301
S             6.4979873297        8.9424425486        4.3791593395
S             6.6172659130        9.0498720188        1.1435197294
Mo            3.4242628744        1.7490227430        2.7725799612
S             4.9798109153        0.8171850491        4.3566875496
S             5.0511478243        0.8477370804        1.2225283432
Mo            4.9806901492        4.5174708914        2.6337900422
S             3.4330375644        3.6687639310        4.2816063484
S             3.4330658242        3.5452707085        1.0663683832
Mo            3.4545188842        7.2164476427        2.6245721714
S             4.9846204385        6.3245416563        1.0371523435
Mo            5.0111909278        9.9044801569        2.7413368625
S             3.4667224778        8.9381051247        4.3251730880
S             3.4084468321        9.0663684971        1.1005865330
Mo            0.2896935737        1.7453382987        2.8379651063
S             1.8593568821        0.8022773341        4.4020622150
S             1.8553553501        0.8547607949        1.2075366738
Mo            1.8631436135        4.4816153992        2.6495141623
S             0.2707604490        3.6521841314        4.3353121830
S             0.2345643515        3.5270224929        1.1710912927
Mo            0.2708273079        7.2233555699        2.7015442436
S             1.9096383785        6.3545732536        4.2623835498
S             1.8575954334        6.3125821049        1.0489800936
Mo            1.8506352363        9.9369658448        2.7680388882
S             0.2983859412        9.0662944614        4.4079351364
S             0.2730212122        9.0468106575        1.1577662300
H             2.0939801789        7.2663904255        5.4586125249



     Writing config-only to output data dir ./MoS2-V-O.save/
     NEW-OLD atomic charge density approx. for the potential

     negative rho (up, down):  1.477E-04 0.000E+00

     total cpu time spent up to now is       77.3 secs

     Self-consistent Calculation

     iteration #  1     ecut=    80.00 Ry     beta= 0.70
     Davidson diagonalization with overlap
     ethr =  1.00E-06,  avg # of iterations = 11.0

     negative rho (up, down):  7.189E-05 0.000E+00

     total cpu time spent up to now is       92.7 secs

     total energy              =   -2205.56533663 Ry
     estimated scf accuracy    <       0.00297924 Ry

     iteration #  2     ecut=    80.00 Ry     beta= 0.70
     Davidson diagonalization with overlap
     ethr =  9.70E-07,  avg # of iterations =  2.0

     negative rho (up, down):  6.121E-05 0.000E+00

     total cpu time spent up to now is      105.6 secs

     total energy              =   -2205.56539893 Ry
     estimated scf accuracy    <       0.00070567 Ry

     iteration #  3     ecut=    80.00 Ry     beta= 0.70
     Davidson diagonalization with overlap
     ethr =  2.30E-07,  avg # of iterations =  2.0

     negative rho (up, down):  5.824E-05 0.000E+00

     total cpu time spent up to now is      119.3 secs

     total energy              =   -2205.56541599 Ry
     estimated scf accuracy    <       0.00021917 Ry

     iteration #  4     ecut=    80.00 Ry     beta= 0.70
     Davidson diagonalization with overlap
     ethr =  7.14E-08,  avg # of iterations =  5.0

     negative rho (up, down):  5.406E-05 0.000E+00

     total cpu time spent up to now is      133.3 secs

     total energy              =   -2205.56544247 Ry
     estimated scf accuracy    <       0.00002971 Ry

     iteration #  5     ecut=    80.00 Ry     beta= 0.70
     Davidson diagonalization with overlap
     ethr =  9.68E-09,  avg # of iterations = 18.0

     negative rho (up, down):  4.803E-05 0.000E+00

     total cpu time spent up to now is      145.5 secs

     total energy              =   -2205.56544998 Ry
     estimated scf accuracy    <       0.00000896 Ry

     iteration #  6     ecut=    80.00 Ry     beta= 0.70
     Davidson diagonalization with overlap
     ethr =  2.92E-09,  avg # of iterations =  2.0

     negative rho (up, down):  4.009E-05 0.000E+00

     total cpu time spent up to now is      159.7 secs

     total energy              =   -2205.56545180 Ry
     estimated scf accuracy    <       0.00000262 Ry

     iteration #  7     ecut=    80.00 Ry     beta= 0.70
     Davidson diagonalization with overlap
     ethr =  8.53E-10,  avg # of iterations =  5.0

     negative rho (up, down):  1.370E-04 0.000E+00

     total cpu time spent up to now is      161.9 secs

     End of self-consistent calculation

          k = 0.0000 0.0000 0.0000 (105382 PWs)   bands (ev):

   -62.8544 -62.8439 -62.8431 -62.8151 -62.8068 -62.7946 -62.7877 -62.7761
   -62.7717 -62.7666 -62.6812 -62.5985 -37.1921 -37.1253 -37.1150 -37.1063
   -37.0910 -37.0667 -37.0561 -37.0428 -37.0345 -37.0312 -37.0278 -37.0165
   -37.0061 -36.9990 -36.9843 -36.9802 -36.9760 -36.9700 -36.9627 -36.9504
   -36.9485 -36.9331 -36.9240 -36.8923 -36.8854 -36.8730 -36.8643 -36.8476
   -36.8341 -36.8336 -36.8103 -36.7866 -36.7683 -36.7552 -36.6814 -36.6213
   -16.0455 -15.5106 -15.1533 -15.0161 -14.8596 -14.7905 -14.6785 -14.4677
   -14.4035 -14.3891 -14.3467 -14.2964 -14.2855 -14.2370 -14.1599 -14.0980
   -14.0828 -14.0692 -14.0012 -13.8779 -13.8079 -13.7946 -13.7756  -8.4887
    -7.6020  -7.4208  -7.2843  -7.2099  -7.1902  -7.1571  -7.0955  -7.0243
    -6.8027  -6.7746  -6.7351  -6.6621  -6.5504  -6.4813  -6.4027  -6.3735
    -6.3530  -6.2166  -6.1602  -5.9094  -5.8791  -5.8663  -5.8037  -5.7362
    -5.7312  -5.6878  -5.6617  -5.6239  -5.5993  -5.5137  -5.4989  -5.4626
    -5.4028  -5.3653  -5.1451  -5.1000  -5.0500  -4.9706  -4.9366  -4.9108
    -4.8686  -4.8048  -4.6499  -4.5087  -4.4832  -4.2735  -4.2524  -4.2009
    -4.1549  -4.0593  -3.9859  -3.9486  -3.7868  -3.7517  -3.7150  -3.6643
    -3.6503  -3.5277  -3.5061  -3.4860  -3.4392  -3.4291  -3.4120  -3.3552
    -3.3245  -3.2247  -3.1203  -2.8588  -2.8291  -2.7517  -2.7463  -2.7122
    -2.6793  -2.6443  -2.6263  -2.5849  -2.5317  -2.2520  -1.9731  -1.9570
    -1.9290  -1.0999  -0.7300  -0.4890  -0.1402  -0.1110  -0.0628   0.0022
     0.0520   0.1637   0.2697   0.2889   0.3224   0.3627   0.4020   0.4633
     0.4713   0.5611   0.5855   0.6180   0.6497   0.6947   0.7532   0.7804
     0.8176   0.8451   0.8780   0.9341   0.9940   1.0218   1.0666   1.3435
     1.4070

     the Fermi energy is    -1.0999 ev

!    total energy              =   -2205.56545242 Ry
     estimated scf accuracy    <       0.00000094 Ry
     smearing contrib. (-TS)   =      -0.00564537 Ry
     internal energy E=F+TS    =   -2205.55980705 Ry

     The total energy is F=E-TS. E is the sum of the following terms:
     one-electron contribution =  -18041.74183217 Ry
     hartree contribution      =    9007.98924282 Ry
     xc contribution           =    -385.26942554 Ry
     ewald contribution        =    7213.46220785 Ry

     convergence has been achieved in   7 iterations

     negative rho (up, down):  1.370E-04 0.000E+00

     Forces acting on atoms (cartesian axes, Ry/au):

     atom    1 type  1   force =     0.00324803   -0.01162850    0.00009572
     atom    2 type  2   force =    -0.00968859    0.01109584   -0.00104993
     atom    3 type  2   force =    -0.01049564    0.00725189   -0.00922734
     atom    4 type  1   force =     0.00772083    0.00334076    0.00273124
     atom    5 type  2   force =     0.00120290   -0.00567468   -0.00591459
     atom    6 type  2   force =     0.00092007    0.00690023    0.00208922
     atom    7 type  1   force =     0.00322432   -0.01410033    0.00100342
     atom    8 type  2   force =    -0.00105747   -0.00419756    0.01267726
     atom    9 type  2   force =     0.01097868    0.00498149    0.00703641
     atom   10 type  1   force =    -0.00423921    0.00742768   -0.00932501
     atom   11 type  2   force =     0.00445305   -0.00125108   -0.00979029
     atom   12 type  2   force =    -0.00299316    0.00015408    0.00284539
     atom   13 type  1   force =     0.00490145    0.00162035   -0.00246124
     atom   14 type  2   force =     0.00645977   -0.00019410    0.00759217
     atom   15 type  2   force =    -0.00883783    0.00231236   -0.00668253
     atom   16 type  1   force =     0.00057469    0.00393621    0.00227646
     atom   17 type  2   force =     0.00696426   -0.00270548    0.00162171
     atom   18 type  2   force =    -0.00538716   -0.00560051    0.00932182
     atom   19 type  1   force =     0.00198324    0.00182601   -0.00230876
     atom   20 type  2   force =     0.00195324   -0.00407926   -0.00334556
     atom   21 type  1   force =    -0.00359717    0.00236546    0.00227992
     atom   22 type  2   force =    -0.00106875   -0.00360402   -0.00487891
     atom   23 type  2   force =     0.00094090    0.00198399    0.00276613
     atom   24 type  1   force =    -0.00774543   -0.00334764   -0.00896099
     atom   25 type  2   force =     0.01127283    0.01323476   -0.00005427
     atom   26 type  2   force =    -0.00709343   -0.00036400   -0.00464221
     atom   27 type  1   force =     0.00423915   -0.00802212   -0.00254552
     atom   28 type  2   force =    -0.00028564   -0.00378134   -0.00678405
     atom   29 type  2   force =     0.00346161   -0.00099697   -0.00578172
     atom   30 type  1   force =    -0.00031069    0.00552373    0.00868766
     atom   31 type  2   force =     0.01028449    0.04903636    0.05135150
     atom   32 type  2   force =    -0.00804662    0.00150868    0.00777021
     atom   33 type  1   force =     0.00559889   -0.00137767   -0.00004640
     atom   34 type  2   force =    -0.00041053   -0.02976309   -0.01545701
     atom   35 type  2   force =    -0.00519010    0.00649691    0.00722073
     atom   36 type  3   force =    -0.01393498   -0.03030842   -0.03011063
     The non-local contrib.  to forces
     atom    1 type  1   force =    -0.00042480    0.02768255   -0.00941049
     atom    2 type  2   force =    -0.00778627   -0.00153325   -0.26734894
     atom    3 type  2   force =    -0.01196112   -0.00510311    0.26462811
     atom    4 type  1   force =    -0.00167970    0.00467803    0.00597274
     atom    5 type  2   force =     0.00822214   -0.03290502   -0.25197374
     atom    6 type  2   force =    -0.00131480    0.00880170    0.26363278
     atom    7 type  1   force =    -0.02906714    0.00272056   -0.02329081
     atom    8 type  2   force =     0.00797636   -0.00221155   -0.25428902
     atom    9 type  2   force =     0.00374385   -0.01073320    0.27146974
     atom   10 type  1   force =     0.00140946    0.00469369   -0.00267505
     atom   11 type  2   force =     0.01431543    0.00038174   -0.26059346
     atom   12 type  2   force =    -0.01470848   -0.01678965    0.26155888
     atom   13 type  1   force =     0.00042743    0.02081080   -0.01083779
     atom   14 type  2   force =     0.00992921   -0.01110945   -0.26354443
     atom   15 type  2   force =    -0.01057577   -0.00668376    0.26062228
     atom   16 type  1   force =    -0.00676255    0.03513283   -0.02845817
     atom   17 type  2   force =     0.00914296   -0.03552348   -0.24451216
     atom   18 type  2   force =    -0.00794417   -0.00114582    0.27132874
     atom   19 type  1   force =     0.01923958   -0.00902023   -0.00682744
     atom   20 type  2   force =     0.00208152   -0.02073870    0.26203764
     atom   21 type  1   force =    -0.00010266    0.02869099    0.00380961
     atom   22 type  2   force =    -0.01027491    0.00834744   -0.23178390
     atom   23 type  2   force =     0.00556869   -0.01726637    0.26496714
     atom   24 type  1   force =     0.00477200    0.01469806   -0.01171831
     atom   25 type  2   force =     0.00542213    0.00122204   -0.26361050
     atom   26 type  2   force =    -0.00077642   -0.01317478    0.26381005
     atom   27 type  1   force =    -0.00113900    0.01031440   -0.01169333
     atom   28 type  2   force =    -0.00838535   -0.02934518   -0.27108059
     atom   29 type  2   force =     0.01149295    0.00115828    0.26392126
     atom   30 type  1   force =     0.00080674    0.01706057    0.00634615
     atom   31 type  2   force =     0.01378916    0.22592151    0.09958716
     atom   32 type  2   force =    -0.00297766   -0.00921647    0.28128815
     atom   33 type  1   force =    -0.00412472    0.00732336    0.00517275
     atom   34 type  2   force =    -0.00078253   -0.02974508   -0.26653979
     atom   35 type  2   force =    -0.00169359   -0.01352344    0.26842444
     atom   36 type  3   force =    -0.00544115   -0.02355719   -0.03161269
     The ionic contribution  to forces
     atom    1 type  1   force =     0.13989322    0.56774870    5.81300233
     atom    2 type  2   force =    -0.49980138    0.31625560   39.37558466
     atom    3 type  2   force =    -0.16700649    0.05388153  -36.20903897
     atom    4 type  1   force =     0.05326118    0.41290186    0.71344234
     atom    5 type  2   force =    -0.95457568    1.42896786   38.66613885
     atom    6 type  2   force =     0.32306650   -0.56039623  -37.93073316
     atom    7 type  1   force =    -2.64165925   -2.54687970    2.47727830
     atom    8 type  2   force =    -1.07737936   -0.02844685   37.44453180
     atom    9 type  2   force =     0.35074427   -0.07012934  -38.00261323
     atom   10 type  1   force =    -0.96690035   -0.27077428    5.26754353
     atom   11 type  2   force =    -0.51619536   -1.56455659   39.04289834
     atom   12 type  2   force =     0.37432799    0.60919481  -37.82496476
     atom   13 type  1   force =     0.50975794    0.89895653    2.80814129
     atom   14 type  2   force =     0.01218737    0.03829523   38.59273247
     atom   15 type  2   force =     0.19011036    0.00288730  -36.84611178
     atom   16 type  1   force =     0.04211180    3.69216221    0.53863045
     atom   17 type  2   force =     0.78220106    1.43702636   37.91494688
     atom   18 type  2   force =    -0.03253151   -0.63528248  -38.54118312
     atom   19 type  1   force =     2.92382401   -2.68816259   -0.21538926
     atom   20 type  2   force =     0.23058449   -0.20514113  -38.55393229
     atom   21 type  1   force =     0.13872182    0.08620107    1.14678406
     atom   22 type  2   force =     0.82968017   -1.28708952   38.19700679
     atom   23 type  2   force =    -0.03428488    0.67761999  -38.35361695
     atom   24 type  1   force =    -0.39032083    1.02197621    5.57071642
     atom   25 type  2   force =     0.52884726    0.32401988   39.22344102
     atom   26 type  2   force =    -0.25264757    0.05795123  -37.31161251
     atom   27 type  1   force =    -0.05651523    0.73586199   -2.48960044
     atom   28 type  2   force =     0.08592816    0.91377398   38.14248136
     atom   29 type  2   force =    -0.35427196   -0.38995472  -37.30754027
     atom   30 type  1   force =    -0.53969208   -1.29098711   -0.42859248
     atom   31 type  2   force =     1.03518565   -1.31757842   36.39405997
     atom   32 type  2   force =    -0.49478527   -0.06798827  -38.58633259
     atom   33 type  1   force =     0.59492338   -0.27108189    1.84701664
     atom   34 type  2   force =    -0.12065593   -0.91159101   39.11033614
     atom   35 type  2   force =    -0.29233130    0.50095957  -37.81285713
     atom   36 type  3   force =     0.24619780    0.32939825    8.12740531
     The local contribution  to forces
     atom    1 type  1   force =    -0.13621191   -0.60701867   -5.80447502
     atom    2 type  2   force =     0.49755484   -0.30347319  -39.13050604
     atom    3 type  2   force =     0.16794420   -0.04169452   35.95580747
     atom    4 type  1   force =    -0.04417250   -0.41447507   -0.71769989
     atom    5 type  2   force =     0.94826824   -1.40358398  -38.44083955
     atom    6 type  2   force =    -0.32108204    0.55953304   37.68982924
     atom    7 type  1   force =     2.67381732    2.53004220   -2.45397323
     atom    8 type  2   force =     1.06862441    0.02602131  -37.19839146
     atom    9 type  2   force =    -0.34366933    0.08527868   37.75879939
     atom   10 type  1   force =     0.96126553    0.27361187   -5.27533307
     atom   11 type  2   force =     0.50697458    1.56326979  -38.81322174
     atom   12 type  2   force =    -0.36375178   -0.59348770   37.58683538
     atom   13 type  1   force =    -0.50531908   -0.91820432   -2.80075364
     atom   14 type  2   force =    -0.01502066   -0.02744545  -38.34278462
     atom   15 type  2   force =    -0.18900333    0.00567159   36.59918550
     atom   16 type  1   force =    -0.03457945   -3.72348044   -0.50882818
     atom   17 type  2   force =    -0.78393502   -1.40607370  -37.68919251
     atom   18 type  2   force =     0.03473609    0.63129041   38.29997053
     atom   19 type  1   force =    -2.94079923    2.69931056    0.21899849
     atom   20 type  2   force =    -0.23068954    0.22102432   38.30948086
     atom   21 type  1   force =    -0.14224329   -0.11249768   -1.14937103
     atom   22 type  2   force =    -0.82107145    1.27556910  -37.98967122
     atom   23 type  2   force =     0.03013016   -0.65965827   38.11206824
     atom   24 type  1   force =     0.37778840   -1.04009171   -5.56896298
     atom   25 type  2   force =    -0.52297412   -0.31172709  -38.98110694
     atom   26 type  2   force =     0.24651135   -0.04581989   37.06383425
     atom   27 type  1   force =     0.06200212   -0.75459864    2.49764725
     atom   28 type  2   force =    -0.07838606   -0.89022651  -37.89935649
     atom   29 type  2   force =     0.34704993    0.38818268   37.05823746
     atom   30 type  1   force =     0.53840083    1.27984697    0.42993350
     atom   31 type  2   force =    -1.03737226    1.15478309  -36.44140627
     atom   32 type  2   force =     0.48986607    0.07822391   38.33385880
     atom   33 type  1   force =    -0.58518061    0.26244590   -1.85327592
     atom   34 type  2   force =     0.12087827    0.91036424  -38.88042699
     atom   35 type  2   force =     0.28885768   -0.48199394   37.57246727
     atom   36 type  3   force =    -0.25469264   -0.33616461   -8.12600477
     The core correction contribution to forces
     atom    1 type  1   force =     0.00000000    0.00000000    0.00000000
     atom    2 type  2   force =     0.00025043   -0.00005349    0.02064731
     atom    3 type  2   force =     0.00051589    0.00016998   -0.02076802
     atom    4 type  1   force =     0.00000000    0.00000000    0.00000000
     atom    5 type  2   force =    -0.00073778    0.00178640    0.02022513
     atom    6 type  2   force =     0.00023172   -0.00104479   -0.02081117
     atom    7 type  1   force =     0.00000000    0.00000000    0.00000000
     atom    8 type  2   force =    -0.00035985    0.00042269    0.02031885
     atom    9 type  2   force =     0.00007657    0.00057481   -0.02084954
     atom   10 type  1   force =     0.00000000    0.00000000    0.00000000
     atom   11 type  2   force =    -0.00065113   -0.00029832    0.02059999
     atom   12 type  2   force =     0.00116593    0.00130845   -0.02078326
     atom   13 type  1   force =     0.00000000    0.00000000    0.00000000
     atom   14 type  2   force =    -0.00057496    0.00010378    0.02065766
     atom   15 type  2   force =     0.00062980    0.00044285   -0.02055478
     atom   16 type  1   force =     0.00000000    0.00000000    0.00000000
     atom   17 type  2   force =    -0.00031723    0.00175512    0.01992139
     atom   18 type  2   force =     0.00040165   -0.00055827   -0.02100003
     atom   19 type  1   force =     0.00000000    0.00000000    0.00000000
     atom   20 type  2   force =     0.00000135    0.00076357   -0.02108659
     atom   21 type  1   force =     0.00000000    0.00000000    0.00000000
     atom   22 type  2   force =     0.00055523   -0.00046475    0.01901839
     atom   23 type  2   force =    -0.00046455    0.00129829   -0.02080607
     atom   24 type  1   force =     0.00000000    0.00000000    0.00000000
     atom   25 type  2   force =     0.00002994   -0.00022615    0.02070204
     atom   26 type  2   force =    -0.00020562    0.00068894   -0.02086191
     atom   27 type  1   force =     0.00000000    0.00000000    0.00000000
     atom   28 type  2   force =     0.00047082    0.00187165    0.02073136
     atom   29 type  2   force =    -0.00085158   -0.00052367   -0.02066028
     atom   30 type  1   force =     0.00000000    0.00000000    0.00000000
     atom   31 type  2   force =    -0.00120227   -0.01380037   -0.00093766
     atom   32 type  2   force =    -0.00007280    0.00057768   -0.02139433
     atom   33 type  1   force =     0.00000000    0.00000000    0.00000000
     atom   34 type  2   force =     0.00021327    0.00113277    0.02066184
     atom   35 type  2   force =    -0.00005817    0.00113652   -0.02104011
     atom   36 type  3   force =     0.00000000    0.00000000    0.00000000
     The Hubbard contrib.    to forces
     atom    1 type  1   force =     0.00000000    0.00000000    0.00000000
     atom    2 type  2   force =     0.00000000    0.00000000    0.00000000
     atom    3 type  2   force =     0.00000000    0.00000000    0.00000000
     atom    4 type  1   force =     0.00000000    0.00000000    0.00000000
     atom    5 type  2   force =     0.00000000    0.00000000    0.00000000
     atom    6 type  2   force =     0.00000000    0.00000000    0.00000000
     atom    7 type  1   force =     0.00000000    0.00000000    0.00000000
     atom    8 type  2   force =     0.00000000    0.00000000    0.00000000
     atom    9 type  2   force =     0.00000000    0.00000000    0.00000000
     atom   10 type  1   force =     0.00000000    0.00000000    0.00000000
     atom   11 type  2   force =     0.00000000    0.00000000    0.00000000
     atom   12 type  2   force =     0.00000000    0.00000000    0.00000000
     atom   13 type  1   force =     0.00000000    0.00000000    0.00000000
     atom   14 type  2   force =     0.00000000    0.00000000    0.00000000
     atom   15 type  2   force =     0.00000000    0.00000000    0.00000000
     atom   16 type  1   force =     0.00000000    0.00000000    0.00000000
     atom   17 type  2   force =     0.00000000    0.00000000    0.00000000
     atom   18 type  2   force =     0.00000000    0.00000000    0.00000000
     atom   19 type  1   force =     0.00000000    0.00000000    0.00000000
     atom   20 type  2   force =     0.00000000    0.00000000    0.00000000
     atom   21 type  1   force =     0.00000000    0.00000000    0.00000000
     atom   22 type  2   force =     0.00000000    0.00000000    0.00000000
     atom   23 type  2   force =     0.00000000    0.00000000    0.00000000
     atom   24 type  1   force =     0.00000000    0.00000000    0.00000000
     atom   25 type  2   force =     0.00000000    0.00000000    0.00000000
     atom   26 type  2   force =     0.00000000    0.00000000    0.00000000
     atom   27 type  1   force =     0.00000000    0.00000000    0.00000000
     atom   28 type  2   force =     0.00000000    0.00000000    0.00000000
     atom   29 type  2   force =     0.00000000    0.00000000    0.00000000
     atom   30 type  1   force =     0.00000000    0.00000000    0.00000000
     atom   31 type  2   force =     0.00000000    0.00000000    0.00000000
     atom   32 type  2   force =     0.00000000    0.00000000    0.00000000
     atom   33 type  1   force =     0.00000000    0.00000000    0.00000000
     atom   34 type  2   force =     0.00000000    0.00000000    0.00000000
     atom   35 type  2   force =     0.00000000    0.00000000    0.00000000
     atom   36 type  3   force =     0.00000000    0.00000000    0.00000000
     The SCF correction term to forces
     atom    1 type  1   force =    -0.00000705   -0.00004235    0.00096380
     atom    2 type  2   force =     0.00009521   -0.00010109    0.00055799
     atom    3 type  2   force =     0.00001331   -0.00000325    0.00012897
     atom    4 type  1   force =     0.00031326    0.00023469    0.00100095
     atom    5 type  2   force =     0.00002740    0.00005880    0.00051963
     atom    6 type  2   force =     0.00002010    0.00000525    0.00015642
     atom    7 type  1   force =     0.00013482    0.00001536    0.00097406
     atom    8 type  2   force =     0.00008238    0.00001559    0.00049198
     atom    9 type  2   force =     0.00008473   -0.00001071    0.00021496
     atom   10 type  1   force =    -0.00001243   -0.00010486    0.00112447
     atom   11 type  2   force =     0.00001095   -0.00004895    0.00051148
     atom   12 type  2   force =    -0.00002540   -0.00007308    0.00018405
     atom   13 type  1   force =     0.00003658    0.00005609    0.00097381
     atom   14 type  2   force =    -0.00005977   -0.00003946    0.00051599
     atom   15 type  2   force =     0.00000254   -0.00000687    0.00016114
     atom   16 type  1   force =    -0.00019369    0.00012036    0.00091726
     atom   17 type  2   force =    -0.00012609    0.00010896    0.00044299
     atom   18 type  2   force =    -0.00004779    0.00009439    0.00019060
     atom   19 type  1   force =    -0.00027970   -0.00030300    0.00089435
     atom   20 type  2   force =    -0.00002316    0.00001143    0.00013973
     atom   21 type  1   force =     0.00002838   -0.00003018    0.00104219
     atom   22 type  2   force =     0.00004363    0.00003245    0.00053593
     atom   23 type  2   force =    -0.00000711   -0.00001091    0.00013868
     atom   24 type  1   force =     0.00001643    0.00006856    0.00098878
     atom   25 type  2   force =    -0.00005095   -0.00005518    0.00050501
     atom   26 type  2   force =     0.00002624   -0.00001075    0.00017281
     atom   27 type  1   force =    -0.00010732    0.00039889    0.00108590
     atom   28 type  2   force =     0.00008821    0.00014347    0.00042521
     atom   29 type  2   force =     0.00004369    0.00013921    0.00024502
     atom   30 type  1   force =     0.00017524   -0.00039795    0.00098539
     atom   31 type  2   force =    -0.00011437   -0.00029070    0.00003321
     atom   32 type  2   force =    -0.00007555   -0.00008943    0.00033508
     atom   33 type  1   force =    -0.00001773   -0.00006630    0.00102503
     atom   34 type  2   force =    -0.00006219    0.00007475    0.00049668
     atom   35 type  2   force =     0.00003670   -0.00008306    0.00021116
     atom   36 type  3   force =     0.00000243    0.00001388    0.00008641

     Total force =     0.108152     Total SCF correction =     0.004007
     Energy error            =      2.2E-02 Ry
     Gradient error          =      5.1E-02 Ry/Bohr

     number of scf cycles    =   2
     number of bfgs steps    =   1

     energy             old  =   -2205.5438870417 Ry
     energy             new  =   -2205.5654524195 Ry

     CASE: energy            _new < energy            _old

     new trust radius        =       0.1211191583 bohr
     new conv_thr            =       0.0000000514 Ry


ATOMIC_POSITIONS (angstrom)
Mo            6.5848521564        1.7647679895        2.8270356299
S             8.1599983957        0.8289833456        4.4342330942
S             8.1783293489        0.8221699383        1.2690265136
Mo            8.1055534491        4.5010483115        2.7202390281
S             6.5006656056        3.7143961573        4.3386419172
S             6.5542858500        3.5234651681        1.1230244836
Mo            6.4962248474        7.1942917578        2.6700443251
S             8.0794170197        6.3379304596        4.2624370155
S             8.0959171101        6.3120374413        1.0961004507
Mo            8.1499241884        9.9143166973        2.8198480667
S             6.5018352248        8.9414120522        4.3710695040
S             6.6148788714        9.0501797539        1.1462757717
Mo            3.4284160563        1.7505938113        2.7700701409
S             4.9854839629        0.8170775492        4.3634691596
S             5.0433320882        0.8497369614        1.2167705858
Mo            4.9812802678        4.5211678325        2.6356691271
S             3.4391844850        3.6662417739        4.2831505154
S             3.4281737171        3.5405278955        1.0747705405
Mo            3.4561343028        7.2178558497        2.6218147803
S             4.9863327770        6.3210483510        1.0345926564
Mo            5.0082804394        9.9067511377        2.7427309380
S             3.4652145634        8.9344384728        4.3213958365
S             3.4091649332        9.0681029369        1.1034310765
Mo            0.2827556530        1.7424371440        2.8292685811
S             1.8693862227        0.8139110656        4.4026536301
S             1.8490693926        0.8545391006        1.2037019057
Mo            1.8667685807        4.4732102244        2.6458249577
S             0.2703046643        3.6489461731        4.3297823965
S             0.2377429368        3.5262274440        1.1665443145
Mo            0.2705378012        7.2286560532        2.7081229457
S             1.9186710345        6.3987067197        4.3079754880
S             1.8507166141        6.3140964375        1.0556123545
Mo            1.8559237334        9.9353975577        2.7671977817
S             0.2984799853        9.0397785102        4.3952114214
S             0.2684602795        9.0522885286        1.1644643538
H             2.0821526754        7.2401431411        5.4325602489



     Writing config-only to output data dir ./MoS2-V-O.save/
     NEW-OLD atomic charge density approx. for the potential

     negative rho (up, down):  1.517E-04 0.000E+00

     total cpu time spent up to now is      165.2 secs

     Self-consistent Calculation

     iteration #  1     ecut=    80.00 Ry     beta= 0.70
     Davidson diagonalization with overlap
     ethr =  1.00E-06,  avg # of iterations = 10.0

     negative rho (up, down):  6.370E-05 0.000E+00

     total cpu time spent up to now is      179.2 secs

     total energy              =   -2205.57889827 Ry
     estimated scf accuracy    <       0.00250392 Ry

     iteration #  2     ecut=    80.00 Ry     beta= 0.70
     Davidson diagonalization with overlap
     ethr =  8.16E-07,  avg # of iterations =  2.0

     negative rho (up, down):  3.577E-05 0.000E+00

     total cpu time spent up to now is      193.5 secs

     total energy              =   -2205.57893325 Ry
     estimated scf accuracy    <       0.00046273 Ry

     iteration #  3     ecut=    80.00 Ry     beta= 0.70
     Davidson diagonalization with overlap
     ethr =  1.51E-07,  avg # of iterations =  4.0

     negative rho (up, down):  2.696E-05 0.000E+00

     total cpu time spent up to now is      209.8 secs

     total energy              =   -2205.57897954 Ry
     estimated scf accuracy    <       0.00009789 Ry

     iteration #  4     ecut=    80.00 Ry     beta= 0.70
     Davidson diagonalization with overlap
     ethr =  3.19E-08,  avg # of iterations =  2.0

     negative rho (up, down):  2.215E-05 0.000E+00

     total cpu time spent up to now is      223.7 secs

     total energy              =   -2205.57898708 Ry
     estimated scf accuracy    <       0.00002200 Ry

     iteration #  5     ecut=    80.00 Ry     beta= 0.70
     Davidson diagonalization with overlap
     ethr =  7.17E-09,  avg # of iterations =  6.0

     negative rho (up, down):  2.192E-05 0.000E+00

     total cpu time spent up to now is      238.9 secs

     total energy              =   -2205.57899032 Ry
     estimated scf accuracy    <       0.00000526 Ry

     iteration #  6     ecut=    80.00 Ry     beta= 0.70
     Davidson diagonalization with overlap
     ethr =  1.71E-09,  avg # of iterations =  5.0

     negative rho (up, down):  2.557E-05 0.000E+00

     total cpu time spent up to now is      251.4 secs

     total energy              =   -2205.57899149 Ry
     estimated scf accuracy    <       0.00000133 Ry

     iteration #  7     ecut=    80.00 Ry     beta= 0.70
     Davidson diagonalization with overlap
     ethr =  4.34E-10,  avg # of iterations =  2.0

     negative rho (up, down):  3.719E-05 0.000E+00

     total cpu time spent up to now is      261.9 secs

     total energy              =   -2205.57899175 Ry
     estimated scf accuracy    <       0.00000053 Ry

     iteration #  8     ecut=    80.00 Ry     beta= 0.70
     Davidson diagonalization with overlap
     ethr =  1.74E-10,  avg # of iterations =  5.0

     negative rho (up, down):  6.176E-05 0.000E+00

     total cpu time spent up to now is      270.6 secs

     total energy              =   -2205.57899177 Ry
     estimated scf accuracy    <       0.00000016 Ry

     iteration #  9     ecut=    80.00 Ry     beta= 0.70
     Davidson diagonalization with overlap
     ethr =  5.12E-11,  avg # of iterations =  4.0

     negative rho (up, down):  9.758E-05 0.000E+00

     total cpu time spent up to now is      284.1 secs

     total energy              =   -2205.57899173 Ry
     estimated scf accuracy    <       0.00000005 Ry

     iteration # 10     ecut=    80.00 Ry     beta= 0.70
     Davidson diagonalization with overlap
     ethr =  1.70E-11,  avg # of iterations =  5.0

     negative rho (up, down):  1.375E-04 0.000E+00

     total cpu time spent up to now is      286.3 secs

     End of self-consistent calculation

          k = 0.0000 0.0000 0.0000 (105382 PWs)   bands (ev):

   -62.8400 -62.8284 -62.8274 -62.8004 -62.7928 -62.7843 -62.7704 -62.7614
   -62.7561 -62.7524 -62.6557 -62.5833 -37.1760 -37.1094 -37.0994 -37.0888
   -37.0747 -37.0521 -37.0388 -37.0244 -37.0193 -37.0157 -37.0122 -36.9981
   -36.9897 -36.9848 -36.9743 -36.9639 -36.9604 -36.9567 -36.9443 -36.9389
   -36.9338 -36.9204 -36.9096 -36.8773 -36.8693 -36.8606 -36.8487 -36.8265
   -36.8187 -36.8168 -36.7925 -36.7724 -36.7522 -36.7399 -36.6600 -36.6021
   -16.0984 -15.6055 -15.1386 -15.0068 -14.8425 -14.7833 -14.6732 -14.4487
   -14.3873 -14.3781 -14.3435 -14.2812 -14.2680 -14.2238 -14.1523 -14.0882
   -14.0701 -14.0572 -13.9890 -13.8630 -13.7964 -13.7837 -13.7660  -8.7182
    -7.5898  -7.4086  -7.2519  -7.1918  -7.1822  -7.1477  -7.0790  -7.0365
    -6.7910  -6.7423  -6.7278  -6.6428  -6.5506  -6.4708  -6.4058  -6.3770
    -6.3407  -6.2043  -6.1577  -5.9059  -5.8635  -5.8358  -5.8032  -5.7296
    -5.7223  -5.6676  -5.6427  -5.5993  -5.5827  -5.4969  -5.4938  -5.4422
    -5.3712  -5.3366  -5.1282  -5.0859  -5.0229  -4.9678  -4.9179  -4.9037
    -4.8576  -4.7954  -4.6358  -4.5281  -4.4683  -4.2675  -4.2397  -4.1823
    -4.1589  -4.0426  -3.9761  -3.9501  -3.7835  -3.7267  -3.7061  -3.6446
    -3.6301  -3.5220  -3.4896  -3.4684  -3.4331  -3.4240  -3.4003  -3.3441
    -3.3078  -3.2169  -3.1137  -2.8462  -2.8029  -2.7322  -2.7294  -2.6993
    -2.6711  -2.6389  -2.6138  -2.5604  -2.5084  -2.2249  -1.9555  -1.9438
    -1.9233  -1.0829  -0.6968  -0.4648  -0.1248  -0.1030  -0.0555   0.0464
     0.0704   0.1714   0.2867   0.3199   0.3512   0.3724   0.4166   0.4631
     0.4820   0.5799   0.6030   0.6389   0.6641   0.7155   0.7779   0.8011
     0.8251   0.8734   0.8972   0.9459   1.0092   1.0335   1.0780   1.3679
     1.4296

     the Fermi energy is    -1.0829 ev

!    total energy              =   -2205.57899166 Ry
     estimated scf accuracy    <       0.00000001 Ry
     smearing contrib. (-TS)   =      -0.00564369 Ry
     internal energy E=F+TS    =   -2205.57334797 Ry

     The total energy is F=E-TS. E is the sum of the following terms:
     one-electron contribution =  -18040.92386634 Ry
     hartree contribution      =    9007.69352149 Ry
     xc contribution           =    -385.30810225 Ry
     ewald contribution        =    7212.96509913 Ry

     convergence has been achieved in  10 iterations

     negative rho (up, down):  1.375E-04 0.000E+00

     Forces acting on atoms (cartesian axes, Ry/au):

     atom    1 type  1   force =    -0.00372347   -0.00195372   -0.00481034
     atom    2 type  2   force =    -0.00474917    0.00515318   -0.00118418
     atom    3 type  2   force =    -0.00846051    0.00474633   -0.01129565
     atom    4 type  1   force =     0.00661915    0.00103007    0.00162825
     atom    5 type  2   force =     0.00238089   -0.00482425   -0.00476955
     atom    6 type  2   force =     0.00158928    0.00420358    0.00348217
     atom    7 type  1   force =     0.00080058   -0.00679708    0.00248888
     atom    8 type  2   force =    -0.00046402   -0.00419687    0.00987226
     atom    9 type  2   force =     0.01001437    0.00388079    0.00481511
     atom   10 type  1   force =    -0.00017359    0.00500485   -0.00059318
     atom   11 type  2   force =     0.00341909   -0.00155828   -0.00862076
     atom   12 type  2   force =    -0.00391840   -0.00168937    0.00156045
     atom   13 type  1   force =     0.00300355   -0.00049904   -0.00020991
     atom   14 type  2   force =     0.00394529   -0.00063431    0.00446615
     atom   15 type  2   force =    -0.00539241    0.00058583   -0.00458903
     atom   16 type  1   force =    -0.00015297    0.00078817    0.00088326
     atom   17 type  2   force =     0.00458850   -0.00014342    0.00160665
     atom   18 type  2   force =    -0.00218716   -0.00407914    0.00488181
     atom   19 type  1   force =     0.00251965    0.00192720    0.00278740
     atom   20 type  2   force =     0.00084521   -0.00305893   -0.00354289
     atom   21 type  1   force =    -0.00285706    0.00131415    0.00258853
     atom   22 type  2   force =     0.00418645    0.00324560   -0.00489336
     atom   23 type  2   force =     0.00100393    0.00106657   -0.00039237
     atom   24 type  1   force =    -0.00399822   -0.00167724   -0.00291165
     atom   25 type  2   force =     0.00569577    0.00819034   -0.00367195
     atom   26 type  2   force =    -0.00350720   -0.00092337   -0.00314197
     atom   27 type  1   force =     0.00269091    0.00169109    0.00516407
     atom   28 type  2   force =     0.00216834   -0.00288268   -0.00612386
     atom   29 type  2   force =     0.00234717   -0.00055187   -0.00575721
     atom   30 type  1   force =     0.00013220   -0.00040805    0.01034720
     atom   31 type  2   force =     0.00396063    0.00728469    0.01078493
     atom   32 type  2   force =    -0.00611483    0.00000691    0.00874574
     atom   33 type  1   force =     0.00072195    0.00179405    0.00228186
     atom   34 type  2   force =    -0.00390298   -0.01309862   -0.01260620
     atom   35 type  2   force =    -0.00273897    0.00494148    0.00353467
     atom   36 type  3   force =    -0.01029193   -0.00787867   -0.00280533
     The non-local contrib.  to forces
     atom    1 type  1   force =     0.00046831    0.02546612   -0.00950239
     atom    2 type  2   force =    -0.00445317   -0.00637207   -0.26550623
     atom    3 type  2   force =    -0.00929678   -0.00782899    0.26151082
     atom    4 type  1   force =    -0.00100397    0.00619114    0.00553414
     atom    5 type  2   force =     0.00938184   -0.03260989   -0.25239295
     atom    6 type  2   force =    -0.00057285    0.00597715    0.26509810
     atom    7 type  1   force =    -0.03009074    0.00105926   -0.02472941
     atom    8 type  2   force =     0.00964370   -0.00203053   -0.25462897
     atom    9 type  2   force =     0.00214885   -0.01226565    0.26917516
     atom   10 type  1   force =     0.00023197    0.00568359   -0.00209174
     atom   11 type  2   force =     0.01234938   -0.00093533   -0.26135143
     atom   12 type  2   force =    -0.01506693   -0.01830760    0.26207213
     atom   13 type  1   force =     0.00134255    0.02258599   -0.01103080
     atom   14 type  2   force =     0.00754867   -0.01192893   -0.26465552
     atom   15 type  2   force =    -0.00771355   -0.00823606    0.26087830
     atom   16 type  1   force =    -0.00813601    0.03622514   -0.02927862
     atom   17 type  2   force =     0.00895237   -0.03426748   -0.24393405
     atom   18 type  2   force =    -0.00557196   -0.00023568    0.26861726
     atom   19 type  1   force =     0.01998302   -0.00962210   -0.00837536
     atom   20 type  2   force =     0.00098785   -0.01892668    0.26119227
     atom   21 type  1   force =    -0.00021283    0.02853336    0.00307548
     atom   22 type  2   force =    -0.00426613    0.01294266   -0.23640079
     atom   23 type  2   force =     0.00593673   -0.01787068    0.26310457
     atom   24 type  1   force =     0.00285130    0.01510209   -0.01080134
     atom   25 type  2   force =     0.00129153   -0.00323309   -0.26558951
     atom   26 type  2   force =     0.00186028   -0.01309119    0.26461621
     atom   27 type  1   force =    -0.00048444    0.00588284   -0.01331601
     atom   28 type  2   force =    -0.00774833   -0.02856669   -0.27008876
     atom   29 type  2   force =     0.01133448   -0.00009371    0.26527287
     atom   30 type  1   force =     0.00025401    0.01861929    0.00506588
     atom   31 type  2   force =     0.00935799    0.22008603    0.08222267
     atom   32 type  2   force =    -0.00064333   -0.01094290    0.28247605
     atom   33 type  1   force =    -0.00255602    0.00581118    0.00482067
     atom   34 type  2   force =    -0.00343437   -0.01760502   -0.26646135
     atom   35 type  2   force =    -0.00100180   -0.01464204    0.26729632
     atom   36 type  3   force =    -0.00690317   -0.03122913   -0.04238852
     The ionic contribution  to forces
     atom    1 type  1   force =    -0.03983459    0.84452708    5.74576667
     atom    2 type  2   force =    -0.33619741    0.21790303   39.45163446
     atom    3 type  2   force =    -0.14373269    0.05542342  -36.38650154
     atom    4 type  1   force =     0.06731419    0.35140314    0.79341792
     atom    5 type  2   force =    -0.94565695    1.41095859   38.56251991
     atom    6 type  2   force =     0.31349550   -0.56743351  -37.84272085
     atom    7 type  1   force =    -2.70258660   -2.33006951    2.48102718
     atom    8 type  2   force =    -1.07119102   -0.04157549   37.57728722
     atom    9 type  2   force =     0.37198980   -0.07395351  -37.97142869
     atom   10 type  1   force =    -0.82682286   -0.32898789    4.98949821
     atom   11 type  2   force =    -0.49526945   -1.57482583   38.92383054
[...]
     atom   27 type  1   force =     0.00012803    0.00358564   -0.01654978
     atom   28 type  2   force =    -0.00364862   -0.01701111   -0.26665123
     atom   29 type  2   force =     0.00595396   -0.00964528    0.27133998
     atom   30 type  1   force =    -0.00347400    0.02209473    0.00340760
     atom   31 type  2   force =    -0.03856598    0.20693243    0.11241742
     atom   32 type  2   force =     0.00699300   -0.01114962    0.27796152
     atom   33 type  1   force =    -0.00180636    0.00634367    0.00473951
     atom   34 type  2   force =     0.00043834   -0.01154588   -0.25654838
     atom   35 type  2   force =    -0.00215407   -0.01269383    0.26742274
     atom   36 type  3   force =     0.00274119   -0.03018128   -0.04743845
     The ionic contribution  to forces
     atom    1 type  1   force =    -0.07257214    0.81974755    1.57043006
     atom    2 type  2   force =    -0.21706659    0.19481854   38.76927902
     atom    3 type  2   force =     0.03746566   -0.08335279  -37.68227298
     atom    4 type  1   force =    -0.06103342    0.41443554    0.77693535
     atom    5 type  2   force =    -0.85466553    1.13009439   38.21089913
     atom    6 type  2   force =     0.28274257   -0.13265035  -38.14357212
     atom    7 type  1   force =    -2.71720408   -2.06334877    3.77972708
     atom    8 type  2   force =    -1.27636006   -0.06919126   38.36993582
     atom    9 type  2   force =     0.31320238    0.06921419  -37.54621250
     atom   10 type  1   force =    -0.65415134   -0.45384660    2.74683969
     atom   11 type  2   force =    -0.43988136   -1.33381949   38.52216294
     atom   12 type  2   force =     0.24595504    0.05786058  -37.75368104
     atom   13 type  1   force =     0.17072220    0.82561917    1.98759057
     atom   14 type  2   force =     0.06353010    0.10244875   38.47175474
     atom   15 type  2   force =     0.06694970   -0.09957251  -37.73210276
     atom   16 type  1   force =    -0.19514572    3.76233493    0.93088720
     atom   17 type  2   force =     0.77935875    1.28278383   38.23041051
     atom   18 type  2   force =    -0.04942799   -0.13681415  -38.23173802
     atom   19 type  1   force =     2.85321119   -3.16806947    3.04579124
     atom   20 type  2   force =    -0.06631903   -0.02455461  -38.28133297
     atom   21 type  1   force =     0.34538832   -0.28494425    0.59442763
     atom   22 type  2   force =     0.74261401   -0.99341184   38.54386383
     atom   23 type  2   force =    -0.18519221    0.16492483  -38.13957642
     atom   24 type  1   force =    -0.15424468    0.65543265    1.94810257
     atom   25 type  2   force =     0.17854862    0.30238067   38.81530057
     atom   26 type  2   force =    -0.08371278   -0.05417831  -37.70858091
     atom   27 type  1   force =     0.11272131    1.42750813    0.44878925
     atom   28 type  2   force =     0.10915766    0.53573168   37.99548778
     atom   29 type  2   force =    -0.13543708    0.09524387  -37.65924486
     atom   30 type  1   force =    -0.16933259   -1.40481290    3.04428406
     atom   31 type  2   force =     1.30989996   -1.70029113   37.17296960
     atom   32 type  2   force =    -0.31400186    0.00269474  -37.23567658
     atom   33 type  1   force =     0.31567366   -0.23822458    2.38468288
     atom   34 type  2   force =    -0.29352313   -0.06778920   38.80415485
     atom   35 type  2   force =    -0.06878904   -0.03923085  -37.48346255
     atom   36 type  3   force =     0.08091950    0.50482900    8.43274732
     The local contribution  to forces
     atom    1 type  1   force =     0.07721447   -0.84442902   -1.56742632
     atom    2 type  2   force =     0.21830026   -0.18344691  -38.52750434
     atom    3 type  2   force =    -0.03497625    0.09341602   37.43749220
     atom    4 type  1   force =     0.05959598   -0.42032099   -0.78218109
     atom    5 type  2   force =     0.84911067   -1.10890026  -37.97989089
     atom    6 type  2   force =    -0.28342604    0.13674661   37.90023792
     atom    7 type  1   force =     2.74709894    2.06358176   -3.75196381
     atom    8 type  2   force =     1.26223258    0.06543556  -38.13197457
     atom    9 type  2   force =    -0.30544921   -0.05291239   37.30213641
     atom   10 type  1   force =     0.65591255    0.44606810   -2.74864541
     atom   11 type  2   force =     0.43387057    1.33999448  -38.28448531
     atom   12 type  2   force =    -0.23608380   -0.04656631   37.50992832
     atom   13 type  1   force =    -0.17167815   -0.84744863   -1.97859908
     atom   14 type  2   force =    -0.06291221   -0.09011960  -38.22690093
     atom   15 type  2   force =    -0.06691318    0.10823244   37.49160950
     atom   16 type  1   force =     0.20184808   -3.80054200   -0.90419618
     atom   17 type  2   force =    -0.78145120   -1.25609360  -38.00372873
     atom   18 type  2   force =     0.05031550    0.14022624   37.98605506
     atom   19 type  1   force =    -2.87531156    3.17663631   -3.02870855
     atom   20 type  2   force =     0.06430786    0.03927530   38.03959783
     atom   21 type  1   force =    -0.34620410    0.25742257   -0.59725543
     atom   22 type  2   force =    -0.73488254    0.99443385  -38.31988611
     atom   23 type  2   force =     0.17995900   -0.15322486   37.89658444
     atom   24 type  1   force =     0.15485632   -0.67001778   -1.94552509
     atom   25 type  2   force =    -0.17787631   -0.29208700  -38.57217140
     atom   26 type  2   force =     0.08267702    0.06533183   37.46316792
     atom   27 type  1   force =    -0.11279401   -1.43169585   -0.43300885
     atom   28 type  2   force =    -0.10595574   -0.51984918  -37.74866440
     atom   29 type  2   force =     0.12888886   -0.08608936   37.40889767
     atom   30 type  1   force =     0.17267888    1.38318484   -3.04741481
     atom   31 type  2   force =    -1.27302303    1.50692623  -37.28053517
     atom   32 type  2   force =     0.30841838    0.00720424   36.97788174
     atom   33 type  1   force =    -0.31344913    0.23166214   -2.38952525
     atom   34 type  2   force =     0.29339579    0.08032030  -38.56770437
     atom   35 type  2   force =     0.07077120    0.05131221   37.23727706
     atom   36 type  3   force =    -0.08534983   -0.47708698   -8.38656241
     The core correction contribution to forces
     atom    1 type  1   force =     0.00000000    0.00000000    0.00000000
     atom    2 type  2   force =    -0.00006219    0.00063378    0.02060857
     atom    3 type  2   force =     0.00014308    0.00030598   -0.02085784
     atom    4 type  1   force =     0.00000000    0.00000000    0.00000000
     atom    5 type  2   force =    -0.00055392    0.00095020    0.02016610
     atom    6 type  2   force =     0.00025869   -0.00018325   -0.02076163
     atom    7 type  1   force =     0.00000000    0.00000000    0.00000000
     atom    8 type  2   force =    -0.00082790    0.00003837    0.02037300
     atom    9 type  2   force =     0.00077572    0.00096227   -0.02071352
     atom   10 type  1   force =     0.00000000    0.00000000    0.00000000
     atom   11 type  2   force =    -0.00019858    0.00016653    0.02042173
     atom   12 type  2   force =     0.00077214    0.00061642   -0.02079297
     atom   13 type  1   force =     0.00000000    0.00000000    0.00000000
     atom   14 type  2   force =     0.00006503    0.00032472    0.02077415
     atom   15 type  2   force =    -0.00004770    0.00035848   -0.02060332
     atom   16 type  1   force =     0.00000000    0.00000000    0.00000000
     atom   17 type  2   force =     0.00018995    0.00118795    0.01997103
     atom   18 type  2   force =     0.00010562   -0.00026692   -0.02093757
     atom   19 type  1   force =     0.00000000    0.00000000    0.00000000
     atom   20 type  2   force =    -0.00023053    0.00072730   -0.02109900
     atom   21 type  1   force =     0.00000000    0.00000000    0.00000000
     atom   22 type  2   force =     0.00041409    0.00017885    0.01971939
     atom   23 type  2   force =    -0.00057458    0.00086211   -0.02082933
     atom   24 type  1   force =     0.00000000    0.00000000    0.00000000
     atom   25 type  2   force =     0.00010432    0.00062429    0.02071664
     atom   26 type  2   force =    -0.00012277    0.00043717   -0.02092122
     atom   27 type  1   force =     0.00000000    0.00000000    0.00000000
     atom   28 type  2   force =     0.00022475    0.00092445    0.02073617
     atom   29 type  2   force =    -0.00033427    0.00030266   -0.02094325
     atom   30 type  1   force =     0.00000000    0.00000000    0.00000000
     atom   31 type  2   force =     0.00218109   -0.01338210   -0.00324793
     atom   32 type  2   force =    -0.00053151    0.00072198   -0.02136056
     atom   33 type  1   force =     0.00000000    0.00000000    0.00000000
     atom   34 type  2   force =    -0.00013351    0.00087824    0.02025948
     atom   35 type  2   force =     0.00011626    0.00071076   -0.02100407
     atom   36 type  3   force =     0.00000000    0.00000000    0.00000000
     The Hubbard contrib.    to forces
     atom    1 type  1   force =     0.00000000    0.00000000    0.00000000
     atom    2 type  2   force =     0.00000000    0.00000000    0.00000000
     atom    3 type  2   force =     0.00000000    0.00000000    0.00000000
     atom    4 type  1   force =     0.00000000    0.00000000    0.00000000
     atom    5 type  2   force =     0.00000000    0.00000000    0.00000000
     atom    6 type  2   force =     0.00000000    0.00000000    0.00000000
     atom    7 type  1   force =     0.00000000    0.00000000    0.00000000
     atom    8 type  2   force =     0.00000000    0.00000000    0.00000000
     atom    9 type  2   force =     0.00000000    0.00000000    0.00000000
     atom   10 type  1   force =     0.00000000    0.00000000    0.00000000
     atom   11 type  2   force =     0.00000000    0.00000000    0.00000000
     atom   12 type  2   force =     0.00000000    0.00000000    0.00000000
     atom   13 type  1   force =     0.00000000    0.00000000    0.00000000
     atom   14 type  2   force =     0.00000000    0.00000000    0.00000000
     atom   15 type  2   force =     0.00000000    0.00000000    0.00000000
     atom   16 type  1   force =     0.00000000    0.00000000    0.00000000
     atom   17 type  2   force =     0.00000000    0.00000000    0.00000000
     atom   18 type  2   force =     0.00000000    0.00000000    0.00000000
     atom   19 type  1   force =     0.00000000    0.00000000    0.00000000
     atom   20 type  2   force =     0.00000000    0.00000000    0.00000000
     atom   21 type  1   force =     0.00000000    0.00000000    0.00000000
     atom   22 type  2   force =     0.00000000    0.00000000    0.00000000
     atom   23 type  2   force =     0.00000000    0.00000000    0.00000000
     atom   24 type  1   force =     0.00000000    0.00000000    0.00000000
     atom   25 type  2   force =     0.00000000    0.00000000    0.00000000
     atom   26 type  2   force =     0.00000000    0.00000000    0.00000000
     atom   27 type  1   force =     0.00000000    0.00000000    0.00000000
     atom   28 type  2   force =     0.00000000    0.00000000    0.00000000
     atom   29 type  2   force =     0.00000000    0.00000000    0.00000000
     atom   30 type  1   force =     0.00000000    0.00000000    0.00000000
     atom   31 type  2   force =     0.00000000    0.00000000    0.00000000
     atom   32 type  2   force =     0.00000000    0.00000000    0.00000000
     atom   33 type  1   force =     0.00000000    0.00000000    0.00000000
     atom   34 type  2   force =     0.00000000    0.00000000    0.00000000
     atom   35 type  2   force =     0.00000000    0.00000000    0.00000000
     atom   36 type  3   force =     0.00000000    0.00000000    0.00000000
     The SCF correction term to forces
     atom    1 type  1   force =    -0.00000003    0.00001151    0.00003147
     atom    2 type  2   force =     0.00000513   -0.00000469    0.00000850
     atom    3 type  2   force =    -0.00000101    0.00000276    0.00000778
     atom    4 type  1   force =     0.00001045    0.00002042    0.00000535
     atom    5 type  2   force =     0.00000525    0.00000284    0.00000847
     atom    6 type  2   force =     0.00000475    0.00001475   -0.00000231
     atom    7 type  1   force =     0.00000864   -0.00002197   -0.00001493
     atom    8 type  2   force =    -0.00000157   -0.00000401   -0.00000436
     atom    9 type  2   force =     0.00000003   -0.00000063    0.00000375
     atom   10 type  1   force =    -0.00002420   -0.00001232    0.00003309
     atom   11 type  2   force =     0.00001045   -0.00000118    0.00000145
     atom   12 type  2   force =    -0.00000247   -0.00001346   -0.00000048
     atom   13 type  1   force =    -0.00003409   -0.00001013    0.00003313
     atom   14 type  2   force =    -0.00000111    0.00000230    0.00000677
     atom   15 type  2   force =    -0.00000351   -0.00000583    0.00000417
     atom   16 type  1   force =     0.00002126    0.00002749   -0.00000702
     atom   17 type  2   force =    -0.00000364   -0.00000372    0.00000866
     atom   18 type  2   force =    -0.00000699    0.00000778   -0.00000207
     atom   19 type  1   force =     0.00000943   -0.00002960   -0.00003164
     atom   20 type  2   force =     0.00000739    0.00000276   -0.00000621
     atom   21 type  1   force =     0.00001468   -0.00000696    0.00000151
     atom   22 type  2   force =    -0.00000346    0.00000992    0.00000609
     atom   23 type  2   force =     0.00000161   -0.00000581   -0.00001027
     atom   24 type  1   force =     0.00001587    0.00001219    0.00002702
     atom   25 type  2   force =    -0.00000066    0.00000120    0.00000744
     atom   26 type  2   force =     0.00000369    0.00000198    0.00000708
     atom   27 type  1   force =    -0.00002567    0.00000829   -0.00000995
     atom   28 type  2   force =     0.00000196    0.00000412    0.00000488
     atom   29 type  2   force =     0.00000274    0.00001379    0.00000352
     atom   30 type  1   force =    -0.00001631   -0.00003905   -0.00000870
     atom   31 type  2   force =    -0.00000921   -0.00000811   -0.00000146
     atom   32 type  2   force =    -0.00000910   -0.00000344   -0.00000447
     atom   33 type  1   force =     0.00000607    0.00002491    0.00002266
     atom   34 type  2   force =    -0.00000446    0.00000419    0.00002021
     atom   35 type  2   force =     0.00000017   -0.00001165   -0.00000894
     atom   36 type  3   force =    -0.00000117    0.00000044    0.00000109

     Total force =     0.006366     Total SCF correction =     0.000134
     Energy error            =      8.8E-05 Ry
     Gradient error          =      2.4E-03 Ry/Bohr

     bfgs converged in  18 scf cycles and  17 bfgs steps
     (criteria: energy <  1.0E-04 Ry, force <  1.0E-02 Ry/Bohr)

     End of BFGS Geometry Optimization

     Final energy             =   -2205.5921527624 Ry

     File ./MoS2-V-O.bfgs deleted, as requested
Begin final coordinates

ATOMIC_POSITIONS (angstrom)
Mo            6.5691093441        1.7608336776        2.7409252078
S             8.1260146366        0.8575864338        4.3592137458
S             8.1471239511        0.8305676910        1.1623933385
Mo            8.1485320036        4.4964274849        2.7209152104
S             6.5401770651        3.6605282146        4.3016550088
S             6.5817055336        3.5700611325        1.1015694250
Mo            6.5137097601        7.1682045334        2.6986293123
S             8.0795919455        6.2986055851        4.3282330917
S             8.1529563417        6.3323561178        1.1437797075
Mo            8.1386105340        9.9370004148        2.7707382701
S             6.5215160720        8.9562878754        4.3321698300
S             6.5951331359        9.0157452095        1.1391064105
Mo            3.4314324214        1.7503842456        2.7461854558
S             5.0064802372        0.8267437775        4.3312549468
S             4.9979641617        0.8385458927        1.1545458117
Mo            5.0100780927        4.5212476693        2.6438607500
S             3.4939929227        3.6489222278        4.3045907482
S             3.4319264351        3.5546751306        1.1006215968
Mo            3.4771440716        7.2303809757        2.6939572581
S             4.9843952614        6.3268002371        1.0655674057
Mo            5.0025938608        9.9158747179        2.7256855013
S             3.4760684644        8.9944605751        4.3356451382
S             3.4012146327        9.0417171193        1.1234944134
Mo            0.2664252931        1.7388115535        2.7578136770
S             1.8589012187        0.8567948798        4.3613047955
S             1.8462116222        0.8397198386        1.1632147016
Mo            1.8961104248        4.4741803311        2.6995892836
S             0.2902149580        3.6008492634        4.3093046087
S             0.2911587109        3.5589451055        1.1425555815
Mo            0.2694872942        7.2279764030        2.7737000517
S             1.9304697318        6.4085229205        4.3847465989
S             1.8527543710        6.3299750493        1.1571791513
Mo            1.8519749193        9.9463366781        2.7675320193
S             0.2638712109        9.0497609774        4.3725585058
S             0.2703104836        9.0391864459        1.1824250147
H             1.8584881107        7.1618633586        5.5580999628
End final coordinates



     Writing all to output data dir ./MoS2-V-O.save/
 
     init_run     :      2.48s CPU      2.67s WALL (       1 calls)
     electrons    :   1513.86s CPU   1659.06s WALL (      18 calls)
     update_pot   :     24.17s CPU     25.23s WALL (      17 calls)
     forces       :     24.93s CPU     26.66s WALL (      18 calls)

     Called by init_run:
     wfcinit      :      0.40s CPU      0.44s WALL (       1 calls)
     potinit      :      1.36s CPU      1.45s WALL (       1 calls)
     hinit0       :      0.17s CPU      0.19s WALL (       1 calls)

     Called by electrons:
     c_bands      :    187.13s CPU    189.34s WALL (     151 calls)
     sum_band     :     49.58s CPU     53.85s WALL (     151 calls)
     v_of_rho     :     62.67s CPU     72.11s WALL (     155 calls)
     newd         :     25.90s CPU     28.99s WALL (     155 calls)
     mix_rho      :   1197.15s CPU   1322.54s WALL (     151 calls)

     Called by c_bands:
     init_us_2    :      3.32s CPU      3.44s WALL (     303 calls)
     init_us_2:cp :      3.32s CPU      3.44s WALL (     303 calls)
     regterg      :    175.92s CPU    178.00s WALL (     151 calls)

     Called by *egterg:
     rdiaghg      :     14.48s CPU     14.60s WALL (     780 calls)
     h_psi        :    100.50s CPU    101.35s WALL (     812 calls)
     s_psi        :     13.30s CPU     13.35s WALL (     812 calls)
     g_psi        :      0.67s CPU      0.68s WALL (     660 calls)

     Called by h_psi:
     h_psi:calbec :     14.36s CPU     14.41s WALL (     812 calls)
     vloc_psi     :     71.22s CPU     71.93s WALL (     812 calls)
     add_vuspsi   :     13.34s CPU     13.42s WALL (     812 calls)

     General routines
     calbec       :     20.97s CPU     21.04s WALL (    1035 calls)
     fft          :     43.80s CPU     50.73s WALL (   10512 calls)
     ffts         :    532.84s CPU    654.05s WALL (  292367 calls)
     fftw         :     61.75s CPU     62.25s WALL (   91877 calls)
     interpolate  :      1.11s CPU      1.30s WALL (     155 calls)
 
     Parallel routines
 
     PWSCF        :  26m 9.17s CPU  28m38.87s WALL

 
   This run was terminated on:   6:20:29   4Nov2023            

=------------------------------------------------------------------------------=
   JOB DONE.
=------------------------------------------------------------------------------=
