
     Program PWSCF v.7.2 starts on  4Nov2023 at  2:18:10 

     This program is part of the open-source Quantum ESPRESSO suite
     for quantum simulation of materials; please cite
         "P. Giannozzi et al., J. Phys.:Condens. Matter 21 395502 (2009);
         "P. Giannozzi et al., J. Phys.:Condens. Matter 29 465901 (2017);
         "P. Giannozzi et al., J. Chem. Phys. 152 154105 (2020);
          URL http://www.quantum-espresso.org", 
     in publications or presentations arising from this work. More details at
     http://www.quantum-espresso.org/quote

     Parallel version (MPI & OpenMP), running on      48 processor cores
     Number of MPI processes:                48
     Threads/MPI process:                     1

     MPI processes distributed on     1 nodes
     53575 MiB available memory on the printing compute node when the environment starts
 
     Waiting for input...
     Reading input from standard input
Warning: card &CELL ignored
Warning: card CELL_DYNAMICS = 'BFGS', ignored
Warning: card CELL_DOFREE = '2DXY' ignored
Warning: card / ignored

     Current dimensions of program PWSCF are:
     Max number of different atomic species (ntypx) = 10
     Max number of k-points (npk) =  40000
     Max angular momentum in pseudopotentials (lmaxx) =  4

     IMPORTANT: XC functional enforced from input :
     Exchange-correlation= RVV10
                           (   1   4  13   4  26   0   0)
     Any further DFT definition will be discarded
     Please, verify this is what you really want


     gamma-point specific algorithms are used
     signal trapping enabled: kill the code with -SIGUSR1 to stop cleanly the simulation 
 
     R & G space division:  proc/nbgrp/npool/nimage =      48
     Subspace diagonalization in iterative solution of the eigenvalue problem:
     one sub-group per band group will be used
     scalapack distributed-memory algorithm (size of sub-group:  2*  2 procs)

 
     Parallelization info
     --------------------
     sticks:   dense  smooth     PW     G-vecs:    dense   smooth      PW
     Min         243     194     47                49060    35090    4376
     Max         246     196     50                49086    35128    4410
     Sum       11735    9389   2349              2355467  1685513  210763
 
     Using Slab Decomposition
 


     bravais-lattice index     =            0
     lattice parameter (alat)  =      17.8707  a.u.
     unit-cell volume          =   17436.2743 (a.u.)^3
     number of atoms/cell      =           36
     number of atomic types    =            3
     number of electrons       =       307.00
     number of Kohn-Sham states=          185
     kinetic-energy cutoff     =      80.0000  Ry
     charge density cutoff     =     400.0000  Ry
     scf convergence threshold =      1.0E-06
     mixing beta               =       0.7000
     number of iterations used =            8  local-TF  mixing
     energy convergence thresh.=      1.0E-04
     force convergence thresh. =      1.0E-02
     Exchange-correlation= RVV10
                           (   1   4  13   4  26   0   0)
     nstep                     =          200


     celldm(1)=  17.870686  celldm(2)=   0.000000  celldm(3)=   0.000000
     celldm(4)=   0.000000  celldm(5)=   0.000000  celldm(6)=   0.000000

     crystal axes: (cart. coord. in units of alat)
               a(1) = (   1.000000   0.000000   0.000000 )  
               a(2) = (   0.000000   1.155671   0.000000 )  
               a(3) = (   0.000000   0.000000   2.643601 )  

     reciprocal axes: (cart. coord. in units 2 pi/alat)
               b(1) = (  1.000000  0.000000  0.000000 )  
               b(2) = (  0.000000  0.865298  0.000000 )  
               b(3) = (  0.000000  0.000000  0.378272 )  


     PseudoPot. # 1 for Mo read from file:
     ../pseudo/Mo_ONCV_PBE-1.0.oncvpsp.upf
     MD5 check sum: 1b5d28e075c9ccadda658a603575cd1f
     Pseudo is Norm-conserving, Zval = 14.0
     Generated using ONCVPSP code by D. R. Hamann
     Using radial grid of 1526 points,  6 beta functions with: 
                l(1) =   0
                l(2) =   0
                l(3) =   1
                l(4) =   1
                l(5) =   2
                l(6) =   2

     PseudoPot. # 2 for S  read from file:
     ../pseudo/s_pbe_v1.4.uspp.F.UPF
     MD5 check sum: 88d86576ff6df21479756cfb9bdac1df
     Pseudo is Ultrasoft + core correction, Zval =  6.0
     Generated by new atomic code, or converted to UPF format
     Using radial grid of  907 points,  6 beta functions with: 
                l(1) =   0
                l(2) =   0
                l(3) =   1
                l(4) =   1
                l(5) =   2
                l(6) =   2
     Q(r) pseudized with  8 coefficients,  rinner =    1.300   1.300   1.300
                                                       1.300   1.300

     PseudoPot. # 3 for H  read from file:
     ../pseudo/H_ONCV_PBE-1.0.oncvpsp.upf
     MD5 check sum: 1790becc920ee074925cf490c71280fe
     Pseudo is Norm-conserving, Zval =  1.0
     Generated using ONCVPSP code by D. R. Hamann
     Using radial grid of 1166 points,  2 beta functions with: 
                l(1) =   0
                l(2) =   0

     atomic species   valence    mass     pseudopotential
        Mo            14.00    95.94000     Mo( 1.00)
        S              6.00    32.06500     S ( 1.00)
        H              1.00     1.00794     H ( 1.00)

     No symmetry found



   Cartesian axes

     site n.     atom                  positions (alat units)
         1           Mo  tau(   1) = (   0.6952221   0.1890506   0.2985846  )
         2           S   tau(   2) = (   0.8646417   0.0856217   0.4689279  )
         3           S   tau(   3) = (   0.8663890   0.0857843   0.1351291  )
         4           Mo  tau(   4) = (   0.8560186   0.4753274   0.2873942  )
         5           S   tau(   5) = (   0.6873294   0.3936244   0.4596353  )
         6           S   tau(   6) = (   0.6929804   0.3713468   0.1185692  )
         7           Mo  tau(   7) = (   0.6862796   0.7633098   0.2825370  )
         8           S   tau(   8) = (   0.8545980   0.6708292   0.4486168  )
         9           S   tau(   9) = (   0.8545123   0.6666874   0.1146125  )
        10           Mo  tau(  10) = (   0.8629403   1.0471007   0.3006803  )
        11           S   tau(  11) = (   0.6868280   0.9456650   0.4634891  )
        12           S   tau(  12) = (   0.6998113   0.9568511   0.1205389  )
        13           Mo  tau(  13) = (   0.3618216   0.1847309   0.2935964  )
        14           S   tau(  14) = (   0.5260962   0.0863870   0.4600448  )
        15           S   tau(  15) = (   0.5348379   0.0894875   0.1297123  )
        16           Mo  tau(  16) = (   0.5265817   0.4772436   0.2784130  )
        17           S   tau(  17) = (   0.3624753   0.3882513   0.4525556  )
        18           S   tau(  18) = (   0.3635411   0.3752055   0.1119148  )
        19           Mo  tau(  19) = (   0.3652268   0.7630864   0.2781795  )
        20           S   tau(  20) = (   0.5269494   0.6690381   0.1096838  )
        21           Mo  tau(  21) = (   0.5300192   1.0470394   0.2900995  )
        22           S   tau(  22) = (   0.3670346   0.9457522   0.4574073  )
        23           S   tau(  23) = (   0.3604225   0.9585725   0.1159032  )
        24           Mo  tau(  24) = (   0.0313099   0.1847895   0.3013130  )
        25           S   tau(  25) = (   0.1956761   0.0838230   0.4650863  )
        26           S   tau(  26) = (   0.1967693   0.0903508   0.1278874  )
        27           Mo  tau(  27) = (   0.1967578   0.4753919   0.2813011  )
        28           S   tau(  28) = (   0.0287851   0.3864324   0.4586755  )
        29           S   tau(  29) = (   0.0244514   0.3729871   0.1239344  )
        30           Mo  tau(  30) = (   0.0286728   0.7631204   0.2856894  )
        31           S   tau(  31) = (   0.2011512   0.6675435   0.4465001  )
        32           S   tau(  32) = (   0.1969214   0.6672839   0.1104564  )
        33           Mo  tau(  33) = (   0.1950294   1.0511147   0.2932237  )
        34           S   tau(  34) = (   0.0312912   0.9612169   0.4667423  )
        35           S   tau(  35) = (   0.0292670   0.9563028   0.1216485  )
        36           H   tau(  36) = (   0.2222222   0.5136314   0.5650415  )

     number of k points=     1  Gaussian smearing, width (Ry)=  0.0100
                       cart. coord. in units 2pi/alat
        k(    1) = (   0.0000000   0.0000000   0.0000000), wk =   2.0000000

     Dense  grid:  1177734 G-vectors     FFT dimensions: ( 120, 135, 320)

     Smooth grid:   842757 G-vectors     FFT dimensions: ( 108, 120, 270)

     Estimated max dynamical RAM per process >     146.59 MB

     Estimated total dynamical RAM >       6.87 GB

     Initial potential from superposition of free atoms

     starting charge     306.9873, renormalised to     307.0000

     negative rho (up, down):  1.406E-04 0.000E+00


---------------------------------------------------------------------------------
Carrying out rVV10 run using the following parameters:
Nqs =      20    Nr_points =    1024   r_max =   100.000
b_value =  6.30000    beta =  0.00901
     q_mesh =  0.00010000  0.00030000  0.00058939  0.00100810
               0.00161396  0.00249058  0.00375900  0.00559430
               0.00824984  0.01209221  0.01765183  0.02569619
               0.03733578  0.05417739  0.07854596  0.11380545
               0.16482331  0.23864234  0.34545298  0.50000000

Gradients computed in Reciprocal space

---------------------------------------------------------------------------------


     Starting wfcs are  213 randomized atomic wfcs

     total cpu time spent up to now is        3.8 secs

     Self-consistent Calculation

     iteration #  1     ecut=    80.00 Ry     beta= 0.70
     Davidson diagonalization with overlap
     ethr =  1.00E-02,  avg # of iterations =  2.0

     Threshold (ethr) on eigenvalues was too large:
     Diagonalizing with lowered threshold

     Davidson diagonalization with overlap
     ethr =  3.60E-04,  avg # of iterations =  4.0

     negative rho (up, down):  1.609E-08 0.000E+00

     total cpu time spent up to now is       24.4 secs

     total energy              =   -2205.57992254 Ry
     estimated scf accuracy    <       1.39515297 Ry

     iteration #  2     ecut=    80.00 Ry     beta= 0.70
     Davidson diagonalization with overlap
     ethr =  4.54E-04,  avg # of iterations =  2.0

     total cpu time spent up to now is       26.8 secs

     total energy              =   -2205.43074712 Ry
     estimated scf accuracy    <       0.55492062 Ry

     iteration #  3     ecut=    80.00 Ry     beta= 0.70
     Davidson diagonalization with overlap
     ethr =  1.81E-04,  avg # of iterations =  2.0

     total cpu time spent up to now is       29.2 secs

     total energy              =   -2205.50878425 Ry
     estimated scf accuracy    <       0.07162286 Ry

     iteration #  4     ecut=    80.00 Ry     beta= 0.70
     Davidson diagonalization with overlap
     c_bands:  1 eigenvalues not converged
     ethr =  2.33E-05,  avg # of iterations = 20.0

     total cpu time spent up to now is       32.8 secs

     total energy              =   -2205.51371719 Ry
     estimated scf accuracy    <       0.02738622 Ry

     iteration #  5     ecut=    80.00 Ry     beta= 0.70
     Davidson diagonalization with overlap
     ethr =  8.92E-06,  avg # of iterations = 10.0

     total cpu time spent up to now is       35.3 secs

     total energy              =   -2205.51418553 Ry
     estimated scf accuracy    <       0.01877198 Ry

     iteration #  6     ecut=    80.00 Ry     beta= 0.70
     Davidson diagonalization with overlap
     ethr =  6.11E-06,  avg # of iterations =  2.0

     total cpu time spent up to now is       37.5 secs

     total energy              =   -2205.51313370 Ry
     estimated scf accuracy    <       0.01255499 Ry

     iteration #  7     ecut=    80.00 Ry     beta= 0.70
     Davidson diagonalization with overlap
     ethr =  4.09E-06,  avg # of iterations =  1.0

     negative rho (up, down):  3.815E-07 0.000E+00

     total cpu time spent up to now is       40.7 secs

     total energy              =   -2205.51127056 Ry
     estimated scf accuracy    <       0.00771588 Ry

     iteration #  8     ecut=    80.00 Ry     beta= 0.70
     Davidson diagonalization with overlap
     ethr =  2.51E-06,  avg # of iterations =  2.0

     negative rho (up, down):  8.765E-03 0.000E+00

     total cpu time spent up to now is       44.8 secs

     total energy              =   -2205.51100745 Ry
     estimated scf accuracy    <       0.00340765 Ry

     iteration #  9     ecut=    80.00 Ry     beta= 0.70
     Davidson diagonalization with overlap
     ethr =  1.11E-06,  avg # of iterations =  2.0

     negative rho (up, down):  3.313E-02 0.000E+00

     total cpu time spent up to now is       49.8 secs

     total energy              =   -2205.51099450 Ry
     estimated scf accuracy    <       0.00201046 Ry

     iteration # 10     ecut=    80.00 Ry     beta= 0.70
     Davidson diagonalization with overlap
     ethr =  6.55E-07,  avg # of iterations =  2.0

     negative rho (up, down):  2.812E-02 0.000E+00

     total cpu time spent up to now is       54.6 secs

     total energy              =   -2205.51108172 Ry
     estimated scf accuracy    <       0.00057075 Ry

     iteration # 11     ecut=    80.00 Ry     beta= 0.70
     Davidson diagonalization with overlap
     ethr =  1.86E-07,  avg # of iterations =  2.0

     negative rho (up, down):  9.463E-03 0.000E+00

     total cpu time spent up to now is       60.2 secs

     total energy              =   -2205.51111559 Ry
     estimated scf accuracy    <       0.00013927 Ry

     iteration # 12     ecut=    80.00 Ry     beta= 0.70
     Davidson diagonalization with overlap
     ethr =  4.54E-08,  avg # of iterations =  5.0

     negative rho (up, down):  3.884E-03 0.000E+00

     total cpu time spent up to now is       66.6 secs

     total energy              =   -2205.51116393 Ry
     estimated scf accuracy    <       0.00001534 Ry

     iteration # 13     ecut=    80.00 Ry     beta= 0.70
     Davidson diagonalization with overlap
     ethr =  5.00E-09,  avg # of iterations =  5.0

     negative rho (up, down):  4.383E-04 0.000E+00

     total cpu time spent up to now is       76.3 secs

     total energy              =   -2205.51117084 Ry
     estimated scf accuracy    <       0.00000324 Ry

     iteration # 14     ecut=    80.00 Ry     beta= 0.70
     Davidson diagonalization with overlap
     ethr =  1.06E-09,  avg # of iterations =  4.0

     negative rho (up, down):  1.371E-04 0.000E+00

     total cpu time spent up to now is       78.5 secs

     End of self-consistent calculation

          k = 0.0000 0.0000 0.0000 (105382 PWs)   bands (ev):

   -62.8867 -62.8768 -62.8666 -62.8498 -62.8461 -62.8406 -62.8373 -62.8268
   -62.8250 -62.7850 -62.7707 -62.7246 -37.2332 -37.1700 -37.1561 -37.1513
   -37.1391 -37.1174 -37.0924 -37.0884 -37.0723 -37.0676 -37.0620 -37.0531
   -37.0468 -37.0382 -37.0324 -37.0310 -37.0216 -37.0190 -37.0141 -37.0071
   -36.9837 -36.9701 -36.9541 -36.9419 -36.9353 -36.9272 -36.9163 -36.9012
   -36.8930 -36.8879 -36.8714 -36.8640 -36.8575 -36.8212 -36.7525 -36.6986
   -16.0231 -15.3125 -15.1887 -15.0383 -14.9105 -14.8218 -14.6434 -14.5596
   -14.4585 -14.4137 -14.3847 -14.3417 -14.3252 -14.2936 -14.1908 -14.1545
   -14.1398 -14.1018 -14.0351 -13.9263 -13.8476 -13.8284 -13.8038  -8.0875
    -7.6161  -7.4049  -7.3218  -7.2680  -7.2615  -7.1893  -7.1655  -7.0939
    -6.8454  -6.8215  -6.7499  -6.6852  -6.5433  -6.5388  -6.4369  -6.4170
    -6.2797  -6.2657  -6.0327  -5.9905  -5.9510  -5.8920  -5.8432  -5.7791
    -5.7599  -5.7167  -5.7006  -5.6707  -5.6287  -5.5850  -5.5403  -5.4908
    -5.4692  -5.4068  -5.1872  -5.1694  -5.0772  -5.0042  -4.9905  -4.9475
    -4.9212  -4.8581  -4.6954  -4.5419  -4.3681  -4.3264  -4.2860  -4.2527
    -4.1978  -4.0449  -4.0067  -3.8859  -3.8281  -3.7983  -3.7469  -3.7010
    -3.6750  -3.5716  -3.5615  -3.5216  -3.4847  -3.4658  -3.4478  -3.4112
    -3.3681  -3.2243  -3.1484  -2.9013  -2.8859  -2.8027  -2.7737  -2.7340
    -2.7266  -2.7220  -2.6547  -2.6385  -2.5877  -2.2838  -2.1649  -2.0022
    -1.9813  -1.0525  -0.8222  -0.6244  -0.1886  -0.1438  -0.0916  -0.0751
     0.0620   0.1373   0.1839   0.2268   0.2639   0.2854   0.3599   0.4080
     0.4476   0.5151   0.5434   0.5963   0.6151   0.6608   0.6910   0.7502
     0.7750   0.8107   0.8234   0.8765   0.9317   0.9771   1.0436   1.1021
     1.3738

     the Fermi energy is    -1.0544 ev

!    total energy              =   -2205.51117339 Ry
     estimated scf accuracy    <       0.00000028 Ry
     smearing contrib. (-TS)   =      -0.00594743 Ry
     internal energy E=F+TS    =   -2205.50522595 Ry

     The total energy is F=E-TS. E is the sum of the following terms:
     one-electron contribution =  -18046.08652094 Ry
     hartree contribution      =    9009.70082790 Ry
     xc contribution           =    -385.21898456 Ry
     ewald contribution        =    7216.09945165 Ry

     convergence has been achieved in  14 iterations

     negative rho (up, down):  1.371E-04 0.000E+00

     Forces acting on atoms (cartesian axes, Ry/au):

     atom    1 type  1   force =     0.01258140   -0.02399879    0.00654552
     atom    2 type  2   force =    -0.01581865    0.01742149    0.00003748
     atom    3 type  2   force =    -0.01142452    0.00874958   -0.00206172
     atom    4 type  1   force =     0.00696063    0.00388340   -0.00072959
     atom    5 type  2   force =    -0.00017469   -0.00658310   -0.00815294
     atom    6 type  2   force =     0.00384326    0.00918266   -0.00117894
     atom    7 type  1   force =     0.01011499   -0.00643042   -0.00925463
     atom    8 type  2   force =    -0.00211913   -0.00221309    0.01543883
     atom    9 type  2   force =     0.01388703    0.00379262    0.01194171
     atom   10 type  1   force =    -0.01182998    0.00954096   -0.02712830
     atom   11 type  2   force =     0.00482878   -0.00234881   -0.00531434
     atom   12 type  2   force =    -0.00134100    0.00156862    0.00714826
     atom   13 type  1   force =     0.00352323    0.00649896   -0.00856650
     atom   14 type  2   force =     0.00843714   -0.00129865    0.01186554
     atom   15 type  2   force =    -0.01357901    0.00251566   -0.00874067
     atom   16 type  1   force =    -0.00741131    0.01158175    0.00398329
     atom   17 type  2   force =    -0.00299389    0.01611733    0.02101180
     atom   18 type  2   force =    -0.00279610   -0.00624115    0.01120545
     atom   19 type  1   force =    -0.00299725   -0.01738740   -0.00689583
     atom   20 type  2   force =     0.00189120   -0.00463293    0.00281965
     atom   21 type  1   force =    -0.00070316    0.00414900   -0.00037274
     atom   22 type  2   force =    -0.00421301    0.00192671   -0.00482727
     atom   23 type  2   force =     0.00070243    0.00398596    0.00777433
     atom   24 type  1   force =    -0.01031559   -0.00213457   -0.02187991
     atom   25 type  2   force =     0.01631291    0.01608728    0.00661359
     atom   26 type  2   force =    -0.00924539   -0.00049607   -0.00378751
     atom   27 type  1   force =    -0.00408108   -0.00684490   -0.02779613
     atom   28 type  2   force =    -0.00015936   -0.00277668   -0.00492670
     atom   29 type  2   force =     0.00260956   -0.00020534   -0.00383541
     atom   30 type  1   force =    -0.00949115    0.00698859    0.00022529
     atom   31 type  2   force =     0.01686567   -0.03255347    0.04923968
     atom   32 type  2   force =    -0.00758501    0.00680503    0.00647325
     atom   33 type  1   force =     0.01277002   -0.01033817   -0.00731680
     atom   34 type  2   force =     0.00276132   -0.03945810   -0.00993229
     atom   35 type  2   force =    -0.00854657    0.00727542    0.01434658
     atom   36 type  3   force =     0.00873626    0.02787061   -0.01397206
     The non-local contrib.  to forces
     atom    1 type  1   force =     0.00066050    0.03022118   -0.01131315
     atom    2 type  2   force =    -0.01355482    0.00363059   -0.27111480
     atom    3 type  2   force =    -0.01467907   -0.00269737    0.26955484
     atom    4 type  1   force =     0.00011695    0.00293965    0.00459210
     atom    5 type  2   force =     0.00748935   -0.03335976   -0.25211381
     atom    6 type  2   force =    -0.00149275    0.01412338    0.26363990
     atom    7 type  1   force =    -0.02534711    0.00233644   -0.01081370
     atom    8 type  2   force =     0.00353460   -0.00285273   -0.25150190
     atom    9 type  2   force =     0.01324973   -0.00720792    0.27926537
     atom   10 type  1   force =     0.00226213    0.00320692   -0.00077651
     atom   11 type  2   force =     0.01392117    0.00584846   -0.25852248
     atom   12 type  2   force =    -0.01145264   -0.01699212    0.26325727
     atom   13 type  1   force =    -0.00246730    0.01600036   -0.01395712
     atom   14 type  2   force =     0.01313480   -0.01101215   -0.26244399
     atom   15 type  2   force =    -0.01408212   -0.00586529    0.26054000
     atom   16 type  1   force =    -0.00807788    0.02713033   -0.02416815
     atom   17 type  2   force =    -0.04616808    0.01966182   -0.16508494
     atom   18 type  2   force =    -0.00624674   -0.00243510    0.27515843
     atom   19 type  1   force =     0.01283528   -0.00913955   -0.01057559
     atom   20 type  2   force =    -0.00358793   -0.02289132    0.26646653
     atom   21 type  1   force =     0.00472205    0.02475914    0.00508928
     atom   22 type  2   force =    -0.00629962    0.00716292   -0.25639218
     atom   23 type  2   force =     0.00682137   -0.01495771    0.26892496
     atom   24 type  1   force =     0.00689817    0.01459613   -0.01126694
     atom   25 type  2   force =     0.00866060    0.00211454   -0.26169713
     atom   26 type  2   force =     0.00028740   -0.01210476    0.26247330
     atom   27 type  1   force =    -0.00169145    0.00531693    0.01040517
     atom   28 type  2   force =    -0.00620026   -0.02291055   -0.25588469
     atom   29 type  2   force =     0.00592075    0.00165481    0.26589754
     atom   30 type  1   force =    -0.00026328    0.01350150   -0.00229570
     atom   31 type  2   force =    -0.00153739   -0.14346255   -0.07547720
     atom   32 type  2   force =    -0.00367568   -0.01147371    0.27611670
     atom   33 type  1   force =    -0.00456756    0.01141811    0.00414943
     atom   34 type  2   force =    -0.00016032   -0.03266673   -0.26993559
     atom   35 type  2   force =    -0.00324257   -0.01210257    0.27130828
     atom   36 type  3   force =     0.00137965    0.00731426   -0.01060683
     The ionic contribution  to forces
     atom    1 type  1   force =     0.40470112    0.12463414    5.67754745
     atom    2 type  2   force =    -0.69764109    0.35039648   39.28310040
     atom    3 type  2   force =    -0.17548026   -0.00495183  -36.08145046
     atom    4 type  1   force =    -0.08744657    0.54984303    0.51341403
     atom    5 type  2   force =    -0.93320017    1.45026879   38.72800942
     atom    6 type  2   force =     0.35111170   -0.51827406  -38.04307134
     atom    7 type  1   force =    -2.58702499   -2.67166156    2.52321957
     atom    8 type  2   force =    -1.10324228    0.10936695   37.35159143
     atom    9 type  2   force =     0.31915409   -0.01363092  -38.02880846
     atom   10 type  1   force =    -1.13763314   -0.28762727    5.67896097
     atom   11 type  2   force =    -0.55375706   -1.56376571   39.14478747
     atom   12 type  2   force =     0.44439702    0.70876985  -37.84425287
     atom   13 type  1   force =     0.58134403    0.73913335    2.70520652
     atom   14 type  2   force =     0.10273128   -0.07135916   38.51595082
     atom   15 type  2   force =     0.17155697   -0.08620232  -36.80366077
     atom   16 type  1   force =     0.22379999    3.91049562    0.25089840
     atom   17 type  2   force =     1.28855053    1.06368832   37.56179907
     atom   18 type  2   force =    -0.13190124   -0.67969989  -38.64041590
     atom   19 type  1   force =     2.86536853   -2.16486313    0.40085854
     atom   20 type  2   force =     0.25825928   -0.17172854  -38.51293010
     atom   21 type  1   force =     0.08570917    0.08165652    1.17239118
     atom   22 type  2   force =     0.49874813   -1.61305000   38.41689294
     atom   23 type  2   force =    -0.07588403    0.69127289  -38.29665724
     atom   24 type  1   force =    -0.67066335    0.91591829    5.71801363
     atom   25 type  2   force =     0.64749480    0.15513894   39.25007323
     atom   26 type  2   force =    -0.29137957    0.03107377  -37.34832536
     atom   27 type  1   force =    -0.06115312    0.27340006   -3.16800107
     atom   28 type  2   force =    -0.35479690    0.72755026   37.99372396
     atom   29 type  2   force =    -0.30229481   -0.46047830  -37.33177949
     atom   30 type  1   force =    -0.51126815   -0.65263293   -0.24190908
     atom   31 type  2   force =     1.12339676    0.70616286   36.76236826
     atom   32 type  2   force =    -0.48682761    0.03612443  -38.72115587
     atom   33 type  1   force =     0.78374967   -0.80866987    2.03994960
     atom   34 type  2   force =     0.19552349   -1.35978015   39.34757960
     atom   35 type  2   force =    -0.31390204    0.50247019  -37.81893035
     atom   36 type  3   force =     0.12989985    0.00101091    7.84501187
     The local contribution  to forces
     atom    1 type  1   force =    -0.39292395   -0.17888749   -5.65929790
     atom    2 type  2   force =     0.69495242   -0.33636371  -39.03270027
     atom    3 type  2   force =     0.17804560    0.01639614   35.83096815
     atom    4 type  1   force =     0.09448473   -0.54890806   -0.51841485
     atom    5 type  2   force =     0.92614955   -1.42546028  -38.50441261
     atom    6 type  2   force =    -0.34611503    0.51455371   37.79941695
     atom    7 type  1   force =     2.62265200    2.66310001   -2.52148357
     atom    8 type  2   force =     1.09794933   -0.10911317  -37.10491992
     atom    9 type  2   force =    -0.31795616    0.02422615   37.78277705
     atom   10 type  1   force =     1.12356347    0.29392167   -5.70491557
     atom   11 type  2   force =     0.54532402    1.55623295  -38.91208062
     atom   12 type  2   force =    -0.43540219   -0.69159490   37.60916468
     atom   13 type  1   force =    -0.57527682   -0.74849801   -2.69942997
     atom   14 type  2   force =    -0.10673642    0.08105369  -38.26230033
     atom   15 type  2   force =    -0.17179443    0.09423770   36.55524742
     atom   16 type  1   force =    -0.22334395   -3.92644982   -0.22251349
     atom   17 type  2   force =    -1.24804758   -1.06612169  -37.39164026
     atom   18 type  2   force =     0.13519824    0.67646416   38.39785679
     atom   19 type  1   force =    -2.88159756    2.15666130   -0.39690646
     atom   20 type  2   force =    -0.25311092    0.18910111   38.27063447
     atom   21 type  1   force =    -0.09114251   -0.10215308   -1.17750514
     atom   22 type  2   force =    -0.49690634    1.60842914  -38.18577929
     atom   23 type  2   force =     0.07031644   -0.67359592   38.05669313
     atom   24 type  1   force =     0.65351023   -0.93258956   -5.72816026
     atom   25 type  2   force =    -0.63978643   -0.14086915  -39.00251240
     atom   26 type  2   force =     0.28215821   -0.02012632   37.10316748
     atom   27 type  1   force =     0.05878655   -0.28542870    3.13007052
     atom   28 type  2   force =     0.36069035   -0.70900711  -37.76276850
     atom   29 type  2   force =     0.29959037    0.45922262   37.08303373
     atom   30 type  1   force =     0.50224184    0.64606850    0.24474563
     atom   31 type  2   force =    -1.10507914   -0.60328553  -36.64881806
     atom   32 type  2   force =     0.48294830   -0.01850262   38.47298617
     atom   33 type  1   force =    -0.76641767    0.78675662   -2.05104025
     atom   34 type  2   force =    -0.19288087    1.35195345  -39.10855643
     atom   35 type  2   force =     0.30867736   -0.48429349   37.58336022
     atom   36 type  3   force =    -0.12255327    0.01953889   -7.84837517
     The core correction contribution to forces
     atom    1 type  1   force =     0.00000000    0.00000000    0.00000000
     atom    2 type  2   force =     0.00040517   -0.00023111    0.02078182
     atom    3 type  2   force =     0.00065721    0.00002432   -0.02086354
     atom    4 type  1   force =     0.00000000    0.00000000    0.00000000
     atom    5 type  2   force =    -0.00064740    0.00183778    0.02032261
     atom    6 type  2   force =     0.00024991   -0.00125171   -0.02091516
     atom    7 type  1   force =     0.00000000    0.00000000    0.00000000
     atom    8 type  2   force =    -0.00018380    0.00044777    0.02024001
     atom    9 type  2   force =    -0.00045395    0.00047599   -0.02109173
     atom   10 type  1   force =     0.00000000    0.00000000    0.00000000
     atom   11 type  2   force =    -0.00065004   -0.00056057    0.02055102
     atom   12 type  2   force =     0.00108499    0.00137254   -0.02082818
     atom   13 type  1   force =     0.00000000    0.00000000    0.00000000
     atom   14 type  2   force =    -0.00065284    0.00002439    0.02062671
     atom   15 type  2   force =     0.00076463    0.00035594   -0.02055071
     atom   16 type  1   force =     0.00000000    0.00000000    0.00000000
     atom   17 type  2   force =     0.00264269   -0.00115986    0.01581308
     atom   18 type  2   force =     0.00014121   -0.00050745   -0.02108858
     atom   19 type  1   force =     0.00000000    0.00000000    0.00000000
     atom   20 type  2   force =     0.00028423    0.00087521   -0.02122615
     atom   21 type  1   force =     0.00000000    0.00000000    0.00000000
     atom   22 type  2   force =     0.00019672   -0.00057595    0.02041970
     atom   23 type  2   force =    -0.00055653    0.00122905   -0.02094029
     atom   24 type  1   force =     0.00000000    0.00000000    0.00000000
     atom   25 type  2   force =    -0.00007399   -0.00027832    0.02074399
     atom   26 type  2   force =    -0.00029329    0.00066700   -0.02081784
     atom   27 type  1   force =     0.00000000    0.00000000    0.00000000
     atom   28 type  2   force =     0.00021742    0.00156947    0.01996523
     atom   29 type  2   force =    -0.00050539   -0.00055066   -0.02070464
     atom   30 type  1   force =     0.00000000    0.00000000    0.00000000
     atom   31 type  2   force =    -0.00002478    0.00807910    0.01101749
     atom   32 type  2   force =    -0.00008814    0.00064362   -0.02114943
     atom   33 type  1   force =     0.00000000    0.00000000    0.00000000
     atom   34 type  2   force =     0.00031195    0.00098233    0.02095177
     atom   35 type  2   force =    -0.00004689    0.00106401   -0.02111164
     atom   36 type  3   force =     0.00000000    0.00000000    0.00000000
     The Hubbard contrib.    to forces
     atom    1 type  1   force =     0.00000000    0.00000000    0.00000000
     atom    2 type  2   force =     0.00000000    0.00000000    0.00000000
     atom    3 type  2   force =     0.00000000    0.00000000    0.00000000
     atom    4 type  1   force =     0.00000000    0.00000000    0.00000000
     atom    5 type  2   force =     0.00000000    0.00000000    0.00000000
     atom    6 type  2   force =     0.00000000    0.00000000    0.00000000
     atom    7 type  1   force =     0.00000000    0.00000000    0.00000000
     atom    8 type  2   force =     0.00000000    0.00000000    0.00000000
     atom    9 type  2   force =     0.00000000    0.00000000    0.00000000
     atom   10 type  1   force =     0.00000000    0.00000000    0.00000000
     atom   11 type  2   force =     0.00000000    0.00000000    0.00000000
     atom   12 type  2   force =     0.00000000    0.00000000    0.00000000
     atom   13 type  1   force =     0.00000000    0.00000000    0.00000000
     atom   14 type  2   force =     0.00000000    0.00000000    0.00000000
     atom   15 type  2   force =     0.00000000    0.00000000    0.00000000
     atom   16 type  1   force =     0.00000000    0.00000000    0.00000000
     atom   17 type  2   force =     0.00000000    0.00000000    0.00000000
     atom   18 type  2   force =     0.00000000    0.00000000    0.00000000
     atom   19 type  1   force =     0.00000000    0.00000000    0.00000000
     atom   20 type  2   force =     0.00000000    0.00000000    0.00000000
     atom   21 type  1   force =     0.00000000    0.00000000    0.00000000
     atom   22 type  2   force =     0.00000000    0.00000000    0.00000000
     atom   23 type  2   force =     0.00000000    0.00000000    0.00000000
     atom   24 type  1   force =     0.00000000    0.00000000    0.00000000
     atom   25 type  2   force =     0.00000000    0.00000000    0.00000000
     atom   26 type  2   force =     0.00000000    0.00000000    0.00000000
     atom   27 type  1   force =     0.00000000    0.00000000    0.00000000
     atom   28 type  2   force =     0.00000000    0.00000000    0.00000000
     atom   29 type  2   force =     0.00000000    0.00000000    0.00000000
     atom   30 type  1   force =     0.00000000    0.00000000    0.00000000
     atom   31 type  2   force =     0.00000000    0.00000000    0.00000000
     atom   32 type  2   force =     0.00000000    0.00000000    0.00000000
     atom   33 type  1   force =     0.00000000    0.00000000    0.00000000
     atom   34 type  2   force =     0.00000000    0.00000000    0.00000000
     atom   35 type  2   force =     0.00000000    0.00000000    0.00000000
     atom   36 type  3   force =     0.00000000    0.00000000    0.00000000
     The SCF correction term to forces
     atom    1 type  1   force =     0.00014375    0.00003058   -0.00038345
     atom    2 type  2   force =     0.00001968   -0.00001355   -0.00002224
     atom    3 type  2   force =     0.00003201   -0.00002447   -0.00026328
     atom    4 type  1   force =    -0.00019446    0.00000600   -0.00031344
     atom    5 type  2   force =     0.00003398    0.00012759    0.00004888
     atom    6 type  2   force =     0.00008943    0.00002855   -0.00024187
     atom    7 type  1   force =    -0.00016490   -0.00020809   -0.00016950
     atom    8 type  2   force =    -0.00017697   -0.00006470    0.00003663
     atom    9 type  2   force =    -0.00010666   -0.00007347   -0.00019309
     atom   10 type  1   force =    -0.00002243    0.00003684   -0.00038976
     atom   11 type  2   force =    -0.00000929   -0.00010673   -0.00004229
     atom   12 type  2   force =     0.00003182    0.00001045   -0.00018521
     atom   13 type  1   force =    -0.00007666   -0.00013953   -0.00037851
     atom   14 type  2   force =    -0.00003967   -0.00000822    0.00003977
     atom   15 type  2   force =    -0.00002406   -0.00001316   -0.00030918
     atom   16 type  1   force =     0.00021055    0.00040283   -0.00022604
     atom   17 type  2   force =     0.00002857    0.00004595    0.00013228
     atom   18 type  2   force =     0.00001244   -0.00006567   -0.00029786
     atom   19 type  1   force =     0.00039650   -0.00004881   -0.00026489
     atom   20 type  2   force =     0.00004655    0.00000783   -0.00011766
     atom   21 type  1   force =     0.00000814   -0.00011638   -0.00034062
     atom   22 type  2   force =     0.00004811   -0.00004219    0.00003900
     atom   23 type  2   force =     0.00000520    0.00003486   -0.00023880
     atom   24 type  1   force =    -0.00006062   -0.00006223   -0.00045891
     atom   25 type  2   force =     0.00001794   -0.00002152    0.00001334
     atom   26 type  2   force =    -0.00001813   -0.00000856   -0.00027767
     atom   27 type  1   force =    -0.00002305   -0.00013598   -0.00026332
     atom   28 type  2   force =    -0.00006997    0.00001846    0.00004473
     atom   29 type  2   force =    -0.00010135   -0.00005660   -0.00027512
     atom   30 type  1   force =    -0.00020155    0.00004871   -0.00030814
     atom   31 type  2   force =     0.00011023   -0.00005014    0.00015663
     atom   32 type  2   force =     0.00005812    0.00001051   -0.00031689
     atom   33 type  1   force =     0.00000559    0.00015418   -0.00036816
     atom   34 type  2   force =    -0.00003292    0.00005020    0.00003578
     atom   35 type  2   force =    -0.00003242    0.00013449   -0.00027250
     atom   36 type  3   force =     0.00001005    0.00000375    0.00000550

     Total force =     0.124574     Total SCF correction =     0.001719

     BFGS Geometry Optimization
     Energy error            =      0.0E+00 Ry
     Gradient error          =      4.9E-02 Ry/Bohr

     number of scf cycles    =   1
     number of bfgs steps    =   0

     energy             new  =   -2205.5111733875 Ry

     new trust radius        =       0.0613899457 bohr
     new conv_thr            =       0.0000010000 Ry


ATOMIC_POSITIONS (angstrom)
Mo            6.5812062011        1.7751066145        2.8271067743
S             8.1683384688        0.8189230810        4.4345581858
S             8.1871874916        0.8158718223        1.2767924086
Mo            8.0988459709        4.4971119532        2.7174323118
S             6.4998168127        3.7189278632        4.3423463001
S             6.5553835645        3.5165968087        1.1206563591
Mo            6.4953343181        7.2150344534        2.6669871464
S             8.0806063332        6.3426998745        4.2506314378
S             8.0882663473        6.3067092854        1.0901822798
Mo            8.1543588942        9.9072292694        2.8291060844
S             6.4977228776        8.9416838777        4.3802933076
S             6.6172375728        9.0495412930        1.1436899991
Mo            3.4235240783        1.7503949516        2.7719379648
S             4.9796302322        0.8162539946        4.3568120686
S             5.0506480514        0.8475933375        1.2220330977
Mo            4.9758347863        4.5193067999        2.6349924156
S             3.4262573641        3.6801286085        4.2908285457
S             3.4364409463        3.5449260233        1.0642813532
Mo            3.4522756631        7.2071235221        2.6270277460
S             4.9842349730        6.3244806461        1.0387458269
Mo            5.0118918224        9.9037956076        2.7432037172
S             3.4687286884        8.9447708419        4.3230368318
S             3.4088008757        9.0670992612        1.1001822988
Mo            0.2906317108        1.7463799650        2.8378663582
S             1.8590946345        0.8012070308        4.4017092015
S             1.8559075846        0.8541634109        1.2073965925
Mo            1.8585316923        4.4920445977        2.6454883024
S             0.2721295180        3.6529294726        4.3349770028
S             0.2326121284        3.5271405627        1.1699882727
Mo            0.2661296516        7.2203442943        2.7018156438
S             1.9111631765        6.2955722829        4.2485006398
S             1.8582244013        6.3139448795        1.0479847774
Mo            1.8511042687        9.9346684310        2.7690743670
S             0.2973741292        9.0691175001        4.4086135218
S             0.2722487503        9.0473757031        1.1579926652
H             2.1061252540        4.8720373783        5.3360680653



     Writing config-only to output data dir ./MoS2-V-O.save/
     NEW-OLD atomic charge density approx. for the potential

     negative rho (up, down):  1.444E-04 0.000E+00

     total cpu time spent up to now is       81.8 secs

     Self-consistent Calculation

     iteration #  1     ecut=    80.00 Ry     beta= 0.70
     Davidson diagonalization with overlap
     ethr =  1.00E-06,  avg # of iterations =  8.0

     negative rho (up, down):  1.054E-04 0.000E+00

     total cpu time spent up to now is       93.7 secs

     total energy              =   -2205.52419365 Ry
     estimated scf accuracy    <       0.00131378 Ry

     iteration #  2     ecut=    80.00 Ry     beta= 0.70
     Davidson diagonalization with overlap
     ethr =  4.28E-07,  avg # of iterations =  2.0

     negative rho (up, down):  9.845E-05 0.000E+00

     total cpu time spent up to now is      107.8 secs

     total energy              =   -2205.52421977 Ry
     estimated scf accuracy    <       0.00027363 Ry

     iteration #  3     ecut=    80.00 Ry     beta= 0.70
     Davidson diagonalization with overlap
     ethr =  8.91E-08,  avg # of iterations =  5.0

     negative rho (up, down):  9.670E-05 0.000E+00

     total cpu time spent up to now is      122.1 secs

     total energy              =   -2205.52425086 Ry
     estimated scf accuracy    <       0.00005397 Ry

     iteration #  4     ecut=    80.00 Ry     beta= 0.70
     Davidson diagonalization with overlap
     ethr =  1.76E-08,  avg # of iterations =  5.0

     negative rho (up, down):  9.408E-05 0.000E+00

     total cpu time spent up to now is      137.6 secs

     total energy              =   -2205.52426075 Ry
     estimated scf accuracy    <       0.00000510 Ry

     iteration #  5     ecut=    80.00 Ry     beta= 0.70
     Davidson diagonalization with overlap
     ethr =  1.66E-09,  avg # of iterations =  5.0

     negative rho (up, down):  9.059E-05 0.000E+00

     total cpu time spent up to now is      153.2 secs

     total energy              =   -2205.52426241 Ry
     estimated scf accuracy    <       0.00000164 Ry

     iteration #  6     ecut=    80.00 Ry     beta= 0.70
     Davidson diagonalization with overlap
     ethr =  5.35E-10,  avg # of iterations =  2.0

     negative rho (up, down):  1.373E-04 0.000E+00

     total cpu time spent up to now is      155.2 secs

     End of self-consistent calculation

          k = 0.0000 0.0000 0.0000 (105382 PWs)   bands (ev):

   -62.8842 -62.8705 -62.8613 -62.8459 -62.8418 -62.8372 -62.8343 -62.8237
   -62.8172 -62.7829 -62.7662 -62.7172 -37.2270 -37.1628 -37.1521 -37.1451
   -37.1305 -37.1141 -37.0875 -37.0819 -37.0667 -37.0656 -37.0570 -37.0481
   -37.0419 -37.0336 -37.0279 -37.0268 -37.0153 -37.0141 -37.0095 -36.9995
   -36.9819 -36.9655 -36.9506 -36.9362 -36.9301 -36.9220 -36.9128 -36.8961
   -36.8882 -36.8826 -36.8664 -36.8596 -36.8519 -36.8174 -36.7484 -36.6937
   -16.0195 -15.3213 -15.1795 -15.0332 -14.8998 -14.8216 -14.6440 -14.5415
   -14.4423 -14.4122 -14.3885 -14.3325 -14.3246 -14.2910 -14.1802 -14.1499
   -14.1372 -14.1064 -14.0352 -13.9068 -13.8501 -13.8299 -13.8095  -8.1318
    -7.6080  -7.3996  -7.3162  -7.2618  -7.2491  -7.1864  -7.1668  -7.1024
    -6.8383  -6.8140  -6.7394  -6.6725  -6.5429  -6.5301  -6.4295  -6.4043
    -6.2724  -6.2626  -6.0416  -5.9850  -5.9320  -5.8815  -5.8397  -5.7732
    -5.7550  -5.7109  -5.6995  -5.6762  -5.6251  -5.5803  -5.5436  -5.4858
    -5.4526  -5.3813  -5.1780  -5.1481  -5.0651  -5.0071  -4.9808  -4.9433
    -4.9214  -4.8613  -4.6874  -4.5365  -4.3644  -4.3228  -4.2820  -4.2524
    -4.2049  -4.0492  -4.0078  -3.9045  -3.8086  -3.7916  -3.7404  -3.6968
    -3.6838  -3.5628  -3.5547  -3.5184  -3.4862  -3.4661  -3.4417  -3.4150
    -3.3717  -3.2288  -3.1476  -2.8855  -2.8794  -2.7889  -2.7708  -2.7336
    -2.7326  -2.7037  -2.6615  -2.6375  -2.5815  -2.2753  -2.1667  -2.0024
    -1.9836  -1.0491  -0.8039  -0.6356  -0.1742  -0.1329  -0.0964  -0.0756
     0.0757   0.1414   0.1896   0.2438   0.2742   0.3035   0.3672   0.4115
     0.4527   0.5144   0.5462   0.6019   0.6100   0.6748   0.7045   0.7363
     0.7744   0.8168   0.8380   0.8773   0.9382   0.9776   1.0441   1.1335
     1.3865

     the Fermi energy is    -1.0504 ev

!    total energy              =   -2205.52426220 Ry
     estimated scf accuracy    <       0.00000067 Ry
     smearing contrib. (-TS)   =      -0.00585408 Ry
     internal energy E=F+TS    =   -2205.51840812 Ry

     The total energy is F=E-TS. E is the sum of the following terms:
     one-electron contribution =  -18044.50935713 Ry
     hartree contribution      =    9008.95729949 Ry
     xc contribution           =    -385.21461738 Ry
     ewald contribution        =    7215.24826691 Ry

     convergence has been achieved in   6 iterations

     negative rho (up, down):  1.373E-04 0.000E+00

     Forces acting on atoms (cartesian axes, Ry/au):

     atom    1 type  1   force =     0.00269343   -0.01198874    0.00033197
     atom    2 type  2   force =    -0.00983964    0.01104708   -0.00181996
     atom    3 type  2   force =    -0.01073632    0.00730443   -0.00828895
     atom    4 type  1   force =     0.00534121    0.00313798    0.00163461
     atom    5 type  2   force =     0.00053826   -0.00625350   -0.00831683
     atom    6 type  2   force =     0.00259387    0.00603590    0.00186027
     atom    7 type  1   force =     0.00769788   -0.00545181   -0.00287628
     atom    8 type  2   force =    -0.00188524   -0.00251520    0.01195060
     atom    9 type  2   force =     0.01273533    0.00330797    0.00694170
     atom   10 type  1   force =    -0.00474697    0.00789689   -0.00956486
     atom   11 type  2   force =     0.00456736   -0.00188451   -0.00723124
     atom   12 type  2   force =    -0.00289136    0.00141118    0.00154950
     atom   13 type  1   force =     0.00338169    0.00599882   -0.00095689
     atom   14 type  2   force =     0.00569367   -0.00101034    0.00783547
     atom   15 type  2   force =    -0.00950561    0.00196684   -0.00677794
     atom   16 type  1   force =    -0.00514203    0.00784563    0.00499080
     atom   17 type  2   force =    -0.00365936    0.01167942    0.01272576
     atom   18 type  2   force =    -0.00005986   -0.00512497    0.00588330
     atom   19 type  1   force =    -0.00291077   -0.01320544    0.00119644
     atom   20 type  2   force =     0.00179803   -0.00385607   -0.00041473
     atom   21 type  1   force =    -0.00156634    0.00236472    0.00216506
     atom   22 type  2   force =    -0.00295869   -0.00043276   -0.00601785
     atom   23 type  2   force =     0.00194667    0.00105646    0.00424092
     atom   24 type  1   force =    -0.00589657   -0.00234075   -0.00910468
     atom   25 type  2   force =     0.01114301    0.01214934   -0.00068794
     atom   26 type  2   force =    -0.00587035   -0.00148747   -0.00422380
     atom   27 type  1   force =    -0.00190419   -0.00361341   -0.00822564
     atom   28 type  2   force =     0.00063088   -0.00391603   -0.00846498
     atom   29 type  2   force =    -0.00028404   -0.00035821   -0.00838451
     atom   30 type  1   force =    -0.00252959   -0.00100313    0.00883080
     atom   31 type  2   force =     0.01246776   -0.03096707    0.03695793
     atom   32 type  2   force =    -0.00809157    0.00702423    0.00304217
     atom   33 type  1   force =     0.00546014   -0.00433508    0.00081953
     atom   34 type  2   force =    -0.00007325   -0.02888412   -0.01366115
     atom   35 type  2   force =    -0.00666558    0.00651226    0.00823058
     atom   36 type  3   force =     0.00852815    0.03188947   -0.01616920
     The non-local contrib.  to forces
     atom    1 type  1   force =     0.00260207    0.02624212   -0.01205821
     atom    2 type  2   force =    -0.00932853   -0.00027561   -0.27053446
     atom    3 type  2   force =    -0.01265981   -0.00488347    0.26442156
     atom    4 type  1   force =     0.00083981    0.00471102    0.00390530
     atom    5 type  2   force =     0.00832068   -0.03316893   -0.25373502
     atom    6 type  2   force =    -0.00259446    0.01139150    0.26723140
     atom    7 type  1   force =    -0.02477157    0.00265565   -0.01169826
     atom    8 type  2   force =     0.00405694   -0.00311242   -0.25354098
     atom    9 type  2   force =     0.01166326   -0.00699297    0.27631184
     atom   10 type  1   force =     0.00063971    0.00347800   -0.00134981
     atom   11 type  2   force =     0.01258807    0.00584872   -0.26000630
     atom   12 type  2   force =    -0.01190659   -0.01719363    0.26055854
     atom   13 type  1   force =    -0.00145276    0.01689907   -0.01532426
     atom   14 type  2   force =     0.01098874   -0.01025711   -0.26444229
     atom   15 type  2   force =    -0.01107888   -0.00665332    0.26143011
     atom   16 type  1   force =    -0.00857732    0.02869420   -0.02594754
     atom   17 type  2   force =    -0.04491806    0.01572655   -0.17225957
     atom   18 type  2   force =    -0.00524576   -0.00108641    0.27236707
     atom   19 type  1   force =     0.01277118   -0.00943820   -0.01104956
     atom   20 type  2   force =    -0.00357287   -0.02111932    0.26469921
     atom   21 type  1   force =     0.00455271    0.02526574    0.00389203
     atom   22 type  2   force =    -0.00429167    0.00510608   -0.25738052
     atom   23 type  2   force =     0.00805981   -0.01755265    0.26715689
     atom   24 type  1   force =     0.00453658    0.01507090   -0.01116554
     atom   25 type  2   force =     0.00472798   -0.00146270   -0.26639373
     atom   26 type  2   force =     0.00279559   -0.01247185    0.26263382
     atom   27 type  1   force =    -0.00160826    0.00392463    0.00948592
     atom   28 type  2   force =    -0.00719549   -0.02370350   -0.25811982
     atom   29 type  2   force =     0.00413972    0.00043363    0.26383899
     atom   30 type  1   force =    -0.00111804    0.01439036   -0.00424276
     atom   31 type  2   force =    -0.00304827   -0.15615335   -0.07425455
     atom   32 type  2   force =    -0.00336166   -0.01248740    0.27438759
     atom   33 type  1   force =    -0.00269419    0.01036503    0.00301371
     atom   34 type  2   force =    -0.00238675   -0.02433555   -0.27318119
     atom   35 type  2   force =    -0.00261920   -0.01246108    0.26825971
     atom   36 type  3   force =     0.00125904    0.00916125   -0.01178733
     The ionic contribution  to forces
     atom    1 type  1   force =     0.09911233    0.48343919    5.80871785
     atom    2 type  2   force =    -0.49646446    0.22482655   39.36796565
     atom    3 type  2   force =    -0.16373298    0.01767302  -36.19418407
     atom    4 type  1   force =    -0.22139367    0.47178600    0.61236465
     atom    5 type  2   force =    -0.94663226    1.43604599   38.61355567
     atom    6 type  2   force =     0.28570590   -0.55412722  -37.92725186
     atom    7 type  1   force =    -2.71649462   -2.58784098    2.38675683
     atom    8 type  2   force =    -1.11375028    0.10285173   37.47965927
     atom    9 type  2   force =     0.30004653   -0.04469985  -38.01748912
     atom   10 type  1   force =    -0.85058628   -0.30765681    5.35629082
     atom   11 type  2   force =    -0.53954808   -1.57614658   39.11837130
     atom   12 type  2   force =     0.35136982    0.65420659  -37.84214078
     atom   13 type  1   force =     0.57831468    0.69230081    2.70821279
     atom   14 type  2   force =     0.00012213   -0.04217757   38.58094059
     atom   15 type  2   force =     0.18464054   -0.04030645  -36.83208853
     atom   16 type  1   force =     0.38030978    3.67469955    0.46499349
     atom   17 type  2   force =     1.26477488    0.98691772   37.63137711
     atom   18 type  2   force =    -0.02572261   -0.68360602  -38.60503574
     atom   19 type  1   force =     2.79801445   -1.97356816    0.38446251
     atom   20 type  2   force =     0.27366703   -0.14538390  -38.53280231
     atom   21 type  1   force =    -0.02238023   -0.01800795    1.30309873
     atom   22 type  2   force =     0.50564075   -1.64257087   38.37792514
     atom   23 type  2   force =    -0.04661312    0.63866448  -38.24347441
     atom   24 type  1   force =    -0.43042483    0.73994056    5.46071848
     atom   25 type  2   force =     0.53712803    0.10423711   39.19752781
     atom   26 type  2   force =    -0.24989935   -0.01531329  -37.29601780
     atom   27 type  1   force =    -0.07456352    0.34301237   -3.68321721
     atom   28 type  2   force =    -0.29892297    0.67421093   37.96261935
     atom   29 type  2   force =    -0.36745235   -0.45293609  -37.39166659
     atom   30 type  1   force =    -0.23714971   -0.75682619    0.00315643
     atom   31 type  2   force =     1.06705278    0.80497992   36.90199270
     atom   32 type  2   force =    -0.49994668    0.10174827  -38.68130415
     atom   33 type  1   force =     0.62969172   -0.60980404    2.15009770
     atom   34 type  2   force =     0.15945508   -1.15857639   39.25549167
     atom   35 type  2   force =    -0.23900513    0.49783930  -37.73922500
     atom   36 type  3   force =     0.12563670   -0.03983171    7.85960103
     The local contribution  to forces
     atom    1 type  1   force =    -0.09893576   -0.52192516   -5.79725687
     atom    2 type  2   force =     0.49556208   -0.21340028  -39.12052028
     atom    3 type  2   force =     0.16505711   -0.00568403   35.94201213
     atom    4 type  1   force =     0.22578280   -0.47351783   -0.61564258
     atom    5 type  2   force =     0.93956347   -1.41102819  -38.38891642
     atom    6 type  2   force =    -0.28075904    0.54986675   37.68254815
     atom    7 type  1   force =     2.74899913    2.57996064   -2.37882294
     atom    8 type  2   force =     1.10798766   -0.10265283  -37.23488177
     atom    9 type  2   force =    -0.29861214    0.05458622   37.76885342
     atom   10 type  1   force =     0.84515938    0.31221672   -5.36539788
     atom   11 type  2   force =     0.53212056    1.56913516  -38.88659410
     atom   12 type  2   force =    -0.34334639   -0.63680843   37.60361571
     atom   13 type  1   force =    -0.57344517   -0.70346611   -2.69477554
     atom   14 type  2   force =    -0.00472156    0.05132183  -38.32977498
     atom   15 type  2   force =    -0.18367578    0.04845041   36.58418090
     atom   16 type  1   force =    -0.37673023   -3.69568696   -0.43506563
     atom   17 type  2   force =    -1.22598151   -0.99010698  -37.46292152
     atom   18 type  2   force =     0.03072972    0.68009310   38.35930740
     atom   19 type  1   force =    -2.81359301    1.97002072   -0.37328746
     atom   20 type  2   force =    -0.26858513    0.16181789   38.28854029
     atom   21 type  1   force =     0.01639255   -0.00473662   -1.30573866
     atom   22 type  2   force =    -0.50443314    1.63774623  -38.14743168
     atom   23 type  2   force =     0.04107270   -0.62125560   38.00114882
     atom   24 type  1   force =     0.41990707   -0.75763194   -5.45955448
     atom   25 type  2   force =    -0.53077598   -0.09057103  -38.95306123
     atom   26 type  2   force =     0.24157422    0.02558310   37.04969840
     atom   27 type  1   force =     0.07425619   -0.35075943    3.66438726
     atom   28 type  2   force =     0.30633980   -0.65612806  -37.73351574
     atom   29 type  2   force =     0.36351676    0.45257811   37.13982212
     atom   30 type  1   force =     0.23554247    0.74176653    0.00885277
     atom   31 type  2   force =    -1.05149571   -0.68870469  -36.80173297
     atom   32 type  2   force =     0.49535754   -0.08297397   38.43071374
     atom   33 type  1   force =    -0.62163728    0.59524588   -2.15317238
     atom   34 type  2   force =    -0.15752055    1.15339077  -39.01742101
     atom   35 type  2   force =     0.23495163   -0.47983074   37.49994531
     atom   36 type  3   force =    -0.11836528    0.06254102   -7.86406448
     The core correction contribution to forces
     atom    1 type  1   force =     0.00000000    0.00000000    0.00000000
     atom    2 type  2   force =     0.00033514   -0.00015927    0.02080810
     atom    3 type  2   force =     0.00055435    0.00014687   -0.02076537
     atom    4 type  1   force =     0.00000000    0.00000000    0.00000000
     atom    5 type  2   force =    -0.00069618    0.00181306    0.02032717
     atom    6 type  2   force =     0.00025819   -0.00115073   -0.02096558
     atom    7 type  1   force =     0.00000000    0.00000000    0.00000000
     atom    8 type  2   force =    -0.00022093    0.00045372    0.02031972
     atom    9 type  2   force =    -0.00036111    0.00042826   -0.02105625
     atom   10 type  1   force =     0.00000000    0.00000000    0.00000000
     atom   11 type  2   force =    -0.00054489   -0.00057761    0.02059056
     atom   12 type  2   force =     0.00102721    0.00134480   -0.02075639
     atom   13 type  1   force =     0.00000000    0.00000000    0.00000000
     atom   14 type  2   force =    -0.00062638    0.00001743    0.02070152
     atom   15 type  2   force =     0.00065947    0.00042108   -0.02058506
     atom   16 type  1   force =     0.00000000    0.00000000    0.00000000
     atom   17 type  2   force =     0.00255261   -0.00098790    0.01602102
     atom   18 type  2   force =     0.00018283   -0.00057066   -0.02104701
     atom   19 type  1   force =     0.00000000    0.00000000    0.00000000
     atom   20 type  2   force =     0.00030558    0.00081746   -0.02119330
     atom   21 type  1   force =     0.00000000    0.00000000    0.00000000
     atom   22 type  2   force =     0.00012635   -0.00052443    0.02046166
     atom   23 type  2   force =    -0.00056531    0.00130397   -0.02089251
     atom   24 type  1   force =     0.00000000    0.00000000    0.00000000
     atom   25 type  2   force =     0.00005272   -0.00013030    0.02084425
     atom   26 type  2   force =    -0.00038061    0.00065523   -0.02080234
     atom   27 type  1   force =     0.00000000    0.00000000    0.00000000
     atom   28 type  2   force =     0.00031412    0.00155754    0.02003719
     atom   29 type  2   force =    -0.00049824   -0.00049347   -0.02066848
     atom   30 type  1   force =     0.00000000    0.00000000    0.00000000
     atom   31 type  2   force =    -0.00004035    0.00898868    0.01047595
     atom   32 type  2   force =    -0.00015405    0.00073640   -0.02111869
     atom   33 type  1   force =     0.00000000    0.00000000    0.00000000
     atom   34 type  2   force =     0.00034258    0.00072672    0.02104950
     atom   35 type  2   force =    -0.00003944    0.00107493   -0.02102747
     atom   36 type  3   force =     0.00000000    0.00000000    0.00000000
     The Hubbard contrib.    to forces
     atom    1 type  1   force =     0.00000000    0.00000000    0.00000000
     atom    2 type  2   force =     0.00000000    0.00000000    0.00000000
     atom    3 type  2   force =     0.00000000    0.00000000    0.00000000
     atom    4 type  1   force =     0.00000000    0.00000000    0.00000000
     atom    5 type  2   force =     0.00000000    0.00000000    0.00000000
     atom    6 type  2   force =     0.00000000    0.00000000    0.00000000
     atom    7 type  1   force =     0.00000000    0.00000000    0.00000000
     atom    8 type  2   force =     0.00000000    0.00000000    0.00000000
     atom    9 type  2   force =     0.00000000    0.00000000    0.00000000
     atom   10 type  1   force =     0.00000000    0.00000000    0.00000000
     atom   11 type  2   force =     0.00000000    0.00000000    0.00000000
     atom   12 type  2   force =     0.00000000    0.00000000    0.00000000
     atom   13 type  1   force =     0.00000000    0.00000000    0.00000000
     atom   14 type  2   force =     0.00000000    0.00000000    0.00000000
     atom   15 type  2   force =     0.00000000    0.00000000    0.00000000
     atom   16 type  1   force =     0.00000000    0.00000000    0.00000000
     atom   17 type  2   force =     0.00000000    0.00000000    0.00000000
     atom   18 type  2   force =     0.00000000    0.00000000    0.00000000
     atom   19 type  1   force =     0.00000000    0.00000000    0.00000000
     atom   20 type  2   force =     0.00000000    0.00000000    0.00000000
     atom   21 type  1   force =     0.00000000    0.00000000    0.00000000
     atom   22 type  2   force =     0.00000000    0.00000000    0.00000000
     atom   23 type  2   force =     0.00000000    0.00000000    0.00000000
     atom   24 type  1   force =     0.00000000    0.00000000    0.00000000
     atom   25 type  2   force =     0.00000000    0.00000000    0.00000000
     atom   26 type  2   force =     0.00000000    0.00000000    0.00000000
     atom   27 type  1   force =     0.00000000    0.00000000    0.00000000
     atom   28 type  2   force =     0.00000000    0.00000000    0.00000000
     atom   29 type  2   force =     0.00000000    0.00000000    0.00000000
     atom   30 type  1   force =     0.00000000    0.00000000    0.00000000
     atom   31 type  2   force =     0.00000000    0.00000000    0.00000000
     atom   32 type  2   force =     0.00000000    0.00000000    0.00000000
     atom   33 type  1   force =     0.00000000    0.00000000    0.00000000
     atom   34 type  2   force =     0.00000000    0.00000000    0.00000000
     atom   35 type  2   force =     0.00000000    0.00000000    0.00000000
     atom   36 type  3   force =     0.00000000    0.00000000    0.00000000
     The SCF correction term to forces
     atom    1 type  1   force =    -0.00008401    0.00025467    0.00090548
     atom    2 type  2   force =     0.00005732    0.00005525    0.00043730
     atom    3 type  2   force =     0.00004621    0.00005159    0.00020308
     atom    4 type  1   force =     0.00011347    0.00015834    0.00098351
     atom    5 type  2   force =    -0.00001626    0.00008412    0.00042805
     atom    6 type  2   force =    -0.00001552    0.00005516    0.00027444
     atom    7 type  1   force =    -0.00003386   -0.00022757    0.00086437
     atom    8 type  2   force =     0.00004257   -0.00005584    0.00037064
     atom    9 type  2   force =    -0.00000002   -0.00001413    0.00029808
     atom   10 type  1   force =     0.00004142   -0.00014147    0.00086829
     atom   11 type  2   force =    -0.00004710   -0.00014465    0.00038357
     atom   12 type  2   force =    -0.00003422   -0.00013861    0.00024869
     atom   13 type  1   force =    -0.00003388    0.00026460    0.00090640
     atom   14 type  2   force =    -0.00006807    0.00008464    0.00038690
     atom   15 type  2   force =    -0.00004977    0.00005467    0.00026092
     atom   16 type  1   force =    -0.00014306    0.00013840    0.00098676
     atom   17 type  2   force =    -0.00008610    0.00012957    0.00048499
     atom   18 type  2   force =    -0.00000285    0.00004457    0.00026786
     atom   19 type  1   force =    -0.00010219   -0.00022025    0.00104722
     atom   20 type  2   force =    -0.00001539    0.00001134    0.00031766
     atom   21 type  1   force =    -0.00013018   -0.00015690    0.00088923
     atom   22 type  2   force =     0.00000022   -0.00019021    0.00038383
     atom   23 type  2   force =    -0.00000621   -0.00010420    0.00027839
     atom   24 type  1   force =     0.00008581    0.00027927    0.00087313
     atom   25 type  2   force =     0.00001145    0.00007580    0.00037124
     atom   26 type  2   force =     0.00004099    0.00005890    0.00024039
     atom   27 type  1   force =     0.00001260    0.00020858    0.00109466
     atom   28 type  2   force =     0.00009662    0.00014661    0.00049031
     atom   29 type  2   force =     0.00001128    0.00005917    0.00026573
     atom   30 type  1   force =     0.00019689   -0.00033428    0.00104064
     atom   31 type  2   force =     0.00000051   -0.00007808    0.00045307
     atom   32 type  2   force =     0.00001448    0.00000048    0.00033994
     atom   33 type  1   force =     0.00010108   -0.00014240    0.00085677
     atom   34 type  2   force =     0.00003759   -0.00009012    0.00037617
     atom   35 type  2   force =     0.00004776   -0.00011060    0.00025430
     atom   36 type  3   force =    -0.00000113    0.00001846    0.00005785

     Total force =     0.092487     Total SCF correction =     0.003809
     Energy error            =      1.3E-02 Ry
     Gradient error          =      3.7E-02 Ry/Bohr

     number of scf cycles    =   2
     number of bfgs steps    =   1

     energy             old  =   -2205.5111733875 Ry
     energy             new  =   -2205.5242622025 Ry

     CASE: energy            _new < energy            _old

     new trust radius        =       0.0675289403 bohr
     new conv_thr            =       0.0000000370 Ry


ATOMIC_POSITIONS (angstrom)
Mo            6.5844279217        1.7652132614        2.8281979129
S             8.1607574741        0.8273873435        4.4335677593
S             8.1797265414        0.8210836106        1.2719713293
Mo            8.1027351721        4.4993682472        2.7182251685
S             6.5000869998        3.7145920398        4.3366635655
S             6.5573366184        3.5211748108        1.1215102310
Mo            6.5009510831        7.2111584227        2.6641276669
S             8.0792805221        6.3410163786        4.2593144866
S             8.0971630661        6.3090459608        1.0956391922
Mo            8.1501181665        9.9128751399        2.8201038914
S             6.5008924993        8.9403265510        4.3755988967
S             6.6154694728        9.0505312658        1.1455309560
Mo            3.4258636491        1.7545797569        2.7702241321
S             4.9839174184        0.8155208198        4.3627473506
S             5.0435610018        0.8490188884        1.2171105704
Mo            4.9719919290        4.5252082050        2.6382762012
S             3.4238394394        3.6887575825        4.3007100426
S             3.4360196662        3.5412550939        1.0690569476
Mo            3.4502668001        7.1974832330        2.6267240717
S             4.9854814015        6.3217273585        1.0389107474
Mo            5.0109372230        9.9056657837        2.7443363544
S             3.4665246751        8.9448018177        4.3190739070
S             3.4099634358        9.0682310765        1.1035826352
Mo            0.2859725091        1.7448028142        2.8298451994
S             1.8674573341        0.8100889093        4.4022518412
S             1.8514114333        0.8532807378        1.2045596082
Mo            1.8569228928        4.4891167014        2.6371259545
S             0.2724525089        3.6504013201        4.3296615210
S             0.2328193508        3.5269160661        1.1648684507
Mo            0.2634269649        7.2207666074        2.7066779717
S             1.9203274125        6.2741078356        4.2755611002
S             1.8527438160        6.3187331800        1.0505485266
Mo            1.8558657693        9.9308603277        2.7685060016
S             0.2977177548        9.0478331326        4.3997598496
S             0.2674146630        9.0519492844        1.1644888464
H             2.1120046477        4.8933557349        5.3252809841



     Writing config-only to output data dir ./MoS2-V-O.save/
     NEW-OLD atomic charge density approx. for the potential

     negative rho (up, down):  1.452E-04 0.000E+00

     total cpu time spent up to now is      158.6 secs

     Self-consistent Calculation

     iteration #  1     ecut=    80.00 Ry     beta= 0.70
     Davidson diagonalization with overlap
     ethr =  1.00E-06,  avg # of iterations =  8.0

     negative rho (up, down):  9.078E-05 0.000E+00

     total cpu time spent up to now is      174.5 secs

     total energy              =   -2205.53446815 Ry
     estimated scf accuracy    <       0.00085233 Ry

     iteration #  2     ecut=    80.00 Ry     beta= 0.70
     Davidson diagonalization with overlap
     ethr =  2.78E-07,  avg # of iterations =  2.0

     negative rho (up, down):  6.856E-05 0.000E+00

     total cpu time spent up to now is      189.5 secs

     total energy              =   -2205.53449119 Ry
     estimated scf accuracy    <       0.00017621 Ry

     iteration #  3     ecut=    80.00 Ry     beta= 0.70
     Davidson diagonalization with overlap
     ethr =  5.74E-08,  avg # of iterations =  6.0

     negative rho (up, down):  5.727E-05 0.000E+00

     total cpu time spent up to now is      201.9 secs

     total energy              =   -2205.53451319 Ry
     estimated scf accuracy    <       0.00003903 Ry

     iteration #  4     ecut=    80.00 Ry     beta= 0.70
     Davidson diagonalization with overlap
     ethr =  1.27E-08,  avg # of iterations = 18.0

     negative rho (up, down):  5.631E-05 0.000E+00

     total cpu time spent up to now is      214.8 secs

     total energy              =   -2205.53452263 Ry
     estimated scf accuracy    <       0.00000390 Ry

     iteration #  5     ecut=    80.00 Ry     beta= 0.70
     Davidson diagonalization with overlap
     ethr =  1.27E-09,  avg # of iterations =  4.0

     negative rho (up, down):  5.888E-05 0.000E+00

     total cpu time spent up to now is      230.0 secs

     total energy              =   -2205.53452330 Ry
     estimated scf accuracy    <       0.00000133 Ry

     iteration #  6     ecut=    80.00 Ry     beta= 0.70
     Davidson diagonalization with overlap
     ethr =  4.34E-10,  avg # of iterations =  2.0

     negative rho (up, down):  6.458E-05 0.000E+00

     total cpu time spent up to now is      243.5 secs

     total energy              =   -2205.53452349 Ry
     estimated scf accuracy    <       0.00000040 Ry

     iteration #  7     ecut=    80.00 Ry     beta= 0.70
     Davidson diagonalization with overlap
     ethr =  1.31E-10,  avg # of iterations =  5.0

     negative rho (up, down):  8.074E-05 0.000E+00

     total cpu time spent up to now is      254.7 secs

     total energy              =   -2205.53452343 Ry
     estimated scf accuracy    <       0.00000015 Ry

     iteration #  8     ecut=    80.00 Ry     beta= 0.70
     Davidson diagonalization with overlap
     ethr =  4.91E-11,  avg # of iterations =  3.0

     negative rho (up, down):  9.899E-05 0.000E+00

     total cpu time spent up to now is      266.0 secs

     total energy              =   -2205.53452335 Ry
     estimated scf accuracy    <       0.00000004 Ry

     iteration #  9     ecut=    80.00 Ry     beta= 0.70
     Davidson diagonalization with overlap
     ethr =  1.36E-11,  avg # of iterations =  8.0

     negative rho (up, down):  1.378E-04 0.000E+00

     total cpu time spent up to now is      268.4 secs

     End of self-consistent calculation

          k = 0.0000 0.0000 0.0000 (105382 PWs)   bands (ev):

   -62.8786 -62.8623 -62.8540 -62.8405 -62.8364 -62.8300 -62.8287 -62.8195
   -62.8063 -62.7762 -62.7572 -62.7044 -37.2186 -37.1535 -37.1452 -37.1382
   -37.1203 -37.1075 -37.0803 -37.0732 -37.0608 -37.0581 -37.0501 -37.0410
   -37.0353 -37.0272 -37.0216 -37.0190 -37.0081 -37.0062 -37.0028 -36.9890
   -36.9786 -36.9573 -36.9432 -36.9270 -36.9224 -36.9135 -36.9061 -36.8879
   -36.8812 -36.8732 -36.8568 -36.8510 -36.8429 -36.8106 -36.7388 -36.6835
   -16.0180 -15.3455 -15.1701 -15.0284 -14.8869 -14.8172 -14.6465 -14.5225
   -14.4269 -14.4080 -14.3873 -14.3203 -14.3176 -14.2844 -14.1710 -14.1447
   -14.1273 -14.1041 -14.0299 -13.8967 -13.8443 -13.8281 -13.8035  -8.2086
    -7.5987  -7.3956  -7.3090  -7.2580  -7.2309  -7.1843  -7.1583  -7.1038
    -6.8294  -6.8045  -6.7273  -6.6591  -6.5395  -6.5176  -6.4199  -6.3897
    -6.2638  -6.2596  -6.0539  -5.9757  -5.9165  -5.8724  -5.8333  -5.7646
    -5.7473  -5.7032  -5.6940  -5.6723  -5.6153  -5.5700  -5.5421  -5.4779
    -5.4392  -5.3623  -5.1684  -5.1316  -5.0519  -5.0046  -4.9663  -4.9363
    -4.9182  -4.8605  -4.6750  -4.5266  -4.3660  -4.3184  -4.2769  -4.2504
    -4.2040  -4.0434  -4.0029  -3.9231  -3.7887  -3.7811  -3.7337  -3.6973
    -3.6801  -3.5582  -3.5352  -3.5121  -3.4839  -3.4673  -3.4346  -3.4061
    -3.3694  -3.2289  -3.1413  -2.8758  -2.8648  -2.7783  -2.7696  -2.7318
    -2.7240  -2.6887  -2.6632  -2.6295  -2.5700  -2.2664  -2.1660  -1.9979
    -1.9794  -1.0339  -0.7806  -0.6415  -0.1602  -0.1257  -0.0997  -0.0712
     0.0902   0.1422   0.1955   0.2554   0.2968   0.3170   0.3751   0.4183
     0.4589   0.5177   0.5499   0.6037   0.6170   0.6908   0.7145   0.7341
     0.7773   0.8261   0.8548   0.8788   0.9417   0.9828   1.0477   1.1667
     1.3916

     the Fermi energy is    -1.0349 ev

!    total energy              =   -2205.53452327 Ry
     estimated scf accuracy    <       0.00000001 Ry
     smearing contrib. (-TS)   =      -0.00581449 Ry
     internal energy E=F+TS    =   -2205.52870878 Ry

     The total energy is F=E-TS. E is the sum of the following terms:
     one-electron contribution =  -18043.12456173 Ry
     hartree contribution      =    9008.32640779 Ry
     xc contribution           =    -385.21611835 Ry
     ewald contribution        =    7214.48556351 Ry

     convergence has been achieved in   9 iterations

     negative rho (up, down):  1.378E-04 0.000E+00

     Forces acting on atoms (cartesian axes, Ry/au):

     atom    1 type  1   force =    -0.00396481   -0.00292173   -0.00454197
     atom    2 type  2   force =    -0.00505008    0.00605217   -0.00209550
     atom    3 type  2   force =    -0.00912979    0.00549654   -0.01078410
     atom    4 type  1   force =     0.00391658    0.00207364    0.00146436
     atom    5 type  2   force =     0.00087112   -0.00553816   -0.00704175
     atom    6 type  2   force =     0.00139736    0.00412042    0.00394439
     atom    7 type  1   force =     0.00535105   -0.00408940    0.00022306
     atom    8 type  2   force =    -0.00181466   -0.00320042    0.00975846
     atom    9 type  2   force =     0.01130255    0.00273391    0.00374349
     atom   10 type  1   force =    -0.00104151    0.00607224   -0.00016405
     atom   11 type  2   force =     0.00405394   -0.00143023   -0.00715504
     atom   12 type  2   force =    -0.00353150    0.00110893   -0.00108215
     atom   13 type  1   force =     0.00249982    0.00465906    0.00282820
     atom   14 type  2   force =     0.00327925   -0.00067066    0.00481883
     atom   15 type  2   force =    -0.00659457    0.00103258   -0.00440196
     atom   16 type  1   force =    -0.00347604    0.00465699    0.00419667
     atom   17 type  2   force =    -0.00207637    0.00619302    0.00632201
     atom   18 type  2   force =     0.00171235   -0.00322502    0.00262941
     atom   19 type  1   force =    -0.00244927   -0.00981775    0.00522092
     atom   20 type  2   force =     0.00129936   -0.00275594   -0.00128857
     atom   21 type  1   force =    -0.00155243    0.00116226    0.00210953
     atom   22 type  2   force =    -0.00205939   -0.00233365   -0.00517000
     atom   23 type  2   force =     0.00237134   -0.00152212    0.00277361
     atom   24 type  1   force =    -0.00305856   -0.00184620   -0.00312711
     atom   25 type  2   force =     0.00669295    0.00855645   -0.00420751
     atom   26 type  2   force =    -0.00256788   -0.00180213   -0.00273092
     atom   27 type  1   force =    -0.00089385   -0.00187293    0.00181037
     atom   28 type  2   force =     0.00070489   -0.00484125   -0.00921070
     atom   29 type  2   force =    -0.00169247   -0.00023481   -0.00935661
     atom   30 type  1   force =     0.00179834   -0.00591570    0.01127389
     atom   31 type  2   force =     0.00946830   -0.02781449    0.02885112
     atom   32 type  2   force =    -0.00745680    0.00603929    0.00227358
     atom   33 type  1   force =     0.00034056   -0.00042523    0.00350335
     atom   34 type  2   force =    -0.00160924   -0.01878819   -0.01263071
     atom   35 type  2   force =    -0.00456597    0.00441146    0.00502576
     atom   36 type  3   force =     0.00752541    0.03667705   -0.01778234
     The non-local contrib.  to forces
     atom    1 type  1   force =     0.00367298    0.02311842   -0.01240890
     atom    2 type  2   force =    -0.00570966   -0.00351713   -0.26919487
     atom    3 type  2   force =    -0.01036455   -0.00676349    0.26150708
     atom    4 type  1   force =     0.00113757    0.00623532    0.00373324
     atom    5 type  2   force =     0.00881529   -0.03204988   -0.25421923
     atom    6 type  2   force =    -0.00356901    0.00959808    0.26997404
     atom    7 type  1   force =    -0.02464703    0.00312776   -0.01190979
     atom    8 type  2   force =     0.00489570   -0.00343816   -0.25445989
     atom    9 type  2   force =     0.00975459   -0.00673273    0.27426543
     atom   10 type  1   force =    -0.00045060    0.00389070   -0.00118551
     atom   11 type  2   force =     0.01139447    0.00585514   -0.26034169
     atom   12 type  2   force =    -0.01169314   -0.01749888    0.25965170
     atom   13 type  1   force =    -0.00041347    0.01772552   -0.01608531
     atom   14 type  2   force =     0.00866628   -0.00956380   -0.26568904
     atom   15 type  2   force =    -0.00874161   -0.00761791    0.26237977
     atom   16 type  1   force =    -0.00862414    0.03024369   -0.02703008
     atom   17 type  2   force =    -0.04092624    0.00962559   -0.17889263
     atom   18 type  2   force =    -0.00491486    0.00074325    0.27043898
     atom   19 type  1   force =     0.01261977   -0.00999805   -0.01069472
     atom   20 type  2   force =    -0.00382370   -0.01896847    0.26406673
     atom   21 type  1   force =     0.00440743    0.02542167    0.00318594
     atom   22 type  2   force =    -0.00276838    0.00346462   -0.25675826
     atom   23 type  2   force =     0.00853899   -0.01976274    0.26670879
     atom   24 type  1   force =     0.00263959    0.01510089   -0.01042876
     atom   25 type  2   force =     0.00136042   -0.00471765   -0.26866001
     atom   26 type  2   force =     0.00531296   -0.01224527    0.26383833
     atom   27 type  1   force =    -0.00130304    0.00273746    0.00864692
     atom   28 type  2   force =    -0.00816549   -0.02450852   -0.25883213
     atom   29 type  2   force =     0.00337236   -0.00062009    0.26384587
     atom   30 type  1   force =    -0.00151852    0.01485607   -0.00560880
     atom   31 type  2   force =    -0.00322923   -0.17115942   -0.06614149
     atom   32 type  2   force =    -0.00212715   -0.01435857    0.27367022
     atom   33 type  1   force =    -0.00138937    0.00996131    0.00279104
     atom   34 type  2   force =    -0.00345141   -0.01642499   -0.27299441
     atom   35 type  2   force =    -0.00166277   -0.01409232    0.26714102
     atom   36 type  3   force =     0.00091869    0.01187482   -0.01348049
     The ionic contribution  to forces
     atom    1 type  1   force =    -0.11141758    0.73470138    5.79609976
     atom    2 type  2   force =    -0.34468195    0.13215644   39.42697553
     atom    3 type  2   force =    -0.13870970    0.01983470  -36.32281371
     atom    4 type  1   force =    -0.34537584    0.39186168    0.67989733
     atom    5 type  2   force =    -0.95013971    1.41507327   38.49695128
     atom    6 type  2   force =     0.23325672   -0.56268909  -37.82793573
     atom    7 type  1   force =    -2.84048740   -2.47132060    2.23771016
     atom    8 type  2   force =    -1.14377899    0.10067340   37.60863076
     atom    9 type  2   force =     0.28103080   -0.04988974  -38.01234965
     atom   10 type  1   force =    -0.65269720   -0.33584349    5.12969571
     atom   11 type  2   force =    -0.53744732   -1.58073197   39.06160370
     atom   12 type  2   force =     0.28486379    0.60174810  -37.83160321
     atom   13 type  1   force =     0.55712833    0.61345895    2.74213200
     atom   14 type  2   force =    -0.07391830   -0.03073929   38.64284181
     atom   15 type  2   force =     0.18006096   -0.02751196  -36.87581952
     atom   16 type  1   force =     0.52838610    3.49964502    0.65122289
     atom   17 type  2   force =     1.27111423    0.89718158   37.70436211
     atom   18 type  2   force =     0.04341648   -0.67428336  -38.58418795
     atom   19 type  1   force =     2.76321403   -1.75845582    0.41318681
     atom   20 type  2   force =     0.28213719   -0.10181417  -38.56135899
[...]
     atom   27 type  1   force =     0.00379575   -0.01275427   -0.01015836
     atom   28 type  2   force =     0.00645341   -0.00864295   -0.26031545
     atom   29 type  2   force =     0.00013840   -0.01481089    0.26525917
     atom   30 type  1   force =    -0.01862506    0.02471324   -0.00300005
     atom   31 type  2   force =    -0.01889079   -0.02597977    0.26702776
     atom   32 type  2   force =     0.00383260   -0.01831010    0.28965693
     atom   33 type  1   force =    -0.00079359    0.00539234    0.00435360
     atom   34 type  2   force =    -0.00005413   -0.01896254   -0.26255944
     atom   35 type  2   force =     0.00012111   -0.01322589    0.26633098
     atom   36 type  3   force =     0.00318522    0.00525378   -0.06315408
     The ionic contribution  to forces
     atom    1 type  1   force =     0.01895191    0.96720100    1.41140173
     atom    2 type  2   force =    -0.20744796    0.18154812   38.93766778
     atom    3 type  2   force =     0.16356393   -0.17127436  -37.64995211
     atom    4 type  1   force =    -0.11211518    0.97971482    0.77280738
     atom    5 type  2   force =    -0.95243578    1.27933518   38.03937364
     atom    6 type  2   force =     0.33795387   -0.09338044  -38.29324395
     atom    7 type  1   force =    -1.87931504   -2.66599903    4.34981301
     atom    8 type  2   force =    -1.17985902   -0.06154340   38.33347609
     atom    9 type  2   force =     0.39001824    0.06709321  -37.42940427
     atom   10 type  1   force =    -0.34537128   -0.65898096    3.45563734
     atom   11 type  2   force =    -0.29543499   -1.36907233   38.87642593
     atom   12 type  2   force =     0.41565558    0.07958777  -37.79028336
     atom   13 type  1   force =    -0.00286809    0.70935991    1.54325822
     atom   14 type  2   force =     0.00632330    0.19188940   38.62505247
     atom   15 type  2   force =     0.02904397   -0.07225688  -38.02813690
     atom   16 type  1   force =    -0.50333514    4.07829555   -0.83380065
     atom   17 type  2   force =     0.99854262    1.46278075   38.17439816
     atom   18 type  2   force =    -0.28079838    0.13011851  -38.35603367
     atom   19 type  1   force =     0.90370399   -4.00052167    2.69489110
     atom   20 type  2   force =    -0.15829761   -0.24080896  -38.73445498
     atom   21 type  1   force =     0.30253493   -0.07195691    0.84088067
     atom   22 type  2   force =     0.16667058   -1.37185954   39.06816727
     atom   23 type  2   force =    -0.54760978    0.16122958  -38.35312713
     atom   24 type  1   force =    -0.00822997    0.27857354    2.35437093
     atom   25 type  2   force =     0.20159120    0.17390109   38.79966573
     atom   26 type  2   force =    -0.18974394   -0.14170718  -37.56790616
     atom   27 type  1   force =     0.56442404    2.02781797    1.00726914
     atom   28 type  2   force =    -0.07973579    0.61109124   38.48753443
     atom   29 type  2   force =    -0.05616493    0.24639774  -37.83892323
     atom   30 type  1   force =     0.60600606   -1.29582059    3.22360554
     atom   31 type  2   force =     1.51323412    0.11399630   34.82272717
     atom   32 type  2   force =    -0.19915611    0.01317360  -36.30909798
     atom   33 type  1   force =     0.05693057   -0.82734322    3.01439475
     atom   34 type  2   force =     0.10393509   -0.46962343   39.09252776
     atom   35 type  2   force =     0.11933795   -0.13223564  -37.35135938
     atom   36 type  3   force =     0.09949702   -0.10872073    8.61037756
     The local contribution  to forces
     atom    1 type  1   force =    -0.01787058   -0.99283481   -1.40883687
     atom    2 type  2   force =     0.20415723   -0.16856148  -38.69495813
     atom    3 type  2   force =    -0.16154427    0.18269760   37.40377666
     atom    4 type  1   force =     0.11474763   -0.99006586   -0.77671929
     atom    5 type  2   force =     0.94543193   -1.25536657  -37.80571128
     atom    6 type  2   force =    -0.33520735    0.09753427   38.04929282
     atom    7 type  1   force =     1.91538980    2.68613036   -4.31707642
     atom    8 type  2   force =     1.16626192    0.06115209  -38.10126892
     atom    9 type  2   force =    -0.38469634   -0.05031159   37.18475899
     atom   10 type  1   force =     0.34798357    0.65286174   -3.45799451
     atom   11 type  2   force =     0.28855104    1.37413086  -38.63634008
     atom   12 type  2   force =    -0.40417089   -0.07320846   37.54746376
     atom   13 type  1   force =    -0.00405321   -0.73295314   -1.53310507
     atom   14 type  2   force =    -0.00412440   -0.18078004  -38.38099668
     atom   15 type  2   force =    -0.02797192    0.07799590   37.78872223
     atom   16 type  1   force =     0.50742756   -4.12829922    0.84101398
     atom   17 type  2   force =    -0.98383392   -1.44573726  -37.94947130
     atom   18 type  2   force =     0.27763537   -0.12339292   38.11270148
     atom   19 type  1   force =    -0.95519073    4.01852140   -2.67798346
     atom   20 type  2   force =     0.15680409    0.25389236   38.49542407
     atom   21 type  1   force =    -0.30449369    0.05152926   -0.84258259
     atom   22 type  2   force =    -0.15895871    1.37765276  -38.83879135
     atom   23 type  2   force =     0.53926392   -0.15494760   38.11550238
     atom   24 type  1   force =     0.01171739   -0.29103516   -2.34857090
     atom   25 type  2   force =    -0.19955856   -0.16140192  -38.55535800
     atom   26 type  2   force =     0.18741727    0.15463938   37.31984756
     atom   27 type  1   force =    -0.56868396   -2.01461297   -0.99712184
     atom   28 type  2   force =     0.07423801   -0.60298251  -38.24799804
     atom   29 type  2   force =     0.05503313   -0.23301071   37.59332486
     atom   30 type  1   force =    -0.58619702    1.27051218   -3.22079068
     atom   31 type  2   force =    -1.49542802   -0.09013248  -35.07921050
     atom   32 type  2   force =     0.19529954    0.00340087   36.04147336
     atom   33 type  1   force =    -0.05616614    0.82238371   -3.01828496
     atom   34 type  2   force =    -0.10445543    0.48695482  -38.85117797
     atom   35 type  2   force =    -0.11884510    0.14558443   37.10584775
     atom   36 type  3   force =    -0.10229058    0.10439544   -8.54682781
     The core correction contribution to forces
     atom    1 type  1   force =     0.00000000    0.00000000    0.00000000
     atom    2 type  2   force =    -0.00029084    0.00064162    0.02066746
     atom    3 type  2   force =     0.00017870    0.00042598   -0.02091466
     atom    4 type  1   force =     0.00000000    0.00000000    0.00000000
     atom    5 type  2   force =    -0.00078378    0.00126985    0.02018702
     atom    6 type  2   force =     0.00043799   -0.00014112   -0.02076429
     atom    7 type  1   force =     0.00000000    0.00000000    0.00000000
     atom    8 type  2   force =    -0.00102025    0.00001226    0.02004375
     atom    9 type  2   force =     0.00025595    0.00106060   -0.02072947
     atom   10 type  1   force =     0.00000000    0.00000000    0.00000000
     atom   11 type  2   force =    -0.00024703    0.00007070    0.02052760
     atom   12 type  2   force =     0.00089989    0.00044599   -0.02073466
     atom   13 type  1   force =     0.00000000    0.00000000    0.00000000
     atom   14 type  2   force =     0.00015008    0.00043742    0.02079417
     atom   15 type  2   force =     0.00009306    0.00024425   -0.02060514
     atom   16 type  1   force =     0.00000000    0.00000000    0.00000000
     atom   17 type  2   force =     0.00144332    0.00069840    0.01977297
     atom   18 type  2   force =    -0.00029929    0.00002722   -0.02088806
     atom   19 type  1   force =     0.00000000    0.00000000    0.00000000
     atom   20 type  2   force =    -0.00008743    0.00051591   -0.02104403
     atom   21 type  1   force =     0.00000000    0.00000000    0.00000000
     atom   22 type  2   force =     0.00026780    0.00045354    0.02003912
     atom   23 type  2   force =    -0.00078533    0.00079581   -0.02069536
     atom   24 type  1   force =     0.00000000    0.00000000    0.00000000
     atom   25 type  2   force =     0.00024881    0.00068847    0.02064283
     atom   26 type  2   force =    -0.00020657    0.00063105   -0.02097784
     atom   27 type  1   force =     0.00000000    0.00000000    0.00000000
     atom   28 type  2   force =    -0.00058351    0.00040723    0.02041883
     atom   29 type  2   force =    -0.00015058    0.00057961   -0.02084487
     atom   30 type  1   force =     0.00000000    0.00000000    0.00000000
     atom   31 type  2   force =     0.00154991    0.00187415   -0.01132525
     atom   32 type  2   force =    -0.00011779    0.00109826   -0.02145535
     atom   33 type  1   force =     0.00000000    0.00000000    0.00000000
     atom   34 type  2   force =    -0.00002622    0.00112067    0.02059875
     atom   35 type  2   force =     0.00004403    0.00072923   -0.02102926
     atom   36 type  3   force =     0.00000000    0.00000000    0.00000000
     The Hubbard contrib.    to forces
     atom    1 type  1   force =     0.00000000    0.00000000    0.00000000
     atom    2 type  2   force =     0.00000000    0.00000000    0.00000000
     atom    3 type  2   force =     0.00000000    0.00000000    0.00000000
     atom    4 type  1   force =     0.00000000    0.00000000    0.00000000
     atom    5 type  2   force =     0.00000000    0.00000000    0.00000000
     atom    6 type  2   force =     0.00000000    0.00000000    0.00000000
     atom    7 type  1   force =     0.00000000    0.00000000    0.00000000
     atom    8 type  2   force =     0.00000000    0.00000000    0.00000000
     atom    9 type  2   force =     0.00000000    0.00000000    0.00000000
     atom   10 type  1   force =     0.00000000    0.00000000    0.00000000
     atom   11 type  2   force =     0.00000000    0.00000000    0.00000000
     atom   12 type  2   force =     0.00000000    0.00000000    0.00000000
     atom   13 type  1   force =     0.00000000    0.00000000    0.00000000
     atom   14 type  2   force =     0.00000000    0.00000000    0.00000000
     atom   15 type  2   force =     0.00000000    0.00000000    0.00000000
     atom   16 type  1   force =     0.00000000    0.00000000    0.00000000
     atom   17 type  2   force =     0.00000000    0.00000000    0.00000000
     atom   18 type  2   force =     0.00000000    0.00000000    0.00000000
     atom   19 type  1   force =     0.00000000    0.00000000    0.00000000
     atom   20 type  2   force =     0.00000000    0.00000000    0.00000000
     atom   21 type  1   force =     0.00000000    0.00000000    0.00000000
     atom   22 type  2   force =     0.00000000    0.00000000    0.00000000
     atom   23 type  2   force =     0.00000000    0.00000000    0.00000000
     atom   24 type  1   force =     0.00000000    0.00000000    0.00000000
     atom   25 type  2   force =     0.00000000    0.00000000    0.00000000
     atom   26 type  2   force =     0.00000000    0.00000000    0.00000000
     atom   27 type  1   force =     0.00000000    0.00000000    0.00000000
     atom   28 type  2   force =     0.00000000    0.00000000    0.00000000
     atom   29 type  2   force =     0.00000000    0.00000000    0.00000000
     atom   30 type  1   force =     0.00000000    0.00000000    0.00000000
     atom   31 type  2   force =     0.00000000    0.00000000    0.00000000
     atom   32 type  2   force =     0.00000000    0.00000000    0.00000000
     atom   33 type  1   force =     0.00000000    0.00000000    0.00000000
     atom   34 type  2   force =     0.00000000    0.00000000    0.00000000
     atom   35 type  2   force =     0.00000000    0.00000000    0.00000000
     atom   36 type  3   force =     0.00000000    0.00000000    0.00000000
     The SCF correction term to forces
     atom    1 type  1   force =     0.00000906    0.00000365   -0.00009636
     atom    2 type  2   force =     0.00000672    0.00000263   -0.00004208
     atom    3 type  2   force =     0.00000065    0.00000419   -0.00000875
     atom    4 type  1   force =     0.00001362   -0.00000011   -0.00003480
     atom    5 type  2   force =     0.00000602    0.00001210   -0.00003725
     atom    6 type  2   force =    -0.00000017   -0.00000991   -0.00000289
     atom    7 type  1   force =    -0.00000428   -0.00000829   -0.00002202
     atom    8 type  2   force =     0.00000833   -0.00000207   -0.00002813
     atom    9 type  2   force =     0.00000369   -0.00000244    0.00000907
     atom   10 type  1   force =     0.00001681   -0.00000024   -0.00007012
     atom   11 type  2   force =     0.00000197   -0.00001398   -0.00003478
     atom   12 type  2   force =    -0.00000093    0.00000704   -0.00000310
     atom   13 type  1   force =    -0.00001276    0.00000845   -0.00009684
     atom   14 type  2   force =    -0.00000350    0.00000044   -0.00004716
     atom   15 type  2   force =    -0.00000346    0.00000411   -0.00001066
     atom   16 type  1   force =    -0.00001634    0.00000094   -0.00004554
     atom   17 type  2   force =    -0.00000558    0.00001222   -0.00004126
     atom   18 type  2   force =    -0.00000077   -0.00000953   -0.00000097
     atom   19 type  1   force =    -0.00002169   -0.00000635   -0.00001751
     atom   20 type  2   force =    -0.00000767   -0.00000257    0.00001215
     atom   21 type  1   force =    -0.00001858   -0.00000476   -0.00007479
     atom   22 type  2   force =    -0.00000877   -0.00001690   -0.00004326
     atom   23 type  2   force =    -0.00000641    0.00000563    0.00000504
     atom   24 type  1   force =     0.00000812    0.00001009   -0.00008080
     atom   25 type  2   force =    -0.00000339    0.00000034   -0.00004723
     atom   26 type  2   force =     0.00000134    0.00000135   -0.00000671
     atom   27 type  1   force =    -0.00000227    0.00001033   -0.00003882
     atom   28 type  2   force =     0.00000086    0.00001240   -0.00003789
     atom   29 type  2   force =     0.00000212   -0.00000971    0.00000302
     atom   30 type  1   force =     0.00001699   -0.00000570   -0.00001274
     atom   31 type  2   force =     0.00000036    0.00000424   -0.00003365
     atom   32 type  2   force =     0.00000359    0.00000150    0.00001568
     atom   33 type  1   force =     0.00000005   -0.00001501   -0.00006993
     atom   34 type  2   force =     0.00000716   -0.00001398   -0.00003830
     atom   35 type  2   force =     0.00000719    0.00000822    0.00000145
     atom   36 type  3   force =    -0.00000027    0.00000041   -0.00000752

     Total force =     0.005873     Total SCF correction =     0.000263
     Energy error            =      9.4E-05 Ry
     Gradient error          =      1.2E-03 Ry/Bohr

     bfgs converged in  33 scf cycles and  32 bfgs steps
     (criteria: energy <  1.0E-04 Ry, force <  1.0E-02 Ry/Bohr)

     End of BFGS Geometry Optimization

     Final energy             =   -2205.5993167630 Ry

     File ./MoS2-V-O.bfgs deleted, as requested
Begin final coordinates

ATOMIC_POSITIONS (angstrom)
Mo            6.5768800292        1.7127510872        2.7356276463
S             8.1327618772        0.8131619096        4.3656259691
S             8.1588038573        0.7840957793        1.1691445371
Mo            8.1406156745        4.4536358401        2.7187669663
S             6.5229765966        3.6211883916        4.2834611878
S             6.5928439664        3.5202933556        1.0916200796
Mo            6.4822881075        7.1531136623        2.7055714220
S             8.0481982125        6.2649307726        4.3233754968
S             8.1361921799        6.2983356577        1.1451444057
Mo            8.1430888030        9.8953178605        2.7823907329
S             6.5112960142        8.9357615108        4.3513382104
S             6.5978386621        8.9868622350        1.1405572912
Mo            3.4411390009        1.7107136653        2.7372012563
S             5.0137235416        0.8014908640        4.3291886031
S             5.0093969443        0.8023092012        1.1382400414
Mo            5.0043585379        4.4679068264        2.6091193830
S             3.5020613026        3.6003928214        4.2983494508
S             3.4143712997        3.5072118851        1.0914839073
Mo            3.5591740962        7.2396887673        2.6776739015
S             4.9989228864        6.2826724659        1.0380831272
Mo            5.0020404542        9.8977259624        2.7286168826
S             3.4926541160        8.9700639303        4.3547603328
S             3.4106727313        9.0230270703        1.1157799094
Mo            0.2652371461        1.7038119855        2.7663640710
S             1.8668850727        0.8175724644        4.3601250924
S             1.8453520406        0.7954966864        1.1702040010
Mo            1.8652904447        4.3872901859        2.7256130924
S             0.2580137152        3.5507791495        4.3349467159
S             0.2738079414        3.5163033669        1.1410367116
Mo            0.2369625361        7.1928349412        2.7718482222
S             1.9404435912        6.2721542689        4.2110790076
S             1.8645280767        6.2896557336        1.1891891664
Mo            1.8569049659        9.8975032935        2.7742678059
S             0.2689235354        9.0087665741        4.3834689284
S             0.2650808607        9.0003003615        1.1897716278
H             1.8741204160        6.1631147659        5.5713046885
End final coordinates



     Writing all to output data dir ./MoS2-V-O.save/
 
     init_run     :      2.43s CPU      3.05s WALL (       1 calls)
     electrons    :   3150.22s CPU   3488.84s WALL (      33 calls)
     update_pot   :     44.77s CPU     46.99s WALL (      32 calls)
     forces       :     43.00s CPU     48.80s WALL (      33 calls)

     Called by init_run:
     wfcinit      :      0.40s CPU      0.53s WALL (       1 calls)
     potinit      :      1.36s CPU      1.48s WALL (       1 calls)
     hinit0       :      0.16s CPU      0.43s WALL (       1 calls)

     Called by electrons:
     c_bands      :    360.00s CPU    365.17s WALL (     294 calls)
     sum_band     :     85.79s CPU    104.93s WALL (     294 calls)
     v_of_rho     :    120.39s CPU    144.71s WALL (     315 calls)
     newd         :     40.13s CPU     57.60s WALL (     315 calls)
     mix_rho      :   2556.79s CPU   2828.85s WALL (     294 calls)

     Called by c_bands:
     init_us_2    :      6.26s CPU      6.74s WALL (     589 calls)
     init_us_2:cp :      6.26s CPU      6.74s WALL (     589 calls)
     regterg      :    338.32s CPU    342.95s WALL (     294 calls)

     Called by *egterg:
     rdiaghg      :     27.27s CPU     27.60s WALL (    1570 calls)
     h_psi        :    194.57s CPU    196.37s WALL (    1615 calls)
     s_psi        :     24.20s CPU     24.31s WALL (    1615 calls)
     g_psi        :      1.25s CPU      1.26s WALL (    1320 calls)

     Called by h_psi:
     h_psi:calbec :     27.91s CPU     28.08s WALL (    1615 calls)
     vloc_psi     :    140.14s CPU    141.58s WALL (    1615 calls)
     add_vuspsi   :     23.68s CPU     23.85s WALL (    1615 calls)

     General routines
     calbec       :     39.78s CPU     40.00s WALL (    2041 calls)
     fft          :     77.20s CPU     91.46s WALL (   21140 calls)
     ffts         :   1140.45s CPU   1403.49s WALL (  618986 calls)
     fftw         :    123.07s CPU    124.16s WALL (  178248 calls)
     interpolate  :      2.32s CPU      2.70s WALL (     315 calls)
 
     Parallel routines
 
     PWSCF        :  54m 6.09s CPU  59m57.23s WALL

 
   This run was terminated on:   3:18: 7   4Nov2023            

=------------------------------------------------------------------------------=
   JOB DONE.
=------------------------------------------------------------------------------=
