
     Program PWSCF v.7.2 starts on  4Nov2023 at  1:51: 6 

     This program is part of the open-source Quantum ESPRESSO suite
     for quantum simulation of materials; please cite
         "P. Giannozzi et al., J. Phys.:Condens. Matter 21 395502 (2009);
         "P. Giannozzi et al., J. Phys.:Condens. Matter 29 465901 (2017);
         "P. Giannozzi et al., J. Chem. Phys. 152 154105 (2020);
          URL http://www.quantum-espresso.org", 
     in publications or presentations arising from this work. More details at
     http://www.quantum-espresso.org/quote

     Parallel version (MPI & OpenMP), running on      48 processor cores
     Number of MPI processes:                48
     Threads/MPI process:                     1

     MPI processes distributed on     1 nodes
     46727 MiB available memory on the printing compute node when the environment starts
 
     Waiting for input...
     Reading input from standard input
Warning: card &CELL ignored
Warning: card CELL_DYNAMICS = 'BFGS', ignored
Warning: card CELL_DOFREE = '2DXY' ignored
Warning: card / ignored

     Current dimensions of program PWSCF are:
     Max number of different atomic species (ntypx) = 10
     Max number of k-points (npk) =  40000
     Max angular momentum in pseudopotentials (lmaxx) =  4

     IMPORTANT: XC functional enforced from input :
     Exchange-correlation= RVV10
                           (   1   4  13   4  26   0   0)
     Any further DFT definition will be discarded
     Please, verify this is what you really want


     gamma-point specific algorithms are used
     signal trapping enabled: kill the code with -SIGUSR1 to stop cleanly the simulation 
 
     R & G space division:  proc/nbgrp/npool/nimage =      48
     Subspace diagonalization in iterative solution of the eigenvalue problem:
     one sub-group per band group will be used
     scalapack distributed-memory algorithm (size of sub-group:  2*  2 procs)

 
     Parallelization info
     --------------------
     sticks:   dense  smooth     PW     G-vecs:    dense   smooth      PW
     Min         243     194     47                49060    35090    4376
     Max         246     196     50                49086    35128    4410
     Sum       11735    9389   2349              2355467  1685513  210763
 
     Using Slab Decomposition
 


     bravais-lattice index     =            0
     lattice parameter (alat)  =      17.8707  a.u.
     unit-cell volume          =   17436.2743 (a.u.)^3
     number of atoms/cell      =           36
     number of atomic types    =            3
     number of electrons       =       307.00
     number of Kohn-Sham states=          185
     kinetic-energy cutoff     =      80.0000  Ry
     charge density cutoff     =     400.0000  Ry
     scf convergence threshold =      1.0E-06
     mixing beta               =       0.7000
     number of iterations used =            8  local-TF  mixing
     energy convergence thresh.=      1.0E-04
     force convergence thresh. =      1.0E-02
     Exchange-correlation= RVV10
                           (   1   4  13   4  26   0   0)
     nstep                     =          200


     celldm(1)=  17.870686  celldm(2)=   0.000000  celldm(3)=   0.000000
     celldm(4)=   0.000000  celldm(5)=   0.000000  celldm(6)=   0.000000

     crystal axes: (cart. coord. in units of alat)
               a(1) = (   1.000000   0.000000   0.000000 )  
               a(2) = (   0.000000   1.155671   0.000000 )  
               a(3) = (   0.000000   0.000000   2.643601 )  

     reciprocal axes: (cart. coord. in units 2 pi/alat)
               b(1) = (  1.000000  0.000000  0.000000 )  
               b(2) = (  0.000000  0.865298  0.000000 )  
               b(3) = (  0.000000  0.000000  0.378272 )  


     PseudoPot. # 1 for Mo read from file:
     ../pseudo/Mo_ONCV_PBE-1.0.oncvpsp.upf
     MD5 check sum: 1b5d28e075c9ccadda658a603575cd1f
     Pseudo is Norm-conserving, Zval = 14.0
     Generated using ONCVPSP code by D. R. Hamann
     Using radial grid of 1526 points,  6 beta functions with: 
                l(1) =   0
                l(2) =   0
                l(3) =   1
                l(4) =   1
                l(5) =   2
                l(6) =   2

     PseudoPot. # 2 for S  read from file:
     ../pseudo/s_pbe_v1.4.uspp.F.UPF
     MD5 check sum: 88d86576ff6df21479756cfb9bdac1df
     Pseudo is Ultrasoft + core correction, Zval =  6.0
     Generated by new atomic code, or converted to UPF format
     Using radial grid of  907 points,  6 beta functions with: 
                l(1) =   0
                l(2) =   0
                l(3) =   1
                l(4) =   1
                l(5) =   2
                l(6) =   2
     Q(r) pseudized with  8 coefficients,  rinner =    1.300   1.300   1.300
                                                       1.300   1.300

     PseudoPot. # 3 for H  read from file:
     ../pseudo/H_ONCV_PBE-1.0.oncvpsp.upf
     MD5 check sum: 1790becc920ee074925cf490c71280fe
     Pseudo is Norm-conserving, Zval =  1.0
     Generated using ONCVPSP code by D. R. Hamann
     Using radial grid of 1166 points,  2 beta functions with: 
                l(1) =   0
                l(2) =   0

     atomic species   valence    mass     pseudopotential
        Mo            14.00    95.94000     Mo( 1.00)
        S              6.00    32.06500     S ( 1.00)
        H              1.00     1.00794     H ( 1.00)

     No symmetry found



   Cartesian axes

     site n.     atom                  positions (alat units)
         1           Mo  tau(   1) = (   0.6952221   0.1890506   0.2985846  )
         2           S   tau(   2) = (   0.8646417   0.0856217   0.4689279  )
         3           S   tau(   3) = (   0.8663890   0.0857843   0.1351291  )
         4           Mo  tau(   4) = (   0.8560186   0.4753274   0.2873942  )
         5           S   tau(   5) = (   0.6873294   0.3936244   0.4596353  )
         6           S   tau(   6) = (   0.6929804   0.3713468   0.1185692  )
         7           Mo  tau(   7) = (   0.6862796   0.7633098   0.2825370  )
         8           S   tau(   8) = (   0.8545980   0.6708292   0.4486168  )
         9           S   tau(   9) = (   0.8545123   0.6666874   0.1146125  )
        10           Mo  tau(  10) = (   0.8629403   1.0471007   0.3006803  )
        11           S   tau(  11) = (   0.6868280   0.9456650   0.4634891  )
        12           S   tau(  12) = (   0.6998113   0.9568511   0.1205389  )
        13           Mo  tau(  13) = (   0.3618216   0.1847309   0.2935964  )
        14           S   tau(  14) = (   0.5260962   0.0863870   0.4600448  )
        15           S   tau(  15) = (   0.5348379   0.0894875   0.1297123  )
        16           Mo  tau(  16) = (   0.5265817   0.4772436   0.2784130  )
        17           S   tau(  17) = (   0.3624753   0.3882513   0.4525556  )
        18           S   tau(  18) = (   0.3635411   0.3752055   0.1119148  )
        19           Mo  tau(  19) = (   0.3652268   0.7630864   0.2781795  )
        20           S   tau(  20) = (   0.5269494   0.6690381   0.1096838  )
        21           Mo  tau(  21) = (   0.5300192   1.0470394   0.2900995  )
        22           S   tau(  22) = (   0.3670346   0.9457522   0.4574073  )
        23           S   tau(  23) = (   0.3604225   0.9585725   0.1159032  )
        24           Mo  tau(  24) = (   0.0313099   0.1847895   0.3013130  )
        25           S   tau(  25) = (   0.1956761   0.0838230   0.4650863  )
        26           S   tau(  26) = (   0.1967693   0.0903508   0.1278874  )
        27           Mo  tau(  27) = (   0.1967578   0.4753919   0.2813011  )
        28           S   tau(  28) = (   0.0287851   0.3864324   0.4586755  )
        29           S   tau(  29) = (   0.0244514   0.3729871   0.1239344  )
        30           Mo  tau(  30) = (   0.0286728   0.7631204   0.2856894  )
        31           S   tau(  31) = (   0.2011512   0.6675435   0.4465001  )
        32           S   tau(  32) = (   0.1969214   0.6672839   0.1104564  )
        33           Mo  tau(  33) = (   0.1950294   1.0511147   0.2932237  )
        34           S   tau(  34) = (   0.0312912   0.9612169   0.4667423  )
        35           S   tau(  35) = (   0.0292670   0.9563028   0.1216485  )
        36           H   tau(  36) = (   0.3333333   0.0000000   0.5650415  )

     number of k points=     1  Gaussian smearing, width (Ry)=  0.0100
                       cart. coord. in units 2pi/alat
        k(    1) = (   0.0000000   0.0000000   0.0000000), wk =   2.0000000

     Dense  grid:  1177734 G-vectors     FFT dimensions: ( 120, 135, 320)

     Smooth grid:   842757 G-vectors     FFT dimensions: ( 108, 120, 270)

     Estimated max dynamical RAM per process >     146.59 MB

     Estimated total dynamical RAM >       6.87 GB

     Initial potential from superposition of free atoms

     starting charge     306.9873, renormalised to     307.0000

     negative rho (up, down):  1.411E-04 0.000E+00


---------------------------------------------------------------------------------
Carrying out rVV10 run using the following parameters:
Nqs =      20    Nr_points =    1024   r_max =   100.000
b_value =  6.30000    beta =  0.00901
     q_mesh =  0.00010000  0.00030000  0.00058939  0.00100810
               0.00161396  0.00249058  0.00375900  0.00559430
               0.00824984  0.01209221  0.01765183  0.02569619
               0.03733578  0.05417739  0.07854596  0.11380545
               0.16482331  0.23864234  0.34545298  0.50000000

Gradients computed in Reciprocal space

---------------------------------------------------------------------------------


     Starting wfcs are  213 randomized atomic wfcs

     total cpu time spent up to now is        2.8 secs

     Self-consistent Calculation

     iteration #  1     ecut=    80.00 Ry     beta= 0.70
     Davidson diagonalization with overlap
     ethr =  1.00E-02,  avg # of iterations =  2.0

     Threshold (ethr) on eigenvalues was too large:
     Diagonalizing with lowered threshold

     Davidson diagonalization with overlap
     ethr =  3.55E-04,  avg # of iterations =  4.0

     negative rho (up, down):  2.062E-08 0.000E+00

     total cpu time spent up to now is       16.4 secs

     total energy              =   -2205.58604771 Ry
     estimated scf accuracy    <       1.37670258 Ry

     iteration #  2     ecut=    80.00 Ry     beta= 0.70
     Davidson diagonalization with overlap
     ethr =  4.48E-04,  avg # of iterations =  2.0

     total cpu time spent up to now is       18.8 secs

     total energy              =   -2205.43408726 Ry
     estimated scf accuracy    <       0.55041321 Ry

     iteration #  3     ecut=    80.00 Ry     beta= 0.70
     Davidson diagonalization with overlap
     ethr =  1.79E-04,  avg # of iterations =  4.0

     total cpu time spent up to now is       21.3 secs

     total energy              =   -2205.51722696 Ry
     estimated scf accuracy    <       0.06136414 Ry

     iteration #  4     ecut=    80.00 Ry     beta= 0.70
     Davidson diagonalization with overlap
     ethr =  2.00E-05,  avg # of iterations = 15.0

     total cpu time spent up to now is       24.5 secs

     total energy              =   -2205.52062924 Ry
     estimated scf accuracy    <       0.02532881 Ry

     iteration #  5     ecut=    80.00 Ry     beta= 0.70
     Davidson diagonalization with overlap
     ethr =  8.25E-06,  avg # of iterations =  2.0

     total cpu time spent up to now is       26.6 secs

     total energy              =   -2205.52040309 Ry
     estimated scf accuracy    <       0.01635254 Ry

     iteration #  6     ecut=    80.00 Ry     beta= 0.70
     Davidson diagonalization with overlap
     ethr =  5.33E-06,  avg # of iterations =  2.0

     total cpu time spent up to now is       28.8 secs

     total energy              =   -2205.51930416 Ry
     estimated scf accuracy    <       0.01148721 Ry

     iteration #  7     ecut=    80.00 Ry     beta= 0.70
     Davidson diagonalization with overlap
     ethr =  3.74E-06,  avg # of iterations =  1.0

     negative rho (up, down):  2.710E-06 0.000E+00

     total cpu time spent up to now is       32.6 secs

     total energy              =   -2205.51772269 Ry
     estimated scf accuracy    <       0.00682482 Ry

     iteration #  8     ecut=    80.00 Ry     beta= 0.70
     Davidson diagonalization with overlap
     ethr =  2.22E-06,  avg # of iterations =  2.0

     negative rho (up, down):  1.041E-02 0.000E+00

     total cpu time spent up to now is       36.8 secs

     total energy              =   -2205.51738207 Ry
     estimated scf accuracy    <       0.00331735 Ry

     iteration #  9     ecut=    80.00 Ry     beta= 0.70
     Davidson diagonalization with overlap
     ethr =  1.08E-06,  avg # of iterations =  2.0

     negative rho (up, down):  2.813E-02 0.000E+00

     total cpu time spent up to now is       41.9 secs

     total energy              =   -2205.51731395 Ry
     estimated scf accuracy    <       0.00195223 Ry

     iteration # 10     ecut=    80.00 Ry     beta= 0.70
     Davidson diagonalization with overlap
     ethr =  6.36E-07,  avg # of iterations =  2.0

     negative rho (up, down):  2.985E-02 0.000E+00

     total cpu time spent up to now is       46.9 secs

     total energy              =   -2205.51749215 Ry
     estimated scf accuracy    <       0.00062457 Ry

     iteration # 11     ecut=    80.00 Ry     beta= 0.70
     Davidson diagonalization with overlap
     ethr =  2.03E-07,  avg # of iterations =  4.0

     negative rho (up, down):  8.304E-03 0.000E+00

     total cpu time spent up to now is       53.2 secs

     total energy              =   -2205.51748938 Ry
     estimated scf accuracy    <       0.00013391 Ry

     iteration # 12     ecut=    80.00 Ry     beta= 0.70
     Davidson diagonalization with overlap
     c_bands:  1 eigenvalues not converged
     ethr =  4.36E-08,  avg # of iterations = 20.0

     negative rho (up, down):  3.531E-03 0.000E+00

     total cpu time spent up to now is       60.3 secs

     total energy              =   -2205.51755301 Ry
     estimated scf accuracy    <       0.00002540 Ry

     iteration # 13     ecut=    80.00 Ry     beta= 0.70
     Davidson diagonalization with overlap
     ethr =  8.27E-09,  avg # of iterations =  5.0

     negative rho (up, down):  6.016E-04 0.000E+00

     total cpu time spent up to now is       68.1 secs

     total energy              =   -2205.51755885 Ry
     estimated scf accuracy    <       0.00000244 Ry

     iteration # 14     ecut=    80.00 Ry     beta= 0.70
     Davidson diagonalization with overlap
     ethr =  7.94E-10,  avg # of iterations =  5.0

     negative rho (up, down):  1.377E-04 0.000E+00

     total cpu time spent up to now is       70.4 secs

     End of self-consistent calculation

          k = 0.0000 0.0000 0.0000 (105382 PWs)   bands (ev):

   -62.8907 -62.8823 -62.8696 -62.8582 -62.8406 -62.8322 -62.8194 -62.8109
   -62.8078 -62.7984 -62.7800 -62.7582 -37.2380 -37.1780 -37.1573 -37.1552
   -37.1331 -37.1150 -37.0912 -37.0821 -37.0786 -37.0773 -37.0694 -37.0479
   -37.0431 -37.0385 -37.0303 -37.0177 -37.0157 -37.0104 -37.0005 -36.9823
   -36.9794 -36.9666 -36.9644 -36.9484 -36.9409 -36.9310 -36.9270 -36.9121
   -36.9104 -36.8922 -36.8838 -36.8670 -36.8592 -36.8025 -36.7662 -36.7191
   -16.0334 -15.2624 -15.1843 -15.0466 -14.9323 -14.8522 -14.6179 -14.5200
   -14.4645 -14.4299 -14.3957 -14.3860 -14.3568 -14.2994 -14.1759 -14.1485
   -14.1327 -14.1199 -14.0508 -13.9334 -13.8555 -13.8318 -13.8093  -8.0524
    -7.6322  -7.4408  -7.3072  -7.2684  -7.2562  -7.1980  -7.1448  -6.9516
    -6.8513  -6.7931  -6.7807  -6.6952  -6.5881  -6.5213  -6.4808  -6.4281
    -6.3517  -6.2823  -6.0204  -5.9869  -5.9218  -5.9139  -5.8254  -5.8043
    -5.7740  -5.7213  -5.6963  -5.6750  -5.6220  -5.5554  -5.5454  -5.4805
    -5.4328  -5.3931  -5.2177  -5.1624  -5.0616  -5.0198  -5.0011  -4.9717
    -4.9218  -4.8395  -4.6698  -4.5396  -4.4171  -4.3355  -4.3169  -4.2423
    -4.1892  -4.1007  -4.0420  -3.9172  -3.8347  -3.8060  -3.7490  -3.7157
    -3.6819  -3.5849  -3.5556  -3.5205  -3.4949  -3.4671  -3.4534  -3.4007
    -3.3829  -3.2119  -3.1385  -2.9354  -2.8969  -2.8043  -2.7827  -2.7524
    -2.7292  -2.7013  -2.6545  -2.6433  -2.5839  -2.3182  -2.0878  -2.0069
    -1.9288  -1.0948  -0.8168  -0.6711  -0.1916  -0.1488  -0.1186  -0.0434
     0.0523   0.1055   0.1401   0.2241   0.2438   0.2593   0.3664   0.4370
     0.4636   0.5283   0.5490   0.5652   0.5945   0.6431   0.7082   0.7327
     0.7487   0.7731   0.8318   0.8579   0.9440   0.9475   1.0352   1.2958
     1.3660

     the Fermi energy is    -1.0953 ev

!    total energy              =   -2205.51756159 Ry
     estimated scf accuracy    <       0.00000053 Ry
     smearing contrib. (-TS)   =      -0.00572783 Ry
     internal energy E=F+TS    =   -2205.51183375 Ry

     The total energy is F=E-TS. E is the sum of the following terms:
     one-electron contribution =  -18047.68479458 Ry
     hartree contribution      =    9010.49211028 Ry
     xc contribution           =    -385.22128338 Ry
     ewald contribution        =    7216.90213393 Ry

     convergence has been achieved in  14 iterations

     negative rho (up, down):  1.377E-04 0.000E+00

     Forces acting on atoms (cartesian axes, Ry/au):

     atom    1 type  1   force =     0.01930169   -0.01849130    0.00203359
     atom    2 type  2   force =    -0.01552621    0.01650557    0.00112450
     atom    3 type  2   force =    -0.01020162    0.00759677   -0.00461061
     atom    4 type  1   force =     0.00359351    0.00628791   -0.00129590
     atom    5 type  2   force =    -0.00072755   -0.00662651   -0.00499373
     atom    6 type  2   force =     0.00154616    0.00966920   -0.00077771
     atom    7 type  1   force =     0.00730757   -0.02051912   -0.00734924
     atom    8 type  2   force =     0.00124205   -0.00388943    0.01727967
     atom    9 type  2   force =     0.01193769    0.00664607    0.01167443
     atom   10 type  1   force =    -0.00925795    0.01030957   -0.02655188
     atom   11 type  2   force =     0.00605326   -0.00179308   -0.00661799
     atom   12 type  2   force =     0.00116918    0.00171037    0.00427137
     atom   13 type  1   force =     0.00500855    0.00596145   -0.01027953
     atom   14 type  2   force =    -0.00360373   -0.00600231    0.01589512
     atom   15 type  2   force =    -0.01273337    0.00329947   -0.00922336
     atom   16 type  1   force =     0.00215985    0.00921606    0.00363783
     atom   17 type  2   force =     0.00631584    0.00212469    0.00140314
     atom   18 type  2   force =    -0.00367537   -0.00417023    0.01323457
     atom   19 type  1   force =     0.00575346   -0.01224793   -0.01305174
     atom   20 type  2   force =     0.00119139   -0.00486425    0.00193154
     atom   21 type  1   force =    -0.00913132    0.00391383    0.00031732
     atom   22 type  2   force =    -0.00487287    0.01915157    0.00474559
     atom   23 type  2   force =    -0.00206733    0.00202221    0.00918808
     atom   24 type  1   force =    -0.02887442    0.01325371   -0.04363843
     atom   25 type  2   force =     0.06902278   -0.01866762    0.04426709
     atom   26 type  2   force =    -0.01173320   -0.00022467   -0.00427240
     atom   27 type  1   force =    -0.00288199   -0.00504639    0.00541119
     atom   28 type  2   force =    -0.00009968    0.00039913   -0.00355565
     atom   29 type  2   force =     0.00207367   -0.00323699   -0.00152353
     atom   30 type  1   force =    -0.00255352    0.01283665   -0.00596761
     atom   31 type  2   force =     0.00006977   -0.00114555    0.01645121
     atom   32 type  2   force =    -0.00728105    0.00749722    0.00914748
     atom   33 type  1   force =     0.01086207   -0.00650047   -0.01730724
     atom   34 type  2   force =     0.00278099   -0.04365087   -0.00834553
     atom   35 type  2   force =    -0.01036867    0.00548256    0.01440986
     atom   36 type  3   force =    -0.02179963    0.01319273   -0.00706151
     The non-local contrib.  to forces
     atom    1 type  1   force =    -0.00336324    0.02895595   -0.00854283
     atom    2 type  2   force =    -0.01535746    0.00072301   -0.26019157
     atom    3 type  2   force =    -0.01243081   -0.00122461    0.27217457
     atom    4 type  1   force =     0.00159851    0.00453173    0.00556553
     atom    5 type  2   force =     0.00482614   -0.03285714   -0.25392854
     atom    6 type  2   force =    -0.00123479    0.01114320    0.26326713
     atom    7 type  1   force =    -0.02114115    0.00443862   -0.02125483
     atom    8 type  2   force =     0.00541437   -0.00233788   -0.25460540
     atom    9 type  2   force =     0.00679277   -0.00836873    0.27684822
     atom   10 type  1   force =     0.00250507   -0.00119363   -0.00016968
     atom   11 type  2   force =     0.01578370    0.00448085   -0.25853226
     atom   12 type  2   force =    -0.01174456   -0.01652200    0.26390484
     atom   13 type  1   force =    -0.00316532    0.02018151   -0.00304050
     atom   14 type  2   force =    -0.01690055   -0.02556671   -0.22116605
     atom   15 type  2   force =    -0.01556343   -0.00581450    0.26027497
     atom   16 type  1   force =     0.00078052    0.03079089   -0.02862324
     atom   17 type  2   force =     0.00301724   -0.03084470   -0.24739888
     atom   18 type  2   force =    -0.00364479   -0.00354103    0.27411231
     atom   19 type  1   force =     0.01272786    0.00043193   -0.01913448
     atom   20 type  2   force =    -0.00001896   -0.02197101    0.26634700
     atom   21 type  1   force =     0.00112191    0.02443254    0.00774457
     atom   22 type  2   force =    -0.00988733    0.03972434   -0.21010891
     atom   23 type  2   force =     0.00441126   -0.01475187    0.26866454
     atom   24 type  1   force =     0.01706130    0.01038293   -0.01231795
     atom   25 type  2   force =     0.16488050   -0.07708368   -0.10696603
     atom   26 type  2   force =    -0.00023548   -0.01438399    0.26510172
     atom   27 type  1   force =    -0.00415750    0.01057775    0.00878964
     atom   28 type  2   force =    -0.00592392   -0.01859971   -0.27087205
     atom   29 type  2   force =     0.00641607    0.00010474    0.26555535
     atom   30 type  1   force =     0.00004079    0.01586248    0.00949180
     atom   31 type  2   force =    -0.01042421   -0.00149236   -0.25276311
     atom   32 type  2   force =    -0.00199987   -0.00862484    0.27446136
     atom   33 type  1   force =    -0.00659704    0.00961265    0.00936447
     atom   34 type  2   force =     0.00408630   -0.03587214   -0.27152547
     atom   35 type  2   force =    -0.00314431   -0.01135965    0.27131397
     atom   36 type  3   force =    -0.00872961    0.00562044   -0.00994245
     The ionic contribution  to forces
     atom    1 type  1   force =     0.52948406    0.35368379    5.59033698
     atom    2 type  2   force =    -0.69653428    0.43876996   39.26228562
     atom    3 type  2   force =    -0.17131631    0.02756776  -36.10791161
     atom    4 type  1   force =     0.08438247    0.63072965    0.68177059
     atom    5 type  2   force =    -0.92573198    1.56068013   38.74557792
     atom    6 type  2   force =     0.35830791   -0.47696104  -38.02655303
     atom    7 type  1   force =    -2.55611113   -2.87167779    2.54863801
     atom    8 type  2   force =    -0.98948811    0.00429409   37.39522245
     atom    9 type  2   force =     0.34024278   -0.04496248  -37.99246702
     atom   10 type  1   force =    -1.13771655   -0.38088109    5.58400128
     atom   11 type  2   force =    -0.45296863   -1.70111362   39.11260229
     atom   12 type  2   force =     0.46382998    0.66816955  -37.87410939
     atom   13 type  1   force =     0.54170591    1.39513468    2.31584983
     atom   14 type  2   force =     0.57688022    0.23253972   38.24618617
     atom   15 type  2   force =     0.19986238   -0.04095193  -36.88103323
     atom   16 type  1   force =     0.03105424    4.03342818    0.45605798
     atom   17 type  2   force =     0.82540903    1.66767256   37.89653670
     atom   18 type  2   force =    -0.15756912   -0.60810102  -38.58876296
     atom   19 type  1   force =     2.73703845   -2.63574550    0.54817071
     atom   20 type  2   force =     0.24033381   -0.21145861  -38.47832855
     atom   21 type  1   force =     0.35678639   -0.14190862    0.75174991
     atom   22 type  2   force =     0.54654451   -2.27493011   38.16237174
     atom   23 type  2   force =    -0.08057503    0.61891830  -38.36460125
     atom   24 type  1   force =    -0.75254234    1.30094968    5.67634836
     atom   25 type  2   force =    -0.07735649    0.73545412   38.74721788
     atom   26 type  2   force =    -0.32395324    0.09128659  -37.42739081
     atom   27 type  1   force =    -0.02060462    0.50316378   -2.29072801
     atom   28 type  2   force =    -0.00252669    1.08585848   38.19980477
     atom   29 type  2   force =    -0.28179444   -0.40124285  -37.27068819
     atom   30 type  1   force =    -0.41524740   -1.00991405   -0.06540713
     atom   31 type  2   force =     1.19821417   -0.11342424   37.31904105
     atom   32 type  2   force =    -0.48994590   -0.02127833  -38.63772447
     atom   33 type  1   force =     0.47812480   -1.10677950    1.48400853
     atom   34 type  2   force =     0.07265829   -1.57086373   39.30751797
     atom   35 type  2   force =    -0.32895083    0.44905980  -37.84479010
     atom   36 type  3   force =     0.28007365   -0.18516630    7.81919900
     The local contribution  to forces
     atom    1 type  1   force =    -0.50696677   -0.40114128   -5.57976810
     atom    2 type  2   force =     0.69590977   -0.42294798  -39.02155674
     atom    3 type  2   force =     0.17297586   -0.01871631   35.85251282
     atom    4 type  1   force =    -0.08234642   -0.62887540   -0.68861490
     atom    5 type  2   force =     0.92077259   -1.53632926  -38.51740483
     atom    6 type  2   force =    -0.35579987    0.47662710   37.78380232
     atom    7 type  1   force =     2.58473791    2.84693907   -2.53473421
     atom    8 type  2   force =     0.98558561   -0.00629039  -37.14408606
     atom    9 type  2   force =    -0.33494265    0.05944571   37.74866221
     atom   10 type  1   force =     1.12595619    0.39238938   -5.61024986
     atom   11 type  2   force =     0.44396356    1.69537109  -38.88160588
     atom   12 type  2   force =    -0.45203028   -0.65138091   37.63576595
     atom   13 type  1   force =    -0.53333573   -1.40925440   -2.32305592
     atom   14 type  2   force =    -0.56455594   -0.21377745  -38.02806054
     atom   15 type  2   force =    -0.19787588    0.04977314   36.63252475
     atom   16 type  1   force =    -0.02974847   -4.05545054   -0.42385780
     atom   17 type  2   force =    -0.82209829   -1.63641015  -37.66823612
     atom   18 type  2   force =     0.15751434    0.60798423   38.34936284
     atom   19 type  1   force =    -2.74434148    2.62334859   -0.54204220
     atom   20 type  2   force =    -0.23928567    0.22777858   38.23545545
     atom   21 type  1   force =    -0.36704587    0.12133960   -0.75901790
     atom   22 type  2   force =    -0.54192484    2.25669950  -37.96595366
     atom   23 type  2   force =     0.07449689   -0.60350729   38.12647586
     atom   24 type  1   force =     0.70650263   -1.29805256   -5.70764702
     atom   25 type  2   force =    -0.00965225   -0.68136932  -38.60852783
     atom   26 type  2   force =     0.31276537   -0.07787540   37.17937950
     atom   27 type  1   force =     0.02189020   -0.51871053    2.28737047
     atom   28 type  2   force =     0.00801400   -1.06840027  -37.95354978
     atom   29 type  2   force =     0.27799921    0.39849750   37.02465213
     atom   30 type  1   force =     0.41278812    1.00684735    0.04998551
     atom   31 type  2   force =    -1.18831244    0.11368384  -37.07069409
     atom   32 type  2   force =     0.48482240    0.03689825   38.39386637
     atom   33 type  1   force =    -0.46064563    1.09041226   -1.51056492
     atom   34 type  2   force =    -0.07406636    1.56205512  -39.06568439
     atom   35 type  2   force =     0.32178203   -0.43333676   37.60941907
     atom   36 type  3   force =    -0.29313542    0.19272569   -7.81633317
     The core correction contribution to forces
     atom    1 type  1   force =     0.00000000    0.00000000    0.00000000
     atom    2 type  2   force =     0.00045669   -0.00007930    0.02024997
     atom    3 type  2   force =     0.00055589   -0.00001276   -0.02095808
     atom    4 type  1   force =     0.00000000    0.00000000    0.00000000
     atom    5 type  2   force =    -0.00053877    0.00184338    0.02039491
     atom    6 type  2   force =     0.00026185   -0.00111110   -0.02089056
     atom    7 type  1   force =     0.00000000    0.00000000    0.00000000
     atom    8 type  2   force =    -0.00019048    0.00042192    0.02041218
     atom    9 type  2   force =    -0.00011356    0.00050493   -0.02099655
     atom   10 type  1   force =     0.00000000    0.00000000    0.00000000
     atom   11 type  2   force =    -0.00072463   -0.00048416    0.02058577
     atom   12 type  2   force =     0.00110255    0.00137719   -0.02087943
     atom   13 type  1   force =     0.00000000    0.00000000    0.00000000
     atom   14 type  2   force =     0.00095898    0.00082305    0.01857530
     atom   15 type  2   force =     0.00082702    0.00035989   -0.02052776
     atom   16 type  1   force =     0.00000000    0.00000000    0.00000000
     atom   17 type  2   force =    -0.00003283    0.00162667    0.02011582
     atom   18 type  2   force =     0.00005278   -0.00048952   -0.02105589
     atom   19 type  1   force =     0.00000000    0.00000000    0.00000000
     atom   20 type  2   force =     0.00011155    0.00081797   -0.02122347
     atom   21 type  1   force =     0.00000000    0.00000000    0.00000000
     atom   22 type  2   force =     0.00036173   -0.00238366    0.01808252
     atom   23 type  2   force =    -0.00042728    0.00124890   -0.02091490
     atom   24 type  1   force =     0.00000000    0.00000000    0.00000000
     atom   25 type  2   force =    -0.00884879    0.00433947    0.01225700
     atom   26 type  2   force =    -0.00026487    0.00077547   -0.02094578
     atom   27 type  1   force =     0.00000000    0.00000000    0.00000000
     atom   28 type  2   force =     0.00031956    0.00155289    0.02075176
     atom   29 type  2   force =    -0.00056010   -0.00051080   -0.02066353
     atom   30 type  1   force =     0.00000000    0.00000000    0.00000000
     atom   31 type  2   force =     0.00054732    0.00015731    0.02050236
     atom   32 type  2   force =    -0.00015166    0.00053985   -0.02106503
     atom   33 type  1   force =     0.00000000    0.00000000    0.00000000
     atom   34 type  2   force =     0.00011102    0.00104486    0.02101537
     atom   35 type  2   force =    -0.00002942    0.00102558   -0.02111020
     atom   36 type  3   force =     0.00000000    0.00000000    0.00000000
     The Hubbard contrib.    to forces
     atom    1 type  1   force =     0.00000000    0.00000000    0.00000000
     atom    2 type  2   force =     0.00000000    0.00000000    0.00000000
     atom    3 type  2   force =     0.00000000    0.00000000    0.00000000
     atom    4 type  1   force =     0.00000000    0.00000000    0.00000000
     atom    5 type  2   force =     0.00000000    0.00000000    0.00000000
     atom    6 type  2   force =     0.00000000    0.00000000    0.00000000
     atom    7 type  1   force =     0.00000000    0.00000000    0.00000000
     atom    8 type  2   force =     0.00000000    0.00000000    0.00000000
     atom    9 type  2   force =     0.00000000    0.00000000    0.00000000
     atom   10 type  1   force =     0.00000000    0.00000000    0.00000000
     atom   11 type  2   force =     0.00000000    0.00000000    0.00000000
     atom   12 type  2   force =     0.00000000    0.00000000    0.00000000
     atom   13 type  1   force =     0.00000000    0.00000000    0.00000000
     atom   14 type  2   force =     0.00000000    0.00000000    0.00000000
     atom   15 type  2   force =     0.00000000    0.00000000    0.00000000
     atom   16 type  1   force =     0.00000000    0.00000000    0.00000000
     atom   17 type  2   force =     0.00000000    0.00000000    0.00000000
     atom   18 type  2   force =     0.00000000    0.00000000    0.00000000
     atom   19 type  1   force =     0.00000000    0.00000000    0.00000000
     atom   20 type  2   force =     0.00000000    0.00000000    0.00000000
     atom   21 type  1   force =     0.00000000    0.00000000    0.00000000
     atom   22 type  2   force =     0.00000000    0.00000000    0.00000000
     atom   23 type  2   force =     0.00000000    0.00000000    0.00000000
     atom   24 type  1   force =     0.00000000    0.00000000    0.00000000
     atom   25 type  2   force =     0.00000000    0.00000000    0.00000000
     atom   26 type  2   force =     0.00000000    0.00000000    0.00000000
     atom   27 type  1   force =     0.00000000    0.00000000    0.00000000
     atom   28 type  2   force =     0.00000000    0.00000000    0.00000000
     atom   29 type  2   force =     0.00000000    0.00000000    0.00000000
     atom   30 type  1   force =     0.00000000    0.00000000    0.00000000
     atom   31 type  2   force =     0.00000000    0.00000000    0.00000000
     atom   32 type  2   force =     0.00000000    0.00000000    0.00000000
     atom   33 type  1   force =     0.00000000    0.00000000    0.00000000
     atom   34 type  2   force =     0.00000000    0.00000000    0.00000000
     atom   35 type  2   force =     0.00000000    0.00000000    0.00000000
     atom   36 type  3   force =     0.00000000    0.00000000    0.00000000
     The SCF correction term to forces
     atom    1 type  1   force =     0.00014758    0.00000690    0.00001295
     atom    2 type  2   force =    -0.00000098    0.00003654    0.00034263
     atom    3 type  2   force =     0.00001368   -0.00002064   -0.00042290
     atom    4 type  1   force =    -0.00004111   -0.00010140   -0.00001170
     atom    5 type  2   force =    -0.00005558    0.00003304    0.00037221
     atom    6 type  2   force =     0.00001100   -0.00003229   -0.00039816
     atom    7 type  1   force =    -0.00017812   -0.00022234    0.00000721
     atom    8 type  2   force =    -0.00007940    0.00001950    0.00034191
     atom    9 type  2   force =    -0.00004171    0.00002331   -0.00036702
     atom   10 type  1   force =    -0.00000271   -0.00000842   -0.00012821
     atom   11 type  2   force =    -0.00000079   -0.00005055    0.00033750
     atom   12 type  2   force =     0.00001144    0.00006320   -0.00040519
     atom   13 type  1   force =    -0.00019638   -0.00010366   -0.00002752
     atom   14 type  2   force =     0.00001351   -0.00002424    0.00036565
     atom   15 type  2   force =     0.00001648   -0.00007045   -0.00045668
     atom   16 type  1   force =     0.00007350    0.00044421    0.00006630
     atom   17 type  2   force =     0.00002063    0.00007699    0.00039102
     atom   18 type  2   force =    -0.00002863   -0.00002621   -0.00041631
     atom   19 type  1   force =     0.00032857   -0.00028629   -0.00004035
     atom   20 type  2   force =     0.00005060   -0.00003450   -0.00031347
     atom   21 type  1   force =     0.00000620    0.00004698   -0.00015385
     atom   22 type  2   force =     0.00003300    0.00003817    0.00035932
     atom   23 type  2   force =     0.00002678    0.00011084   -0.00043076
     atom   24 type  1   force =     0.00010393   -0.00002968   -0.00001640
     atom   25 type  2   force =    -0.00000024   -0.00001154    0.00029147
     atom   26 type  2   force =    -0.00004504   -0.00003068   -0.00041163
     atom   27 type  1   force =    -0.00001013   -0.00008071   -0.00001550
     atom   28 type  2   force =     0.00001732   -0.00001559    0.00031507
     atom   29 type  2   force =     0.00001287   -0.00008890   -0.00037389
     atom   30 type  1   force =    -0.00013508    0.00003755   -0.00003238
     atom   31 type  2   force =     0.00004488   -0.00007342    0.00037040
     atom   32 type  2   force =    -0.00000608   -0.00004104   -0.00038534
     atom   33 type  1   force =    -0.00002012    0.00025080   -0.00010989
     atom   34 type  2   force =    -0.00000831   -0.00001831    0.00033641
     atom   35 type  2   force =    -0.00002619    0.00009026   -0.00041747
     atom   36 type  3   force =    -0.00000831    0.00000957    0.00002053

     Total force =     0.142366     Total SCF correction =     0.002020

     BFGS Geometry Optimization
     Energy error            =      0.0E+00 Ry
     Gradient error          =      6.9E-02 Ry/Bohr

     number of scf cycles    =   1
     number of bfgs steps    =   0

     energy             new  =   -2205.5175615850 Ry

     new trust radius        =       0.0840963641 bohr
     new conv_thr            =       0.0000010000 Ry


ATOMIC_POSITIONS (angstrom)
Mo            6.5847624230        1.7780210527        2.8247191590
S             8.1684932231        0.8184383950        4.4351334137
S             8.1878346217        0.8152617834        1.2754435986
Mo            8.0970641678        4.4983843613        2.7171326341
S             6.4995242519        3.7189048892        4.3440180794
S             6.5541679894        3.5168542777        1.1208686834
Mo            6.4938486985        7.2075790354        2.6679954364
S             8.0823849923        6.3418127928        4.2516055730
S             8.0872348008        6.3082192645        1.0900408394
Mo            8.1557199547        9.9076360022        2.8294111102
S             6.4983708415        8.9419779592        4.3796034438
S             6.6185659055        9.0496163008        1.1421676125
Mo            3.4243100711        1.7501105137        2.7710314705
S             4.9732584791        0.8137649259        4.3589444301
S             5.0510955426        0.8480081119        1.2217776688
Mo            4.9808996223        4.5180549341        2.6348096063
S             3.4311838616        3.6727240235        4.2804520874
S             3.4359756602        3.5460219054        1.0653551151
Mo            3.4569063398        7.2098432108        2.6237701794
S             4.9838646519        6.3243582369        1.0382758588
Mo            5.0074318357        9.9036711609        2.7435688776
S             3.4683795044        8.9538858425        4.3281025707
S             3.4073351837        9.0660600892        1.1009304192
Mo            0.2808108013        1.7545230915        2.8263522486
S             1.8869874928        0.7828155292        4.4216345719
S             1.8545910909        0.8543070258        1.2071399967
Mo            1.8591662274        4.4929963259        2.6630608592
S             0.2721610996        3.6546100345        4.3357025325
S             0.2323285461        3.5255362867        1.1712116663
Mo            0.2698008887        7.2234389569        2.6985385054
S             1.9022751684        6.3121926377        4.2311497253
S             1.8583852494        6.3143111676        1.0493999208
Mo            1.8500946224        9.9366992511        2.7637876573
S             0.2973845343        9.0668987829        4.4094532009
S             0.2712845363        9.0464269580        1.1580261483
H             3.1407174651        0.0069812935        5.3397249707



     Writing config-only to output data dir ./MoS2-V-O.save/
     NEW-OLD atomic charge density approx. for the potential

     negative rho (up, down):  1.462E-04 0.000E+00

     total cpu time spent up to now is       73.9 secs

     Self-consistent Calculation

     iteration #  1     ecut=    80.00 Ry     beta= 0.70
     Davidson diagonalization with overlap
     ethr =  1.00E-06,  avg # of iterations = 11.0

     negative rho (up, down):  1.128E-04 0.000E+00

     total cpu time spent up to now is       88.6 secs

     total energy              =   -2205.53416666 Ry
     estimated scf accuracy    <       0.00188786 Ry

     iteration #  2     ecut=    80.00 Ry     beta= 0.70
     Davidson diagonalization with overlap
     ethr =  6.15E-07,  avg # of iterations =  2.0

     negative rho (up, down):  1.085E-04 0.000E+00

     total cpu time spent up to now is      105.5 secs

     total energy              =   -2205.53415697 Ry
     estimated scf accuracy    <       0.00040675 Ry

     iteration #  3     ecut=    80.00 Ry     beta= 0.70
     Davidson diagonalization with overlap
     ethr =  1.32E-07,  avg # of iterations =  5.0

     negative rho (up, down):  1.086E-04 0.000E+00

     total cpu time spent up to now is      117.4 secs

     total energy              =   -2205.53421277 Ry
     estimated scf accuracy    <       0.00003267 Ry

     iteration #  4     ecut=    80.00 Ry     beta= 0.70
     Davidson diagonalization with overlap
     ethr =  1.06E-08,  avg # of iterations = 14.0

     negative rho (up, down):  1.035E-04 0.000E+00

     total cpu time spent up to now is      132.4 secs

     total energy              =   -2205.53422265 Ry
     estimated scf accuracy    <       0.00000886 Ry

     iteration #  5     ecut=    80.00 Ry     beta= 0.70
     Davidson diagonalization with overlap
     ethr =  2.89E-09,  avg # of iterations =  2.0

     negative rho (up, down):  9.685E-05 0.000E+00

     total cpu time spent up to now is      143.9 secs

     total energy              =   -2205.53422368 Ry
     estimated scf accuracy    <       0.00000200 Ry

     iteration #  6     ecut=    80.00 Ry     beta= 0.70
     Davidson diagonalization with overlap
     ethr =  6.53E-10,  avg # of iterations =  3.0

     negative rho (up, down):  9.594E-05 0.000E+00

     total cpu time spent up to now is      157.9 secs

     total energy              =   -2205.53422405 Ry
     estimated scf accuracy    <       0.00000114 Ry

     iteration #  7     ecut=    80.00 Ry     beta= 0.70
     Davidson diagonalization with overlap
     ethr =  3.72E-10,  avg # of iterations =  2.0

     negative rho (up, down):  1.379E-04 0.000E+00

     total cpu time spent up to now is      159.8 secs

     End of self-consistent calculation

          k = 0.0000 0.0000 0.0000 (105382 PWs)   bands (ev):

   -62.8857 -62.8813 -62.8629 -62.8505 -62.8351 -62.8175 -62.8119 -62.8037
   -62.8023 -62.7986 -62.7756 -62.7536 -37.2306 -37.1705 -37.1519 -37.1472
   -37.1226 -37.1066 -37.0837 -37.0774 -37.0745 -37.0717 -37.0646 -37.0405
   -37.0357 -37.0302 -37.0167 -37.0126 -37.0100 -36.9983 -36.9941 -36.9833
   -36.9746 -36.9626 -36.9583 -36.9395 -36.9343 -36.9276 -36.9180 -36.9089
   -36.9034 -36.8875 -36.8773 -36.8630 -36.8544 -36.7956 -36.7609 -36.7162
   -16.0280 -15.2652 -15.1816 -15.0408 -14.9183 -14.8534 -14.6106 -14.5139
   -14.4547 -14.4241 -14.3955 -14.3763 -14.3568 -14.2943 -14.1761 -14.1354
   -14.1305 -14.1233 -14.0471 -13.9127 -13.8563 -13.8394 -13.8052  -8.0999
    -7.6224  -7.4268  -7.2956  -7.2675  -7.2418  -7.1899  -7.1455  -6.9563
    -6.8490  -6.7855  -6.7665  -6.6885  -6.5851  -6.5134  -6.4816  -6.4221
    -6.3490  -6.2689  -6.0159  -5.9724  -5.9201  -5.9034  -5.8240  -5.7975
    -5.7729  -5.7166  -5.6967  -5.6702  -5.6298  -5.5525  -5.5390  -5.4749
    -5.4043  -5.3685  -5.1858  -5.1656  -5.0581  -5.0054  -4.9989  -4.9756
    -4.9227  -4.8422  -4.6592  -4.5366  -4.4205  -4.3310  -4.3057  -4.2335
    -4.1986  -4.1136  -4.0483  -3.9256  -3.8314  -3.7934  -3.7417  -3.7053
    -3.6696  -3.5970  -3.5378  -3.5276  -3.4973  -3.4643  -3.4415  -3.3914
    -3.3693  -3.2144  -3.1384  -2.9138  -2.8936  -2.7953  -2.7827  -2.7501
    -2.7226  -2.7071  -2.6583  -2.6384  -2.5718  -2.3068  -2.0894  -2.0027
    -1.9514  -1.0799  -0.7951  -0.6751  -0.1817  -0.1411  -0.1064  -0.0455
     0.0792   0.1045   0.1441   0.2426   0.2587   0.2697   0.3756   0.4465
     0.4650   0.5381   0.5623   0.5852   0.6073   0.6417   0.7197   0.7286
     0.7549   0.7807   0.8355   0.8772   0.9491   0.9688   1.0295   1.2920
     1.3702

     the Fermi energy is    -1.0803 ev

!    total energy              =   -2205.53422358 Ry
     estimated scf accuracy    <       0.00000063 Ry
     smearing contrib. (-TS)   =      -0.00571228 Ry
     internal energy E=F+TS    =   -2205.52851131 Ry

     The total energy is F=E-TS. E is the sum of the following terms:
     one-electron contribution =  -18045.96965943 Ry
     hartree contribution      =    9009.66694223 Ry
     xc contribution           =    -385.22029952 Ry
     ewald contribution        =    7215.99450541 Ry

     convergence has been achieved in   7 iterations

     negative rho (up, down):  1.379E-04 0.000E+00

     Forces acting on atoms (cartesian axes, Ry/au):

     atom    1 type  1   force =     0.00448119   -0.01146831    0.00055629
     atom    2 type  2   force =    -0.00817458    0.01161014   -0.00224611
     atom    3 type  2   force =    -0.01135257    0.00609969   -0.01315130
     atom    4 type  1   force =     0.00446327    0.00449640    0.00109215
     atom    5 type  2   force =     0.00094028   -0.00642504   -0.00502618
     atom    6 type  2   force =     0.00152581    0.00720810    0.00074675
     atom    7 type  1   force =     0.00554882   -0.01327321   -0.00104479
     atom    8 type  2   force =     0.00180540   -0.00331789    0.01276577
     atom    9 type  2   force =     0.01108978    0.00556905    0.00635448
     atom   10 type  1   force =    -0.00264743    0.00920890   -0.00853008
     atom   11 type  2   force =     0.00484781   -0.00220846   -0.00969890
     atom   12 type  2   force =    -0.00194725    0.00023872    0.00122002
     atom   13 type  1   force =     0.00465321    0.00264632   -0.00165142
     atom   14 type  2   force =     0.00186701   -0.00204515    0.00689789
     atom   15 type  2   force =    -0.00878360    0.00252716   -0.00736342
     atom   16 type  1   force =     0.00219344    0.00617350    0.00309116
     atom   17 type  2   force =     0.00552244    0.00184772    0.00103815
     atom   18 type  2   force =    -0.00229702   -0.00207461    0.00987687
     atom   19 type  1   force =     0.00264403   -0.00570792   -0.00107949
     atom   20 type  2   force =     0.00228588   -0.00534193   -0.00285463
     atom   21 type  1   force =    -0.00511199    0.00311660    0.00228035
     atom   22 type  2   force =    -0.00385389    0.00970226   -0.00010189
     atom   23 type  2   force =    -0.00035897    0.00030196    0.00339614
     atom   24 type  1   force =    -0.01117652    0.00408463   -0.01795439
     atom   25 type  2   force =     0.05372600   -0.01742799    0.03200627
     atom   26 type  2   force =    -0.00921212    0.00078552   -0.00524192
     atom   27 type  1   force =    -0.00292845   -0.00317370    0.00677082
     atom   28 type  2   force =    -0.00108592   -0.00188322   -0.00500513
     atom   29 type  2   force =     0.00016335    0.00137596   -0.00591122
     atom   30 type  1   force =    -0.00172221    0.00356714    0.00303704
     atom   31 type  2   force =     0.00054410   -0.00027649    0.00973417
     atom   32 type  2   force =    -0.00665889    0.00529571    0.00640247
     atom   33 type  1   force =     0.00517487   -0.00266626   -0.00175651
     atom   34 type  2   force =     0.00032144   -0.03154626   -0.01395733
     atom   35 type  2   force =    -0.00854705    0.00632593    0.00581626
     atom   36 type  3   force =    -0.02793967    0.01665500   -0.01050831
     The non-local contrib.  to forces
     atom    1 type  1   force =    -0.00027930    0.02643616   -0.00870493
     atom    2 type  2   force =    -0.01209200   -0.00282441   -0.25974922
     atom    3 type  2   force =    -0.01167267   -0.00270657    0.26537237
     atom    4 type  1   force =     0.00217890    0.00608122    0.00430941
     atom    5 type  2   force =     0.00580012   -0.03285864   -0.25487204
     atom    6 type  2   force =    -0.00105230    0.00826036    0.26532867
     atom    7 type  1   force =    -0.02105897    0.00294733   -0.02355460
     atom    8 type  2   force =     0.00672084   -0.00167035   -0.25715719
     atom    9 type  2   force =     0.00611144   -0.00912452    0.27368716
     atom   10 type  1   force =     0.00125773   -0.00065501   -0.00133982
     atom   11 type  2   force =     0.01372008    0.00362661   -0.26127536
     atom   12 type  2   force =    -0.01372713   -0.01810540    0.26379787
     atom   13 type  1   force =    -0.00292303    0.02091587   -0.00419810
     atom   14 type  2   force =    -0.00878401   -0.02182739   -0.22959536
     atom   15 type  2   force =    -0.01252799   -0.00605639    0.26150012
     atom   16 type  1   force =     0.00076224    0.03209848   -0.02986550
     atom   17 type  2   force =     0.00252939   -0.03001410   -0.24783184
     atom   18 type  2   force =    -0.00244570   -0.00186982    0.27238523
     atom   19 type  1   force =     0.01476404    0.00015259   -0.02054325
     atom   20 type  2   force =     0.00066817   -0.02140434    0.26312172
     atom   21 type  1   force =    -0.00012382    0.02449116    0.00535493
     atom   22 type  2   force =    -0.00723094    0.02967034   -0.21626765
     atom   23 type  2   force =     0.00524419   -0.01666562    0.26608011
     atom   24 type  1   force =     0.01312487    0.01250367   -0.01077744
     atom   25 type  2   force =     0.17324960   -0.08719684   -0.10768931
     atom   26 type  2   force =     0.00096467   -0.01327985    0.26629735
     atom   27 type  1   force =    -0.00480560    0.00960039    0.00722569
     atom   28 type  2   force =    -0.00670622   -0.01720323   -0.27104202
     atom   29 type  2   force =     0.00434575    0.00131745    0.26383362
     atom   30 type  1   force =    -0.00037590    0.01717991    0.00818835
     atom   31 type  2   force =    -0.01004849   -0.00126840   -0.25752152
     atom   32 type  2   force =    -0.00070806   -0.00986805    0.27318627
     atom   33 type  1   force =    -0.00481706    0.00887070    0.00696715
     atom   34 type  2   force =     0.00195762   -0.02650465   -0.27548073
     atom   35 type  2   force =    -0.00250128   -0.01045156    0.26639807
     atom   36 type  3   force =    -0.01133047    0.00730351   -0.01167651
     The ionic contribution  to forces
     atom    1 type  1   force =     0.11747885    0.53862742    5.70328388
     atom    2 type  2   force =    -0.42468554    0.30669629   39.34951922
     atom    3 type  2   force =    -0.19930696   -0.02879699  -36.25909350
     atom    4 type  1   force =     0.06071289    0.60977740    0.77352196
     atom    5 type  2   force =    -0.93344211    1.52194779   38.70141407
     atom    6 type  2   force =     0.28951751   -0.51569031  -37.96407129
     atom    7 type  1   force =    -2.63804951   -2.55493559    2.52531251
     atom    8 type  2   force =    -0.96917684    0.03865132   37.53588359
     atom    9 type  2   force =     0.35405415   -0.06391494  -37.98711673
     atom   10 type  1   force =    -0.92255077   -0.40165537    5.34646129
     atom   11 type  2   force =    -0.42560300   -1.70973601   39.02479438
     atom   12 type  2   force =     0.35897054    0.60527610  -37.81217428
     atom   13 type  1   force =     0.36941016    1.35065899    2.19103296
     atom   14 type  2   force =     0.59065240    0.28583503   38.29863655
     atom   15 type  2   force =     0.22464079   -0.01067428  -36.89593835
     atom   16 type  1   force =     0.00820464    3.81929147    0.64103913
     atom   17 type  2   force =     0.79742953    1.62223525   37.90556953
     atom   18 type  2   force =    -0.13453966   -0.56449925  -38.50661361
     atom   19 type  1   force =     2.67519650   -2.49515195    0.43627378
     atom   20 type  2   force =     0.23421607   -0.19960799  -38.53804196
     atom   21 type  1   force =     0.45531260   -0.25631640    0.87109777
     atom   22 type  2   force =     0.53838157   -2.38062801   38.16624814
     atom   23 type  2   force =    -0.03281539    0.58032687  -38.33997896
     atom   24 type  1   force =    -0.12704775    0.86913157    5.19222509
     atom   25 type  2   force =    -0.48375333    0.84905611   38.70582700
     atom   26 type  2   force =    -0.27103288    0.08765728  -37.32838756
     atom   27 type  1   force =     0.01604060    0.54959293   -2.01541984
     atom   28 type  2   force =     0.04661476    0.94145417   38.22202794
     atom   29 type  2   force =    -0.23546562   -0.26529801  -37.33664802
     atom   30 type  1   force =    -0.31274409   -1.12554587   -0.05212836
     atom   31 type  2   force =     1.21502696   -0.07925926   37.36957890
     atom   32 type  2   force =    -0.48940396   -0.07280192  -38.57225887
     atom   33 type  1   force =     0.19592725   -0.77399939    1.36676699
     atom   34 type  2   force =     0.02490304   -1.32491168   39.21626809
     atom   35 type  2   force =    -0.28616159    0.46201046  -37.78380412
     atom   36 type  3   force =     0.31308819   -0.21480323    7.84889268
     The local contribution  to forces
     atom    1 type  1   force =    -0.11253673   -0.57644384   -5.69504766
     atom    2 type  2   force =     0.42794407   -0.29210275  -39.11271031
     atom    3 type  2   force =     0.19913446    0.03765132   36.00109382
     atom    4 type  1   force =    -0.05843933   -0.61145132   -0.77764797
     atom    5 type  2   force =     0.92920218   -1.49730451  -38.47230869
     atom    6 type  2   force =    -0.28713488    0.51564700   37.72011231
     atom    7 type  1   force =     2.66478497    2.53852372   -2.50386361
     atom    8 type  2   force =     0.96449744   -0.04075855  -37.28682524
     atom    9 type  2   force =    -0.34902166    0.07813001   37.74043344
     atom   10 type  1   force =     0.91862019    0.41150899   -5.35491714
     atom   11 type  2   force =     0.41735239    1.70433849  -38.79417306
     atom   12 type  2   force =    -0.34823011   -0.58829435   37.57005769
     atom   13 type  1   force =    -0.36163532   -1.36874603   -2.18976533
     atom   14 type  2   force =    -0.58046579   -0.26671540  -38.08144029
     atom   15 type  2   force =    -0.22161261    0.01888522   36.64726810
     atom   16 type  1   force =    -0.00669164   -3.84521063   -0.60906417
     atom   17 type  2   force =    -0.79440131   -1.59183602  -37.67719610
     atom   18 type  2   force =     0.13468288    0.56480353   38.26481798
     atom   19 type  1   force =    -2.68739614    2.48921124   -0.41789061
     atom   20 type  2   force =    -0.23264561    0.21481039   38.29286840
     atom   21 type  1   force =    -0.46019259    0.23502259   -0.87536486
     atom   22 type  2   force =    -0.53524486    2.36264976  -37.96872766
     atom   23 type  2   force =     0.02757893   -0.56462718   38.09776969
     atom   24 type  1   force =     0.10237793   -0.87726001   -5.20080458
     atom   25 type  2   force =     0.37421155   -0.78447925  -38.57797768
     atom   26 type  2   force =     0.26108518   -0.07431369   37.07735701
     atom   27 type  1   force =    -0.01422835   -0.56235613    2.01396391
     atom   28 type  2   force =    -0.04142383   -0.92740258  -37.97712079
     atom   29 type  2   force =     0.23168793    0.26574633   37.08726783
     atom   30 type  1   force =     0.31131066    1.11188761    0.04595826
     atom   31 type  2   force =    -1.20504490    0.07998767  -37.12326364
     atom   32 type  2   force =     0.48365037    0.08743905   38.32615703
     atom   33 type  1   force =    -0.18599340    0.76218134   -1.37682617
     atom   34 type  2   force =    -0.02671579    1.31890424  -38.97627084
     atom   35 type  2   force =     0.28014200   -0.44623918   37.54386002
     atom   36 type  3   force =    -0.32968676    0.22414648   -7.84778117
     The core correction contribution to forces
     atom    1 type  1   force =     0.00000000    0.00000000    0.00000000
     atom    2 type  2   force =     0.00047235   -0.00001425    0.02028090
     atom    3 type  2   force =     0.00047456    0.00000945   -0.02082743
     atom    4 type  1   force =     0.00000000    0.00000000    0.00000000
     atom    5 type  2   force =    -0.00058145    0.00181487    0.02039203
     atom    6 type  2   force =     0.00022330   -0.00100208   -0.02091634
     atom    7 type  1   force =     0.00000000    0.00000000    0.00000000
     atom    8 type  2   force =    -0.00021337    0.00039954    0.02050573
     atom    9 type  2   force =    -0.00004481    0.00050400   -0.02095248
     atom   10 type  1   force =     0.00000000    0.00000000    0.00000000
     atom   11 type  2   force =    -0.00058153   -0.00047050    0.02063853
     atom   12 type  2   force =     0.00110706    0.00139057   -0.02086046
     atom   13 type  1   force =     0.00000000    0.00000000    0.00000000
     atom   14 type  2   force =     0.00059641    0.00071308    0.01888894
     atom   15 type  2   force =     0.00074103    0.00039359   -0.02056435
     atom   16 type  1   force =     0.00000000    0.00000000    0.00000000
     atom   17 type  2   force =    -0.00000600    0.00156893    0.02012658
     atom   18 type  2   force =     0.00001073   -0.00050890   -0.02102239
     atom   19 type  1   force =     0.00000000    0.00000000    0.00000000
     atom   20 type  2   force =     0.00009678    0.00079338   -0.02115558
     atom   21 type  1   force =     0.00000000    0.00000000    0.00000000
     atom   22 type  2   force =     0.00021924   -0.00200768    0.01829562
     atom   23 type  2   force =    -0.00041617    0.00130583   -0.02087397
     atom   24 type  1   force =     0.00000000    0.00000000    0.00000000
     atom   25 type  2   force =    -0.00989681    0.00518821    0.01155573
     atom   26 type  2   force =    -0.00027949    0.00072049   -0.02097221
     atom   27 type  1   force =     0.00000000    0.00000000    0.00000000
     atom   28 type  2   force =     0.00035888    0.00138641    0.02078266
     atom   29 type  2   force =    -0.00044372   -0.00043938   -0.02066731
     atom   30 type  1   force =     0.00000000    0.00000000    0.00000000
     atom   31 type  2   force =     0.00052204    0.00019529    0.02061488
     atom   32 type  2   force =    -0.00024655    0.00053791   -0.02101658
     atom   33 type  1   force =     0.00000000    0.00000000    0.00000000
     atom   34 type  2   force =     0.00016109    0.00075022    0.02113310
     atom   35 type  2   force =    -0.00005130    0.00098504   -0.02097655
     atom   36 type  3   force =     0.00000000    0.00000000    0.00000000
     The Hubbard contrib.    to forces
     atom    1 type  1   force =     0.00000000    0.00000000    0.00000000
     atom    2 type  2   force =     0.00000000    0.00000000    0.00000000
     atom    3 type  2   force =     0.00000000    0.00000000    0.00000000
     atom    4 type  1   force =     0.00000000    0.00000000    0.00000000
     atom    5 type  2   force =     0.00000000    0.00000000    0.00000000
     atom    6 type  2   force =     0.00000000    0.00000000    0.00000000
     atom    7 type  1   force =     0.00000000    0.00000000    0.00000000
     atom    8 type  2   force =     0.00000000    0.00000000    0.00000000
     atom    9 type  2   force =     0.00000000    0.00000000    0.00000000
     atom   10 type  1   force =     0.00000000    0.00000000    0.00000000
     atom   11 type  2   force =     0.00000000    0.00000000    0.00000000
     atom   12 type  2   force =     0.00000000    0.00000000    0.00000000
     atom   13 type  1   force =     0.00000000    0.00000000    0.00000000
     atom   14 type  2   force =     0.00000000    0.00000000    0.00000000
     atom   15 type  2   force =     0.00000000    0.00000000    0.00000000
     atom   16 type  1   force =     0.00000000    0.00000000    0.00000000
     atom   17 type  2   force =     0.00000000    0.00000000    0.00000000
     atom   18 type  2   force =     0.00000000    0.00000000    0.00000000
     atom   19 type  1   force =     0.00000000    0.00000000    0.00000000
     atom   20 type  2   force =     0.00000000    0.00000000    0.00000000
     atom   21 type  1   force =     0.00000000    0.00000000    0.00000000
     atom   22 type  2   force =     0.00000000    0.00000000    0.00000000
     atom   23 type  2   force =     0.00000000    0.00000000    0.00000000
     atom   24 type  1   force =     0.00000000    0.00000000    0.00000000
     atom   25 type  2   force =     0.00000000    0.00000000    0.00000000
     atom   26 type  2   force =     0.00000000    0.00000000    0.00000000
     atom   27 type  1   force =     0.00000000    0.00000000    0.00000000
     atom   28 type  2   force =     0.00000000    0.00000000    0.00000000
     atom   29 type  2   force =     0.00000000    0.00000000    0.00000000
     atom   30 type  1   force =     0.00000000    0.00000000    0.00000000
     atom   31 type  2   force =     0.00000000    0.00000000    0.00000000
     atom   32 type  2   force =     0.00000000    0.00000000    0.00000000
     atom   33 type  1   force =     0.00000000    0.00000000    0.00000000
     atom   34 type  2   force =     0.00000000    0.00000000    0.00000000
     atom   35 type  2   force =     0.00000000    0.00000000    0.00000000
     atom   36 type  3   force =     0.00000000    0.00000000    0.00000000
     The SCF correction term to forces
     atom    1 type  1   force =    -0.00018111   -0.00008723    0.00100179
     atom    2 type  2   force =     0.00018706   -0.00014392    0.00039009
     atom    3 type  2   force =     0.00001856   -0.00005669    0.00028022
     atom    4 type  1   force =     0.00001135    0.00008991    0.00088554
     atom    5 type  2   force =    -0.00003794   -0.00002373    0.00032524
     atom    6 type  2   force =    -0.00002730   -0.00000606    0.00027019
     atom    7 type  1   force =    -0.00012715    0.00019215    0.00103771
     atom    8 type  2   force =    -0.00002215    0.00006098    0.00033567
     atom    9 type  2   force =    -0.00000882   -0.00002467    0.00027989
     atom   10 type  1   force =     0.00002593    0.00001112    0.00124238
     atom   11 type  2   force =    -0.00003961    0.00003377    0.00029341
     atom   12 type  2   force =    -0.00006710   -0.00002737    0.00037599
     atom   13 type  1   force =    -0.00019807   -0.00018169    0.00125585
     atom   14 type  2   force =    -0.00013147   -0.00004966    0.00038484
     atom   15 type  2   force =    -0.00002431   -0.00002015    0.00034786
     atom   16 type  1   force =    -0.00008129   -0.00000500    0.00095850
     atom   17 type  2   force =    -0.00002865   -0.00010553    0.00034677
     atom   18 type  2   force =    -0.00000475    0.00000065    0.00028645
     atom   19 type  1   force =     0.00008015    0.00008101    0.00105738
     atom   20 type  2   force =    -0.00004901    0.00006745    0.00032958
     atom   21 type  1   force =    -0.00010765   -0.00007992    0.00116931
     atom   22 type  2   force =     0.00002161    0.00001867    0.00032645
     atom   23 type  2   force =     0.00004999   -0.00003711    0.00037607
     atom   24 type  1   force =     0.00036895   -0.00028978    0.00137933
     atom   25 type  2   force =    -0.00008450    0.00000461    0.00026733
     atom   26 type  2   force =     0.00005093    0.00000212    0.00044028
     atom   27 type  1   force =     0.00006542   -0.00001007    0.00097786
     atom   28 type  2   force =     0.00007102   -0.00011717    0.00032388
     atom   29 type  2   force =     0.00003952    0.00005040    0.00027946
     atom   30 type  1   force =     0.00008765    0.00004632    0.00099558
     atom   31 type  2   force =     0.00008901    0.00006903    0.00030234
     atom   32 type  2   force =     0.00004983   -0.00001046    0.00031141
     atom   33 type  1   force =     0.00005861    0.00028192    0.00131233
     atom   34 type  2   force =     0.00001600    0.00021642    0.00036985
     atom   35 type  2   force =     0.00002563    0.00002198    0.00031564
     atom   36 type  3   force =    -0.00001012    0.00000906    0.00003347

     Total force =     0.100475     Total SCF correction =     0.004270
     Energy error            =      1.7E-02 Ry
     Gradient error          =      5.4E-02 Ry/Bohr

     number of scf cycles    =   2
     number of bfgs steps    =   1

     energy             old  =   -2205.5175615850 Ry
     energy             new  =   -2205.5342235812 Ry

     CASE: energy            _new < energy            _old

     new trust radius        =       0.0925060005 bohr
     new conv_thr            =       0.0000000537 Ry


ATOMIC_POSITIONS (angstrom)
Mo            6.5898570151        1.7689092374        2.8253055440
S             8.1617003501        0.8273815759        4.4339517793
S             8.1798441874        0.8198237680        1.2671027725
Mo            8.1001526035        4.5018346308        2.7176120232
S             6.4999862906        3.7142743186        4.3404198198
S             6.5552641556        3.5223331560        1.1212102251
Mo            6.4980491046        7.1971452819        2.6664456881
S             8.0836073970        6.3393621755        4.2613285499
S             8.0952908249        6.3123475621        1.0952711002
Mo            8.1529826712        9.9143760680        2.8210078854
S             6.5019985197        8.9404478754        4.3730434146
S             6.6175661797        9.0499743599        1.1434296760
Mo            3.4276902804        1.7524283540        2.7687517328
S             4.9739016003        0.8117963967        4.3650313288
S             5.0442983456        0.8499175045        1.2162638450
Mo            4.9824674421        4.5228661583        2.6370945650
S             3.4352427178        3.6740835124        4.2812425210
S             3.4341542227        3.5442687512        1.0728606639
Mo            3.4591964019        7.2049213580        2.6214755138
S             4.9853639530        6.3205902339        1.0368379192
Mo            5.0032573340        9.9060061844        2.7449538727
S             3.4654878761        8.9620401307        4.3286453723
S             3.4068608693        9.0664950545        1.1041003257
Mo            0.2705519632        1.7586154920        2.8102209811
S             1.9274375002        0.7701669986        4.4461318468
S             1.8476682651        0.8547416924        1.2035061559
Mo            1.8570732424        4.4904837518        2.6677409336
S             0.2715080902        3.6535502390        4.3322993854
S             0.2326883111        3.5259364368        1.1675323733
Mo            0.2684609315        7.2271732219        2.6995712594
S             1.9026048774        6.3118840673        4.2389797736
S             1.8535336282        6.3183864069        1.0543374520
Mo            1.8545260828        9.9343011750        2.7605531419
S             0.2979273793        9.0427510504        4.4001625862
S             0.2649272459        9.0508537569        1.1632865409
H             3.1214724852        0.0184784734        5.3326313029



     Writing config-only to output data dir ./MoS2-V-O.save/
     NEW-OLD atomic charge density approx. for the potential

     negative rho (up, down):  1.477E-04 0.000E+00

     total cpu time spent up to now is      163.2 secs

     Self-consistent Calculation

     iteration #  1     ecut=    80.00 Ry     beta= 0.70
     Davidson diagonalization with overlap
     ethr =  1.00E-06,  avg # of iterations = 11.0

     negative rho (up, down):  8.552E-05 0.000E+00

     total cpu time spent up to now is      180.7 secs

     total energy              =   -2205.54666689 Ry
     estimated scf accuracy    <       0.00139841 Ry

     iteration #  2     ecut=    80.00 Ry     beta= 0.70
     Davidson diagonalization with overlap
     ethr =  4.56E-07,  avg # of iterations =  2.0

     negative rho (up, down):  5.677E-05 0.000E+00

     total cpu time spent up to now is      199.5 secs

     total energy              =   -2205.54667002 Ry
     estimated scf accuracy    <       0.00028835 Ry

     iteration #  3     ecut=    80.00 Ry     beta= 0.70
     Davidson diagonalization with overlap
     ethr =  9.39E-08,  avg # of iterations =  5.0

     negative rho (up, down):  4.840E-05 0.000E+00

     total cpu time spent up to now is      214.1 secs

     total energy              =   -2205.54670598 Ry
     estimated scf accuracy    <       0.00002978 Ry

     iteration #  4     ecut=    80.00 Ry     beta= 0.70
     Davidson diagonalization with overlap
     ethr =  9.70E-09,  avg # of iterations =  8.0

     negative rho (up, down):  4.737E-05 0.000E+00

     total cpu time spent up to now is      227.7 secs

     total energy              =   -2205.54671345 Ry
     estimated scf accuracy    <       0.00000571 Ry

     iteration #  5     ecut=    80.00 Ry     beta= 0.70
     Davidson diagonalization with overlap
     ethr =  1.86E-09,  avg # of iterations =  2.0

     negative rho (up, down):  5.029E-05 0.000E+00

     total cpu time spent up to now is      241.2 secs

     total energy              =   -2205.54671406 Ry
     estimated scf accuracy    <       0.00000154 Ry

     iteration #  6     ecut=    80.00 Ry     beta= 0.70
     Davidson diagonalization with overlap
     ethr =  5.00E-10,  avg # of iterations =  5.0

     negative rho (up, down):  5.687E-05 0.000E+00

     total cpu time spent up to now is      253.8 secs

     total energy              =   -2205.54671429 Ry
     estimated scf accuracy    <       0.00000045 Ry

     iteration #  7     ecut=    80.00 Ry     beta= 0.70
     Davidson diagonalization with overlap
     ethr =  1.48E-10,  avg # of iterations =  5.0

     negative rho (up, down):  7.790E-05 0.000E+00

     total cpu time spent up to now is      266.7 secs

     total energy              =   -2205.54671426 Ry
     estimated scf accuracy    <       0.00000018 Ry

     iteration #  8     ecut=    80.00 Ry     beta= 0.70
     Davidson diagonalization with overlap
     ethr =  5.99E-11,  avg # of iterations =  5.0

     negative rho (up, down):  1.381E-04 0.000E+00

     total cpu time spent up to now is      268.9 secs

     End of self-consistent calculation

          k = 0.0000 0.0000 0.0000 (105382 PWs)   bands (ev):

   -62.8802 -62.8774 -62.8541 -62.8417 -62.8290 -62.8097 -62.8015 -62.7961
   -62.7898 -62.7891 -62.7680 -62.7472 -37.2218 -37.1617 -37.1454 -37.1364
   -37.1166 -37.0943 -37.0785 -37.0723 -37.0665 -37.0622 -37.0575 -37.0321
   -37.0268 -37.0219 -37.0083 -37.0057 -37.0036 -36.9867 -36.9804 -36.9801
   -36.9648 -36.9554 -36.9493 -36.9306 -36.9251 -36.9217 -36.9075 -36.9011
   -36.8951 -36.8800 -36.8681 -36.8570 -36.8452 -36.7858 -36.7518 -36.7100
   -16.0275 -15.2906 -15.1790 -15.0406 -14.9006 -14.8502 -14.6144 -14.5060
   -14.4422 -14.4182 -14.3928 -14.3670 -14.3463 -14.2866 -14.1752 -14.1280
   -14.1216 -14.1180 -14.0406 -13.9023 -13.8503 -13.8381 -13.7953  -8.1793
    -7.6145  -7.4169  -7.2829  -7.2665  -7.2239  -7.1803  -7.1362  -6.9652
    -6.8447  -6.7758  -6.7586  -6.6802  -6.5785  -6.5043  -6.4817  -6.4160
    -6.3465  -6.2562  -6.0191  -5.9629  -5.9227  -5.8930  -5.8226  -5.7846
    -5.7720  -5.7080  -5.6886  -5.6551  -5.6301  -5.5536  -5.5261  -5.4671
    -5.3808  -5.3508  -5.1678  -5.1607  -5.0519  -4.9963  -4.9901  -4.9732
    -4.9222  -4.8414  -4.6462  -4.5317  -4.4349  -4.3260  -4.2935  -4.2198
    -4.2049  -4.1130  -4.0491  -3.9307  -3.8271  -3.7827  -3.7346  -3.6923
    -3.6571  -3.6019  -3.5414  -3.5153  -3.4909  -3.4579  -3.4327  -3.3805
    -3.3504  -3.2156  -3.1351  -2.8921  -2.8893  -2.7842  -2.7798  -2.7453
    -2.7195  -2.7022  -2.6599  -2.6239  -2.5577  -2.2955  -2.0851  -1.9940
    -1.9627  -1.0585  -0.7726  -0.6738  -0.1694  -0.1344  -0.0950  -0.0474
     0.0985   0.1064   0.1467   0.2536   0.2665   0.2935   0.3793   0.4556
     0.4668   0.5487   0.5706   0.6021   0.6270   0.6474   0.7214   0.7424
     0.7643   0.7907   0.8473   0.8930   0.9550   0.9830   1.0307   1.2873
     1.3761

     the Fermi energy is    -1.0589 ev

!    total energy              =   -2205.54671414 Ry
     estimated scf accuracy    <       0.00000004 Ry
     smearing contrib. (-TS)   =      -0.00571117 Ry
     internal energy E=F+TS    =   -2205.54100297 Ry

     The total energy is F=E-TS. E is the sum of the following terms:
     one-electron contribution =  -18044.05405369 Ry
     hartree contribution      =    9008.78765135 Ry
     xc contribution           =    -385.22835931 Ry
     ewald contribution        =    7214.95375869 Ry

     convergence has been achieved in   8 iterations

     negative rho (up, down):  1.381E-04 0.000E+00

     Forces acting on atoms (cartesian axes, Ry/au):

     atom    1 type  1   force =    -0.00502607   -0.00477318   -0.00230901
     atom    2 type  2   force =    -0.00206410    0.00729677   -0.00314605
     atom    3 type  2   force =    -0.01017744    0.00481515   -0.01563424
     atom    4 type  1   force =     0.00435486    0.00234445    0.00122813
     atom    5 type  2   force =     0.00207331   -0.00575426   -0.00422642
     atom    6 type  2   force =     0.00147546    0.00497676    0.00221475
     atom    7 type  1   force =     0.00390710   -0.00718844    0.00147569
     atom    8 type  2   force =     0.00171614   -0.00324994    0.00977653
     atom    9 type  2   force =     0.00937039    0.00435515    0.00280246
     atom   10 type  1   force =     0.00052788    0.00763232    0.00006327
     atom   11 type  2   force =     0.00369856   -0.00216446   -0.00983421
     atom   12 type  2   force =    -0.00365898   -0.00078885    0.00060658
     atom   13 type  1   force =     0.00347445   -0.00058462    0.00281369
     atom   14 type  2   force =     0.00718273    0.00119181    0.00052134
     atom   15 type  2   force =    -0.00604907    0.00127665   -0.00511885
     atom   16 type  1   force =     0.00202619    0.00369197    0.00210160
     atom   17 type  2   force =     0.00472986    0.00180397    0.00150301
     atom   18 type  2   force =    -0.00122807   -0.00011994    0.00734005
     atom   19 type  1   force =     0.00104954   -0.00130322    0.00468203
     atom   20 type  2   force =     0.00244457   -0.00450568   -0.00426510
     atom   21 type  1   force =    -0.00170700    0.00236596    0.00101489
     atom   22 type  2   force =    -0.00201693    0.00048385   -0.00253805
     atom   23 type  2   force =     0.00044507   -0.00101880    0.00073772
     atom   24 type  1   force =    -0.00212944   -0.00070404   -0.00546363
     atom   25 type  2   force =     0.04107732   -0.01700189    0.02631141
     atom   26 type  2   force =    -0.00585708    0.00115438   -0.00315607
     atom   27 type  1   force =    -0.00247758   -0.00129356    0.00554705
     atom   28 type  2   force =    -0.00139555   -0.00381437   -0.00437001
     atom   29 type  2   force =    -0.00073869    0.00403432   -0.00702668
     atom   30 type  1   force =    -0.00092522   -0.00229543    0.00557572
     atom   31 type  2   force =     0.00103442   -0.00025982    0.00572151
     atom   32 type  2   force =    -0.00530191    0.00323023    0.00543025
     atom   33 type  1   force =     0.00104588    0.00010491    0.00471598
     atom   34 type  2   force =    -0.00136816   -0.01979298   -0.01353284
     atom   35 type  2   force =    -0.00605598    0.00569552    0.00124832
     atom   36 type  3   force =    -0.03345645    0.02015931   -0.01281084
     The non-local contrib.  to forces
     atom    1 type  1   force =     0.00182082    0.02436157   -0.00830834
     atom    2 type  2   force =    -0.00948612   -0.00602191   -0.25825987
     atom    3 type  2   force =    -0.00942275   -0.00345866    0.26233409
     atom    4 type  1   force =     0.00273330    0.00741010    0.00358524
     atom    5 type  2   force =     0.00647968   -0.03243763   -0.25520397
     atom    6 type  2   force =    -0.00084817    0.00572038    0.26708108
     atom    7 type  1   force =    -0.02082615    0.00203586   -0.02521024
     atom    8 type  2   force =     0.00766824   -0.00126758   -0.25852897
     atom    9 type  2   force =     0.00457540   -0.01008955    0.27115622
     atom   10 type  1   force =     0.00047011   -0.00001609   -0.00133377
     atom   11 type  2   force =     0.01203035    0.00326952   -0.26190861
     atom   12 type  2   force =    -0.01458317   -0.01904144    0.26501259
     atom   13 type  1   force =    -0.00298237    0.02167515   -0.00496558
     atom   14 type  2   force =    -0.00046939   -0.01847373   -0.23702250
     atom   15 type  2   force =    -0.01033335   -0.00659044    0.26241910
     atom   16 type  1   force =     0.00100190    0.03352448   -0.03062288
     atom   17 type  2   force =     0.00181159   -0.02928245   -0.24756878
     atom   18 type  2   force =    -0.00148775   -0.00035118    0.27096610
     atom   19 type  1   force =     0.01621881   -0.00008445   -0.02139227
     atom   20 type  2   force =     0.00065946   -0.01987100    0.26176579
     atom   21 type  1   force =    -0.00094897    0.02452883    0.00386077
     atom   22 type  2   force =    -0.00423526    0.01878887   -0.22147176
     atom   23 type  2   force =     0.00538031   -0.01808219    0.26506901
     atom   24 type  1   force =     0.01108806    0.01352090   -0.00898143
     atom   25 type  2   force =     0.18770801   -0.10055389   -0.09916766
     atom   26 type  2   force =     0.00327066   -0.01266906    0.26867152
     atom   27 type  1   force =    -0.00553746    0.00896089    0.00632092
     atom   28 type  2   force =    -0.00679751   -0.01617168   -0.26997494
     atom   29 type  2   force =     0.00288440    0.00128878    0.26385047
     atom   30 type  1   force =    -0.00094002    0.01816408    0.00764729
     atom   31 type  2   force =    -0.00968106   -0.00156667   -0.26021635
     atom   32 type  2   force =     0.00120794   -0.01114895    0.27271518
     atom   33 type  1   force =    -0.00363678    0.00854648    0.00576911
     atom   34 type  2   force =     0.00064251   -0.01747118   -0.27536613
     atom   35 type  2   force =    -0.00130229   -0.01096752    0.26405181
     atom   36 type  3   force =    -0.01516470    0.00983626   -0.01422152
     The ionic contribution  to forces
     atom    1 type  1   force =    -0.11082778    0.71273196    5.70588697
     atom    2 type  2   force =    -0.20190576    0.21622205   39.39980862
     atom    3 type  2   force =    -0.19406294   -0.06602628  -36.43028538
     atom    4 type  1   force =     0.01750802    0.53043224    0.83797188
     atom    5 type  2   force =    -0.92790704    1.48771930   38.63846550
     atom    6 type  2   force =     0.24501559   -0.54611445  -37.90281775
     atom    7 type  1   force =    -2.73669819   -2.26563404    2.49676830
     atom    8 type  2   force =    -0.97592225    0.06071692   37.68326524
     atom    9 type  2   force =     0.35458982   -0.06667172  -37.99358796
     atom   10 type  1   force =    -0.77308782   -0.40956960    5.19524312
     atom   11 type  2   force =    -0.40848975   -1.71413631   38.91064124
     atom   12 type  2   force =     0.28648116    0.54526390  -37.74647629
     atom   13 type  1   force =     0.15818938    1.33407640    2.09978197
     atom   14 type  2   force =     0.61438581    0.31427420   38.35374123
     atom   15 type  2   force =     0.23127048    0.00042820  -36.95129841
     atom   16 type  1   force =    -0.02779191    3.66433673    0.77257561
     atom   17 type  2   force =     0.77112236    1.59353285   37.90407178
     atom   18 type  2   force =    -0.12822815   -0.52244083  -38.41862799
     atom   19 type  1   force =     2.66659061   -2.40313849    0.38539748
     atom   20 type  2   force =     0.20951087   -0.16441387  -38.60322816
[...]
     atom   27 type  1   force =    -0.00680379    0.00840709    0.00360436
     atom   28 type  2   force =    -0.00058995    0.00113414   -0.26394611
     atom   29 type  2   force =    -0.00307699   -0.01207511    0.26951222
     atom   30 type  1   force =    -0.00290991    0.01841333    0.00444430
     atom   31 type  2   force =    -0.00746290   -0.00183759   -0.26468262
     atom   32 type  2   force =     0.00627147   -0.01259042    0.26771935
     atom   33 type  1   force =    -0.00412630    0.00907536   -0.00236915
     atom   34 type  2   force =     0.00720585   -0.00656927   -0.26793784
     atom   35 type  2   force =    -0.00353219   -0.01386998    0.26633290
     atom   36 type  3   force =    -0.03378380    0.02099007   -0.03707896
     The ionic contribution  to forces
     atom    1 type  1   force =    -0.19615629    0.71240279    1.71702702
     atom    2 type  2   force =     0.05185889    0.14741946   38.41430498
     atom    3 type  2   force =    -0.07052925   -0.29220109  -38.11675605
     atom    4 type  1   force =    -0.12866311    0.43797953   -0.12617569
     atom    5 type  2   force =    -0.70771995    1.18231421   38.27994062
     atom    6 type  2   force =    -0.04021092   -0.28633297  -38.11206520
     atom    7 type  1   force =    -2.96951606   -1.63720631    2.45668239
     atom    8 type  2   force =    -1.16707292    0.05395832   38.32068706
     atom    9 type  2   force =     0.33549383    0.09902812  -38.09190757
     atom   10 type  1   force =    -0.41269124   -0.42633175    1.96211655
     atom   11 type  2   force =    -0.32725375   -1.49162573   38.27860848
     atom   12 type  2   force =     0.08944807    0.24683505  -37.86671772
     atom   13 type  1   force =    -0.66531496    1.25738367    4.92097053
     atom   14 type  2   force =     0.66889318    0.05687249   38.38017753
     atom   15 type  2   force =    -0.19243642   -0.05384646  -37.35669071
     atom   16 type  1   force =    -0.27195959    3.42724460    2.24530086
     atom   17 type  2   force =     0.74541868    1.41575444   38.29480671
     atom   18 type  2   force =    -0.17100564   -0.45484761  -37.52081021
     atom   19 type  1   force =     2.80188418   -2.04623364    2.73043494
     atom   20 type  2   force =    -0.09542827    0.03016878  -38.50058653
     atom   21 type  1   force =     0.23718535   -0.69645102    0.88450529
     atom   22 type  2   force =     0.73565471   -2.01306095   38.37698257
     atom   23 type  2   force =    -0.21972567    0.31219122  -37.64248346
     atom   24 type  1   force =     1.34799898   -0.24060787   -0.49467476
     atom   25 type  2   force =    -1.74221382    1.28835923   38.82608395
     atom   26 type  2   force =     0.20271918   -0.14766264  -36.83766461
     atom   27 type  1   force =     0.38899183    0.21391975    0.52375330
     atom   28 type  2   force =     0.01580234    0.28017318   37.87309028
     atom   29 type  2   force =     0.23866996    0.10097145  -38.16656151
     atom   30 type  1   force =     0.08557214   -0.64651610    1.96062401
     atom   31 type  2   force =     1.11958441    0.01324200   38.15018135
     atom   32 type  2   force =    -0.19576824    0.02181771  -37.77005965
     atom   33 type  1   force =    -0.06580116   -0.04790101    4.32298401
     atom   34 type  2   force =    -0.32353440   -0.57506028   38.80195171
     atom   35 type  2   force =     0.17674515    0.20591156  -37.41243150
     atom   36 type  3   force =     0.72108077   -0.44806212    8.29437101
     The local contribution  to forces
     atom    1 type  1   force =     0.19492777   -0.73675075   -1.71621964
     atom    2 type  2   force =    -0.03634536   -0.13353410  -38.18037397
     atom    3 type  2   force =     0.07023168    0.29554156   37.87007604
     atom    4 type  1   force =     0.12491295   -0.44501055    0.12195099
     atom    5 type  2   force =     0.70757392   -1.16064309  -38.04523522
     atom    6 type  2   force =     0.03686673    0.29022332   37.86571326
     atom    7 type  1   force =     2.98694158    1.63088067   -2.43151710
     atom    8 type  2   force =     1.15687532   -0.05753814  -38.07844893
     atom    9 type  2   force =    -0.33218466   -0.08592462   37.84538550
     atom   10 type  1   force =     0.41239076    0.42014112   -1.96687210
     atom   11 type  2   force =     0.32073072    1.49208394  -38.04195644
     atom   12 type  2   force =    -0.08027277   -0.23590881   37.61961313
     atom   13 type  1   force =     0.66944304   -1.28001571   -4.91129695
     atom   14 type  2   force =    -0.66591865   -0.04448807  -38.14792155
     atom   15 type  2   force =     0.18847685    0.06129206   37.11413493
     atom   16 type  1   force =     0.26656620   -3.46629400   -2.21133082
     atom   17 type  2   force =    -0.74205721   -1.38805891  -38.06503666
     atom   18 type  2   force =     0.17047069    0.45638360   37.27469839
     atom   19 type  1   force =    -2.82051457    2.04709053   -2.70506812
     atom   20 type  2   force =     0.09371968   -0.01741913   38.25861587
     atom   21 type  1   force =    -0.23844959    0.67314233   -0.88673484
     atom   22 type  2   force =    -0.73074296    2.00860373  -38.15458524
     atom   23 type  2   force =     0.21299125   -0.29433535   37.39719336
     atom   24 type  1   force =    -1.35532753    0.22729606    0.49246694
     atom   25 type  2   force =     1.50354423   -1.16256280  -38.80022129
     atom   26 type  2   force =    -0.20305221    0.15824827   36.58836023
     atom   27 type  1   force =    -0.38233384   -0.22257916   -0.52749136
     atom   28 type  2   force =    -0.01494180   -0.28101660  -37.62953342
     atom   29 type  2   force =    -0.23586605   -0.08999721   37.91893283
     atom   30 type  1   force =    -0.08286485    0.62865147   -1.96557672
     atom   31 type  2   force =    -1.11302804   -0.01229450  -37.90592398
     atom   32 type  2   force =     0.19025804   -0.00942996   37.52259670
     atom   33 type  1   force =     0.07032639    0.03826458   -4.32112264
     atom   34 type  2   force =     0.31715094    0.58136240  -38.55481260
     atom   35 type  2   force =    -0.17410038   -0.19293756   37.16735545
     atom   36 type  3   force =    -0.68785481    0.42873196   -8.25723816
     The core correction contribution to forces
     atom    1 type  1   force =     0.00000000    0.00000000    0.00000000
     atom    2 type  2   force =     0.00087396    0.00077848    0.02025471
     atom    3 type  2   force =    -0.00029655   -0.00001738   -0.02096297
     atom    4 type  1   force =     0.00000000    0.00000000    0.00000000
     atom    5 type  2   force =    -0.00007655    0.00094943    0.02035526
     atom    6 type  2   force =    -0.00007565   -0.00025656   -0.02086804
     atom    7 type  1   force =     0.00000000    0.00000000    0.00000000
     atom    8 type  2   force =    -0.00052125    0.00004633    0.02077249
     atom    9 type  2   force =     0.00053650    0.00076845   -0.02094001
     atom   10 type  1   force =     0.00000000    0.00000000    0.00000000
     atom   11 type  2   force =    -0.00003850   -0.00016611    0.02036781
     atom   12 type  2   force =     0.00070188    0.00079939   -0.02091199
     atom   13 type  1   force =     0.00000000    0.00000000    0.00000000
     atom   14 type  2   force =     0.00067853    0.00023697    0.02006108
     atom   15 type  2   force =    -0.00040166    0.00035281   -0.02070519
     atom   16 type  1   force =     0.00000000    0.00000000    0.00000000
     atom   17 type  2   force =     0.00035134    0.00162179    0.02000673
     atom   18 type  2   force =    -0.00009413   -0.00051728   -0.02079964
     atom   19 type  1   force =     0.00000000    0.00000000    0.00000000
     atom   20 type  2   force =    -0.00010927    0.00062304   -0.02116562
     atom   21 type  1   force =     0.00000000    0.00000000    0.00000000
     atom   22 type  2   force =     0.00025553   -0.00083331    0.01951722
     atom   23 type  2   force =    -0.00068256    0.00121651   -0.02088699
     atom   24 type  1   force =     0.00000000    0.00000000    0.00000000
     atom   25 type  2   force =    -0.01646867    0.00897030    0.00378143
     atom   26 type  2   force =     0.00032909    0.00022095   -0.02113821
     atom   27 type  1   force =     0.00000000    0.00000000    0.00000000
     atom   28 type  2   force =    -0.00011598    0.00000147    0.02073139
     atom   29 type  2   force =     0.00016787    0.00063405   -0.02094041
     atom   30 type  1   force =     0.00000000    0.00000000    0.00000000
     atom   31 type  2   force =     0.00035183    0.00033740    0.02075540
     atom   32 type  2   force =    -0.00056940    0.00065772   -0.02087736
     atom   33 type  1   force =     0.00000000    0.00000000    0.00000000
     atom   34 type  2   force =    -0.00059287    0.00010680    0.02089002
     atom   35 type  2   force =     0.00036415    0.00087028   -0.02091890
     atom   36 type  3   force =     0.00000000    0.00000000    0.00000000
     The Hubbard contrib.    to forces
     atom    1 type  1   force =     0.00000000    0.00000000    0.00000000
     atom    2 type  2   force =     0.00000000    0.00000000    0.00000000
     atom    3 type  2   force =     0.00000000    0.00000000    0.00000000
     atom    4 type  1   force =     0.00000000    0.00000000    0.00000000
     atom    5 type  2   force =     0.00000000    0.00000000    0.00000000
     atom    6 type  2   force =     0.00000000    0.00000000    0.00000000
     atom    7 type  1   force =     0.00000000    0.00000000    0.00000000
     atom    8 type  2   force =     0.00000000    0.00000000    0.00000000
     atom    9 type  2   force =     0.00000000    0.00000000    0.00000000
     atom   10 type  1   force =     0.00000000    0.00000000    0.00000000
     atom   11 type  2   force =     0.00000000    0.00000000    0.00000000
     atom   12 type  2   force =     0.00000000    0.00000000    0.00000000
     atom   13 type  1   force =     0.00000000    0.00000000    0.00000000
     atom   14 type  2   force =     0.00000000    0.00000000    0.00000000
     atom   15 type  2   force =     0.00000000    0.00000000    0.00000000
     atom   16 type  1   force =     0.00000000    0.00000000    0.00000000
     atom   17 type  2   force =     0.00000000    0.00000000    0.00000000
     atom   18 type  2   force =     0.00000000    0.00000000    0.00000000
     atom   19 type  1   force =     0.00000000    0.00000000    0.00000000
     atom   20 type  2   force =     0.00000000    0.00000000    0.00000000
     atom   21 type  1   force =     0.00000000    0.00000000    0.00000000
     atom   22 type  2   force =     0.00000000    0.00000000    0.00000000
     atom   23 type  2   force =     0.00000000    0.00000000    0.00000000
     atom   24 type  1   force =     0.00000000    0.00000000    0.00000000
     atom   25 type  2   force =     0.00000000    0.00000000    0.00000000
     atom   26 type  2   force =     0.00000000    0.00000000    0.00000000
     atom   27 type  1   force =     0.00000000    0.00000000    0.00000000
     atom   28 type  2   force =     0.00000000    0.00000000    0.00000000
     atom   29 type  2   force =     0.00000000    0.00000000    0.00000000
     atom   30 type  1   force =     0.00000000    0.00000000    0.00000000
     atom   31 type  2   force =     0.00000000    0.00000000    0.00000000
     atom   32 type  2   force =     0.00000000    0.00000000    0.00000000
     atom   33 type  1   force =     0.00000000    0.00000000    0.00000000
     atom   34 type  2   force =     0.00000000    0.00000000    0.00000000
     atom   35 type  2   force =     0.00000000    0.00000000    0.00000000
     atom   36 type  3   force =     0.00000000    0.00000000    0.00000000
     The SCF correction term to forces
     atom    1 type  1   force =    -0.00000104   -0.00001408    0.00008331
     atom    2 type  2   force =     0.00000799    0.00000016    0.00003737
     atom    3 type  2   force =    -0.00000217   -0.00000161    0.00001487
     atom    4 type  1   force =    -0.00001152   -0.00000033    0.00007660
     atom    5 type  2   force =    -0.00000235   -0.00000536    0.00003693
     atom    6 type  2   force =    -0.00000157   -0.00000244    0.00000787
     atom    7 type  1   force =    -0.00000919   -0.00000436    0.00005602
     atom    8 type  2   force =    -0.00001191    0.00000438    0.00002204
     atom    9 type  2   force =    -0.00000991    0.00000899    0.00001423
     atom   10 type  1   force =     0.00000025    0.00001228    0.00007391
     atom   11 type  2   force =     0.00000286    0.00000140    0.00002558
     atom   12 type  2   force =    -0.00000382   -0.00000441    0.00001213
     atom   13 type  1   force =    -0.00002506    0.00000586    0.00007982
     atom   14 type  2   force =    -0.00000297    0.00000624    0.00003162
     atom   15 type  2   force =    -0.00001073   -0.00000671    0.00000994
     atom   16 type  1   force =    -0.00002215    0.00000804    0.00006535
     atom   17 type  2   force =    -0.00000581   -0.00001526    0.00002882
     atom   18 type  2   force =    -0.00000359   -0.00000273    0.00001579
     atom   19 type  1   force =     0.00001525   -0.00000490    0.00002326
     atom   20 type  2   force =     0.00000376    0.00000464    0.00000615
     atom   21 type  1   force =     0.00000048    0.00001207    0.00004095
     atom   22 type  2   force =    -0.00000137    0.00001406    0.00002920
     atom   23 type  2   force =    -0.00000060    0.00001227   -0.00000364
     atom   24 type  1   force =     0.00001503   -0.00001660    0.00008986
     atom   25 type  2   force =    -0.00000400    0.00000883    0.00003724
     atom   26 type  2   force =     0.00001064   -0.00000434    0.00001763
     atom   27 type  1   force =     0.00003483   -0.00002765    0.00006006
     atom   28 type  2   force =     0.00000850   -0.00001823    0.00004327
     atom   29 type  2   force =     0.00000494   -0.00000259    0.00000614
     atom   30 type  1   force =    -0.00000695    0.00002588    0.00005121
     atom   31 type  2   force =    -0.00000036   -0.00000817    0.00002787
     atom   32 type  2   force =     0.00000330    0.00000060   -0.00000081
     atom   33 type  1   force =    -0.00000669    0.00002450    0.00005491
     atom   34 type  2   force =     0.00000123    0.00001332    0.00002997
     atom   35 type  2   force =     0.00000547   -0.00000013    0.00000950
     atom   36 type  3   force =    -0.00000130    0.00000223    0.00000365

     Total force =     0.005439     Total SCF correction =     0.000270
     Energy error            =      6.8E-05 Ry
     Gradient error          =      1.7E-03 Ry/Bohr

     bfgs converged in  20 scf cycles and  19 bfgs steps
     (criteria: energy <  1.0E-04 Ry, force <  1.0E-02 Ry/Bohr)

     End of BFGS Geometry Optimization

     Final energy             =   -2205.5810492206 Ry

     File ./MoS2-V-O.bfgs deleted, as requested
Begin final coordinates

ATOMIC_POSITIONS (angstrom)
Mo            6.5694436292        1.7581310464        2.7433242248
S             8.1621969908        0.8651239477        4.3332357128
S             8.1309147139        0.8459194733        1.1265276130
Mo            8.1258601120        4.5025015290        2.6926347175
S             6.5394359188        3.6607929333        4.3016397097
S             6.5534246056        3.5648091603        1.1005438195
Mo            6.5351299397        7.1781360025        2.6642171564
S             8.0860977842        6.2990873086        4.3023478499
S             8.1472576216        6.3398356073        1.0993114410
Mo            8.1581852001        9.9500045911        2.7505552165
S             6.5535350427        8.9571341304        4.3125308069
S             6.5971897512        9.0364358646        1.1211640226
Mo            3.4344754526        1.7394259773        2.8126919990
S             5.0415951425        0.8119086777        4.3462173233
S             4.9728135140        0.8362107383        1.1811080890
Mo            5.0045632871        4.5385837526        2.6639706164
S             3.4726437302        3.6834361911        4.3220700842
S             3.4425004695        3.5391964052        1.1383746276
Mo            3.4745698778        7.1718052335        2.6744109130
S             4.9967601829        6.3117833262        1.0493739273
Mo            5.0053537109        9.9023577342        2.7349096948
S             3.4924277449        8.9228988375        4.3392792019
S             3.3920396113        9.0278903038        1.1467784798
Mo            0.2442596860        1.7633620768        2.6926539957
S             1.9638968087        0.7589682604        4.5539992815
S             1.8689010077        0.8332959627        1.2102508624
Mo            1.8600327693        4.4789681035        2.7102909752
S             0.2577434450        3.5905658222        4.2909532421
S             0.2614304571        3.5728001790        1.1041052975
Mo            0.2684397115        7.2157120816        2.7364654181
S             1.8986343961        6.2937587566        4.3005625301
S             1.8524632705        6.3161936717        1.1195240372
Mo            1.8619838752        9.9308603536        2.8078228046
S             0.2540665582        9.0166867085        4.3680664719
S             0.2921185920        9.0508649107        1.1737162208
H             2.8522157343        0.2155007511        5.4947114878
End final coordinates



     Writing all to output data dir ./MoS2-V-O.save/
 
     init_run     :      2.39s CPU      2.66s WALL (       1 calls)
     electrons    :   1710.05s CPU   1904.75s WALL (      20 calls)
     update_pot   :     26.49s CPU     27.94s WALL (      19 calls)
     forces       :     26.24s CPU     30.26s WALL (      20 calls)

     Called by init_run:
     wfcinit      :      0.38s CPU      0.43s WALL (       1 calls)
     potinit      :      1.33s CPU      1.45s WALL (       1 calls)
     hinit0       :      0.16s CPU      0.18s WALL (       1 calls)

     Called by electrons:
     c_bands      :    207.24s CPU    210.68s WALL (     168 calls)
     sum_band     :     49.11s CPU     62.43s WALL (     168 calls)
     v_of_rho     :     68.00s CPU     82.39s WALL (     176 calls)
     newd         :     23.01s CPU     35.48s WALL (     176 calls)
     mix_rho      :   1370.74s CPU   1521.77s WALL (     168 calls)

     Called by c_bands:
     init_us_2    :      3.56s CPU      3.86s WALL (     337 calls)
     init_us_2:cp :      3.56s CPU      3.86s WALL (     337 calls)
     regterg      :    194.65s CPU    197.73s WALL (     168 calls)

     Called by *egterg:
     rdiaghg      :     15.87s CPU     16.04s WALL (     885 calls)
     h_psi        :    112.01s CPU    113.10s WALL (     917 calls)
     s_psi        :     13.93s CPU     13.98s WALL (     917 calls)
     g_psi        :      0.86s CPU      0.86s WALL (     748 calls)

     Called by h_psi:
     h_psi:calbec :     15.45s CPU     15.54s WALL (     917 calls)
     vloc_psi     :     81.06s CPU     81.94s WALL (     917 calls)
     add_vuspsi   :     13.80s CPU     13.91s WALL (     917 calls)

     General routines
     calbec       :     22.05s CPU     22.16s WALL (    1165 calls)
     fft          :     44.82s CPU     53.09s WALL (   11907 calls)
     ffts         :    621.33s CPU    767.45s WALL (  335404 calls)
     fftw         :     69.65s CPU     70.29s WALL (  103044 calls)
     interpolate  :      1.27s CPU      1.50s WALL (     176 calls)
 
     Parallel routines
 
     PWSCF        :  29m28.64s CPU  32m51.78s WALL

 
   This run was terminated on:   2:23:58   4Nov2023            

=------------------------------------------------------------------------------=
   JOB DONE.
=------------------------------------------------------------------------------=
